mFile = /opt/software/qchem/qchem-5.0.1//bin/mpi/machines
Process 0 of 1 is on vega03.cac.cornell.edu - thread support 0
initial socket setup ...start
initial socket setup ...done 
now start server 0 ... 
vega03 10.84.3
Q-Chem Developer Version! Running on 10.84.3.*
                  Welcome to Q-Chem
     A Quantum Leap Into The Future Of Chemistry


 Q-Chem 5.0, Q-Chem, Inc., Pleasanton, CA (2017)

 Yihan Shao,  Zhengting Gan,  E. Epifanovsky,  A. T. B. Gilbert,  M. Wormit,  
 J. Kussmann,  A. W. Lange,  A. Behn,  Jia Deng,  Xintian Feng,  D. Ghosh,  
 M. Goldey,  P. R. Horn,  L. D. Jacobson,  I. Kaliman,  T. Kus,  A. Landau,  
 Jie Liu,  E. I. Proynov,  R. M. Richard,  R. P. Steele,  E. J. Sundstrom,  
 H. L. Woodcock III,  P. M. Zimmerman,  D. Zuev,  B. Albrecht,  E. Alguire,  
 S. A. Baeppler,  Z. Benda,  Y. A. Bernard,  E. J. Berquist,  K. B. Bravaya,  
 D. Casanova,  Chun-Min Chang,  Yunqing Chen,  A. Chien,  K. D. Closser,  
 M. P. Coons,  S. Dasgupta,  M. Diedenhofen,  Hainam Do,  R. G. Edgar,  
 Po-Tung Fang,  S. Fatehi,  Qingguo Feng,  Qinghui Ge,  A. Ghysels,  
 J. Gomes,  J. Gonthier,  A. Gunina,  M. W. D. Hanson-Heine,  
 P. H. P. Harbach,  A. W. Hauser,  J. E. Herr,  E. G. Hohenstein,  
 Z. C. Holden,  Kerwin Hui,  T.-C. Jagau,  Hyunjun Ji,  B. Kaduk,  
 K. Khistyaev,  Jaehoon Kim,  P. Klunzinger,  K. Koh,  D. Kosenkov,  
 T. Kowalczyk,  C. M. Krauter,  A. Kunitsa,  Ka Un Lao,  A. Laurent,  
 K. V. Lawler,  Joonho Lee,  D. Lefrancois,  S. Lehtola,  D. S. Levine,  
 Yi-Pei Li,  You-Sheng Lin,  Fenglai Liu,  E. Livshits,  A. Luenser,  
 P. Manohar,  E. Mansoor,  S. F. Manzer,  Shan-Ping Mao,  Yuezhi Mao,  
 N. Mardirossian,  A. V. Marenich,  L. A. Martinez-Martinez,  S. A. Maurer,  
 N. J. Mayhall,  S. C. McKenzie,  J.-M. Mewes,  A. F. Morrison,  K. Nanda,  
 T. S. Nguyen-Beck,  R. Olivares-Amaya,  J. A. Parkhill,  T. M. Perrine,  
 F. Plasser,  S. Prager,  A. Prociuk,  D. R. Rehn,  F. Rob,  M. Schneider,  
 N. Sergueev,  S. M. Sharada,  S. Sharma,  D. W. Small,  T. Stauch,  
 T. Stein,  Yu-Chuan Su,  A. J. W. Thom,  T. Tsuchimochi,  L. Vogt,  
 O. Vydrov,  M. A. Watson,  J. Wenzel,  M. de Wergifosse,  T. A. Wesolowski,  
 A. White,  J. Witte,  A. Yamada,  Jun Yang,  K. Yao,  S. Yeganeh,  
 S. R. Yost,  Zhi-Qiang You,  A. Zech,  Igor Ying Zhang,  Xing Zhang,  
 Yan Zhao,  Ying Zhu,  B. R. Brooks,  G. K. L. Chan,  C. J. Cramer,  
 M. S. Gordon,  W. J. Hehre,  A. Klamt,  M. W. Schmidt,  C. D. Sherrill,  
 D. G. Truhlar,  A. Aspuru-Guzik,  R. Baer,  A. T. Bell,  N. A. Besley,  
 Jeng-Da Chai,  A. Dreuw,  B. D. Dunietz,  T. R. Furlani,  Chao-Ping Hsu,  
 Yousung Jung,  Jing Kong,  D. S. Lambrecht,  WanZhen Liang,  C. Ochsenfeld,  
 V. A. Rassolov,  L. V. Slipchenko,  J. E. Subotnik,  T. Van Voorhis,  
 J. M. Herbert,  A. I. Krylov,  P. M. W. Gill,  M. Head-Gordon

 Contributors to earlier versions of Q-Chem not listed above: 
 R. D. Adamson,  B. Austin,  J. Baker,  G. J. O. Beran,  K. Brandhorst,  
 S. T. Brown,  E. F. C. Byrd,  A. K. Chakraborty,  C.-L. Cheng,  
 Siu Hung Chien,  D. M. Chipman,  D. L. Crittenden,  H. Dachsel,  
 R. A. DiStasio Jr.,  R. J. Doerksen,  A. D. Dutoi,  L. Fusti-Molnar,  
 W. A. Goddard III,  A. Golubeva-Zadorozhnaya,  S. R. Gwaltney,  G. Hawkins,  
 A. Heyden,  S. Hirata,  G. Kedziora,  F. J. Keil,  C. Kelley,  Jihan Kim,  
 R. A. King,  R. Z. Khaliullin,  P. P. Korambath,  W. Kurlancheek,  
 A. M. Lee,  M. S. Lee,  S. V. Levchenko,  Ching Yeh Lin,  D. Liotard,  
 R. C. Lochan,  I. Lotan,  P. E. Maslen,  N. Nair,  D. P. O'Neill,  
 D. Neuhauser,  E. Neuscamman,  C. M. Oana,  R. Olson,  B. Peters,  
 R. Peverati,  P. A. Pieniazek,  Y. M. Rhee,  J. Ritchie,  M. A. Rohrdanz,  
 E. Rosta,  N. J. Russ,  H. F. Schaefer III,  N. E. Schultz,  N. Shenvi,  
 A. C. Simmonett,  A. Sodt,  D. Stuck,  K. S. Thanthiriwatte,  V. Vanovschi,  
 Tao Wang,  A. Warshel,  C. F. Williams,  Q. Wu,  X. Xu,  W. Zhang

 Please cite Q-Chem as follows:
 Y. Shao et al., Mol. Phys. 113, 184-215 (2015)
 DOI: 10.1080/00268976.2014.952696

 Q-Chem 5.0.1 for Intel X86 EM64T Linux

 Parts of Q-Chem use Armadillo 5.200.1 (Boston Tea Smuggler).
 http://arma.sourceforge.net/

 Q-Chem begins on Tue Apr 17 00:10:52 2018  

Host: vega03.cac.cornell.edu
0

     Scratch files written to /scratch/jj585/vdw/0110_distance_3.700_11.save//
 Parallel job on  1  processors

Checking the input file for inconsistencies... 	...done.

--------------------------------------------------------------
User input:
--------------------------------------------------------------
$molecule
0  1
--
0  1
C        +0.22270000        +1.04488000        +0.58595000
C        +0.62626000        -0.41353000        +0.99871000
C        +1.33008000        +1.39974000        -0.43491000
C        +2.63070000        +1.71700000        +0.32855000
C        +3.04336000        +0.29351000        +0.80300000
C        +1.94423000        -0.59299000        +0.15262000
O        +1.62840000        +0.13663000        -1.04376000
H        +3.37234000        +2.13782000        -0.35195000
H        +2.48236000        +2.42488000        +1.14651000
H        +4.02182000        +0.00994000        +0.41161000
H        +3.07359000        +0.18738000        +1.88928000
C        +0.90028000        +2.39077000        -1.49430000
C        +2.35450000        -2.01267000        -0.16812000
H        +3.26311000        -2.00678000        -0.77366000
H        +2.54990000        -2.57059000        +0.75079000
H        +1.57335000        -2.52896000        -0.72872000
H        +1.71845000        +2.58186000        -2.15686000
H        +0.59919000        +3.30478000        -1.02650000
H        +0.07925000        +1.98653000        -2.04874000
H        +0.81693000        -0.48905000        +2.04887000
H        -0.12524000        -1.15356000        +0.81843000
H        -0.74673000        +1.06811000        +0.13365000
H        +0.15552000        +1.72617000        +1.40828000
--
0  1
C        +2.99982000        +2.52924000        +2.52871000
C        +3.40338000        +1.07083000        +2.94147000
C        +4.10720000        +2.88410000        +1.50785000
C        +5.40782000        +3.20136000        +2.27131000
C        +5.82048000        +1.77787000        +2.74576000
C        +4.72135000        +0.89137000        +2.09538000
O        +4.40552000        +1.62099000        +0.89900000
H        +6.14946000        +3.62218000        +1.59081000
H        +5.25948000        +3.90924000        +3.08927000
H        +6.79894000        +1.49430000        +2.35437000
H        +5.85071000        +1.67174000        +3.83204000
C        +3.67740000        +3.87513000        +0.44846000
C        +5.13162000        -0.52831000        +1.77464000
H        +6.04023000        -0.52242000        +1.16910000
H        +5.32702000        -1.08623000        +2.69355000
H        +4.35047000        -1.04460000        +1.21404000
H        +4.49557000        +4.06622000        -0.21410000
H        +3.37631000        +4.78914000        +0.91626000
H        +2.85637000        +3.47089000        -0.10598000
H        +3.59405000        +0.99531000        +3.99163000
H        +2.65188000        +0.33080000        +2.76119000
H        +2.03039000        +2.55247000        +2.07641000
H        +2.93264000        +3.21053000        +3.35104000
$end

$rem
JOBTYPE                   SP
METHOD                    B3LYP
DFT_D                     d3_op
BASIS                     6-311++G(d,p)
SYMMETRY                  False
THRESH                    12
SCF_CONVERGENCE           8
MAX_SUB_FILE_NUM          128
MEM_STATIC                400
MEM_TOTAL                 4000
$end
--------------------------------------------------------------
 Adding empirical dispersion correction 
 ----------------------------------------------------------------
 Doing -D3(op) with
 s6 =   1.00000
 s8 =   0.78311
 a1 =   0.30000
 a2 =   4.25000
 n  =  10.00000
 -D3 energy without 3body term =     -0.0660858789 hartrees
 ----------------------------------------------------------------
             Standard Nuclear Orientation (Angstroms)
    I     Atom           X                Y                Z
 ----------------------------------------------------------------
    1      C       2.3770888758    -0.8060327930     1.2908842171
    2      C       2.4430156780     0.7609053124     1.3143330961
    3      C       1.8988775319    -1.0782630096    -0.1553439265
    4      C       0.3912562640    -0.7726338673    -0.2491863670
    5      C       0.4052658062     0.7818700537    -0.1782205261
    6      C       1.9290210581     1.0878831248    -0.1396318765
    7      O       2.4806188218     0.0004646826    -0.8990264224
    8      H      -0.0038027038    -1.1216411040    -1.2043418374
    9      H      -0.1886835143    -1.2417560057     0.5481540148
   10      H      -0.0351697121     1.2266086903    -1.0722038302
   11      H      -0.1211392756     1.1837379073     0.6898702447
   12      C       2.3646152968    -2.4015227067    -0.7221311719
   13      C       2.3427577143     2.4216825976    -0.7197076203
   14      H       1.9477956250     2.5224764889    -1.7326888912
   15      H       1.9542777461     3.2405554192    -0.1094764422
   16      H       3.4296539868     2.5083265270    -0.7663162987
   17      H       1.9936491533    -2.5126560659    -1.7195963529
   18      H       1.9953325339    -3.2001201984    -0.1132152536
   19      H       3.4342287162    -2.4276028664    -0.7344157301
   20      H       1.7994897089     1.1727981589     2.0634078287
   21      H       3.4055410925     1.1646234385     1.5498198909
   22      H       3.3383988590    -1.2396271400     1.4719601855
   23      H       1.7433409791    -1.2254290484     2.0441213841
   24      C      -1.3214612133    -0.8065283339     1.3946315747
   25      C      -1.2555344111     0.7604097715     1.4180804537
   26      C      -1.7996725573    -1.0787585506    -0.0515965689
   27      C      -3.3072938251    -0.7731294082    -0.1454390094
   28      C      -3.2932842830     0.7813745128    -0.0744731684
   29      C      -1.7695290310     1.0873875838    -0.0358845188
   30      O      -1.2179312674    -0.0000308584    -0.7952790648
   31      H      -3.7023527930    -1.1221366449    -1.1005944798
   32      H      -3.8872336034    -1.2422515466     0.6519013724
   33      H      -3.7337198013     1.2261131493    -0.9684564725
   34      H      -3.8196893647     1.1832423663     0.7936176024
   35      C      -1.3339347924    -2.4020182476    -0.6183838142
   36      C      -1.3557923748     2.4211870566    -0.6159602627
   37      H      -1.7507544642     2.5219809479    -1.6289415336
   38      H      -1.7442723430     3.2400598783    -0.0057290846
   39      H      -0.2688961023     2.5078309860    -0.6625689411
   40      H      -1.7049009358    -2.5131516069    -1.6158489953
   41      H      -1.7032175552    -3.2006157393    -0.0094678959
   42      H      -0.2643213729    -2.4280984073    -0.6306683725
   43      H      -1.8990603802     1.1723026179     2.1671551864
   44      H      -0.2930089967     1.1641278975     1.6535672485
   45      H      -0.3601512302    -1.2401226810     1.5757075431
   46      H      -1.9552091100    -1.2259245894     2.1478687417
 ----------------------------------------------------------------
 Molecular Point Group                 C1    NOp =  1
 Largest Abelian Subgroup              C1    NOp =  1
 Nuclear Repulsion Energy =  1657.3602206779 hartrees
 There are       70 alpha and       70 beta electrons
 Requested basis set is 6-311++G(d,p)
 There are 248 shells and 592 basis functions

 Total QAlloc Memory Limit   4000 MB
 Mega-Array Size       392 MB
 MEM_STATIC part       400 MB
 A cutoff of  1.0D-12 yielded  26706 shell pairs
 There are    153044 function pairs (    162284 Cartesian)
 
 -------------------------------------------------------
 OpenMP Integral Computing Module                       
 Release: version 1.0, May 2013, Q-Chem Inc. Pittsburgh 
 -------------------------------------------------------
 Integral Job Info:
 Integral job number is                      11
 Integral operator is                         1
 short-range coefficients                     0
 long-range coefficients              100000000
 Omega coefficients                           0
 if combine SR and LR in K                    0
 Integral screening is                        0
 Integral computing path is                   2
 max size of driver memory is            800000
 size of driver memory is                593474
 size of scratch memory is              2361544
 max col of scratch BK array               1296
 max len of scratch array in speh3          155
 max len of scratch index in speh4           18
 max int batch size is                      520
 min int batch size is                       52
 fixed nKL is                                52
 max L of basis functions is                  2
 order of int derivative is                   0
 number of shells is                        248
 number of basis is                         610
 number of cartesian basis is               610
 number of contracted shell pairs         26706
 number of primitive shell pairs          56099
 maxK2 (contraction) of shell pair           36
 max number of K2 of shell pair               1
 max number of CS2 of shell pair           4729
 max number of PS2 of shell pair           8310
 mem total for path MDJ                  208698
 -------------------------------------------------------
 Smallest overlap matrix eigenvalue = 1.22E-07
 Linear dependence detected in AO basis
 Number of orthogonalized atomic orbitals = 588
 Maximum deviation from orthogonality = 1.782E-10

 Scale SEOQF with 1.000000e-01/1.000000e-01/1.000000e-01

 Standard Electronic Orientation quadrupole field applied
 Nucleus-field energy     =     0.0000000313 hartrees
 Guess from superposition of atomic densities
 Warning:  Energy on first SCF cycle will be non-variational
 A restricted hybrid HF-DFT SCF calculation will be
 performed using Pulay DIIS extrapolation
 Exchange:     0.2000 Hartree-Fock + 0.0800 Slater + 0.7200 B88
 Correlation:  0.1900 VWN1RPA + 0.8100 LYP
 Using SG-1 standard quadrature grid
 Dispersion:   Grimme D3
 SCF converges when DIIS error is below 1.0E-08
 using 4 threads for integral computing
 -------------------------------------------------------
 OpenMP Integral computing Module                
 Release: version 1.0, May 2013, Q-Chem Inc. Pittsburgh 
 -------------------------------------------------------
 -------------------------------------------------------
 OpenMP BLAS3 based DFT computing Module                
 Release: version 1.0, May 2013, Q-Chem Inc. Pittsburgh 
 -------------------------------------------------------
 ---------------------------------------
  Cycle       Energy         DIIS Error
 ---------------------------------------
    1    -782.3915114159      2.72E-02
    2    -776.3210959003      3.25E-03
    3    -775.9072313445      4.52E-03
    4    -776.7278040120      1.20E-03
    5    -776.7776241751      2.43E-04
    6    -776.7790381186      1.31E-04
    7    -776.7795663485      3.22E-05
    8    -776.7796021999      6.29E-06
    9    -776.7796033129      2.99E-06
   10    -776.7796035984      7.16E-07
   11    -776.7796036150      2.36E-07
   12    -776.7796036169      5.75E-08
   13    -776.7796036170      1.39E-08
   14    -776.7796036170      5.30E-09 Convergence criterion met
 ---------------------------------------
 SCF time:  CPU 1841.33 s  wall 464.08 s
 SCF   energy in the final basis set = -776.77960362
 Total energy in the final basis set = -776.77960362
 
 --------------------------------------------------------------
 
                    Orbital Energies (a.u.)
 --------------------------------------------------------------
 
 Alpha MOs
 -- Occupied --
-19.128 -19.087 -10.243 -10.240 -10.190 -10.190 -10.187 -10.186
-10.181 -10.181 -10.165 -10.155 -10.149 -10.147 -10.145 -10.136
-10.104 -10.096  -1.103  -1.020  -0.848  -0.846  -0.814  -0.769
 -0.765  -0.750  -0.713  -0.702  -0.700  -0.670  -0.630  -0.614
 -0.589  -0.578  -0.569  -0.550  -0.546  -0.497  -0.493  -0.476
 -0.467  -0.463  -0.458  -0.443  -0.441  -0.434  -0.423  -0.411
 -0.410  -0.395  -0.387  -0.386  -0.379  -0.377  -0.373  -0.362
 -0.355  -0.350  -0.345  -0.341  -0.332  -0.328  -0.327  -0.320
 -0.284  -0.277  -0.255  -0.246  -0.231  -0.197
 -- Virtual --
 -0.015  -0.006   0.001   0.004   0.013   0.016   0.020   0.023
  0.026   0.033   0.040   0.042   0.044   0.050   0.050   0.051
  0.063   0.064   0.066   0.068   0.071   0.078   0.081   0.084
  0.087   0.090   0.094   0.100   0.101   0.103   0.103   0.110
  0.112   0.115   0.116   0.121   0.122   0.124   0.124   0.128
  0.128   0.134   0.136   0.138   0.142   0.144   0.145   0.149
  0.150   0.153   0.155   0.157   0.158   0.159   0.161   0.164
  0.167   0.169   0.171   0.172   0.174   0.175   0.180   0.181
  0.183   0.185   0.187   0.188   0.192   0.193   0.197   0.198
  0.200   0.207   0.211   0.214   0.216   0.220   0.223   0.224
  0.227   0.231   0.233   0.236   0.240   0.242   0.246   0.248
  0.254   0.256   0.259   0.263   0.266   0.269   0.273   0.277
  0.280   0.283   0.286   0.292   0.302   0.303   0.308   0.310
  0.317   0.317   0.320   0.321   0.331   0.334   0.335   0.342
  0.344   0.346   0.349   0.352   0.354   0.356   0.363   0.365
  0.367   0.373   0.377   0.379   0.380   0.386   0.387   0.394
  0.396   0.401   0.410   0.411   0.416   0.420   0.435   0.440
  0.445   0.448   0.459   0.462   0.478   0.489   0.492   0.495
  0.504   0.516   0.527   0.529   0.542   0.549   0.558   0.565
  0.571   0.576   0.581   0.584   0.590   0.591   0.601   0.603
  0.608   0.613   0.616   0.620   0.627   0.632   0.641   0.648
  0.655   0.663   0.666   0.676   0.678   0.687   0.692   0.694
  0.696   0.705   0.710   0.715   0.718   0.726   0.730   0.735
  0.737   0.741   0.744   0.754   0.755   0.758   0.761   0.766
  0.773   0.778   0.782   0.790   0.792   0.793   0.803   0.810
  0.816   0.820   0.826   0.832   0.840   0.845   0.855   0.867
  0.872   0.878   0.886   0.894   0.896   0.910   0.926   0.931
  0.954   0.965   0.976   0.992   1.005   1.031   1.037   1.057
  1.061   1.077   1.087   1.111   1.128   1.141   1.157   1.173
  1.185   1.190   1.204   1.228   1.235   1.240   1.261   1.265
  1.285   1.289   1.304   1.318   1.322   1.330   1.344   1.356
  1.368   1.372   1.377   1.410   1.430   1.439   1.450   1.459
  1.465   1.474   1.481   1.493   1.497   1.503   1.512   1.516
  1.525   1.537   1.548   1.553   1.557   1.561   1.565   1.579
  1.583   1.597   1.601   1.608   1.615   1.625   1.631   1.633
  1.645   1.645   1.663   1.669   1.672   1.680   1.683   1.687
  1.696   1.707   1.718   1.725   1.731   1.736   1.740   1.743
  1.758   1.762   1.763   1.769   1.779   1.787   1.794   1.798
  1.808   1.822   1.827   1.830   1.833   1.842   1.847   1.849
  1.863   1.871   1.894   1.901   1.910   1.920   1.921   1.926
  1.933   1.950   1.959   1.973   1.988   1.989   1.993   2.013
  2.021   2.027   2.039   2.048   2.054   2.061   2.073   2.086
  2.101   2.111   2.121   2.130   2.137   2.158   2.172   2.177
  2.190   2.200   2.208   2.220   2.231   2.235   2.252   2.258
  2.272   2.279   2.291   2.291   2.298   2.312   2.320   2.331
  2.357   2.364   2.387   2.406   2.418   2.424   2.433   2.461
  2.473   2.480   2.490   2.498   2.502   2.519   2.525   2.533
  2.537   2.546   2.549   2.561   2.569   2.574   2.582   2.591
  2.602   2.610   2.615   2.623   2.628   2.641   2.647   2.651
  2.663   2.670   2.686   2.692   2.694   2.706   2.720   2.736
  2.747   2.757   2.774   2.784   2.797   2.804   2.812   2.821
  2.834   2.842   2.859   2.862   2.876   2.896   2.911   2.916
  2.930   2.941   2.955   2.968   2.976   2.991   3.002   3.019
  3.020   3.033   3.037   3.057   3.061   3.079   3.091   3.108
  3.129   3.132   3.168   3.170   3.173   3.211   3.219   3.238
  3.247   3.265   3.276   3.298   3.303   3.309   3.324   3.353
  3.371   3.383   3.408   3.418   3.477   3.482   3.503   3.578
  3.591   3.621   3.661   3.674   3.686   3.723   3.774   3.779
  3.802   3.847   3.852   3.860   3.891   3.901   3.903   3.920
  3.944   3.967   3.975   4.004   4.079   4.141   4.145   4.181
  4.198   4.210   4.235   4.270   4.274   4.304   4.322   4.386
  4.396   4.461   4.478   4.526   4.545   4.704   5.274   5.425
  5.562   5.644   5.728   5.734  23.832  23.865  23.876  23.932
 23.968  24.000  24.009  24.046  24.057  24.060  24.099  24.109
 24.140  24.185  24.207  24.225  50.036  50.168
 --------------------------------------------------------------
 
          Ground-State Mulliken Net Atomic Charges

     Atom                 Charge (a.u.)
  ----------------------------------------
      1 C                    -0.246746
      2 C                    -0.300027
      3 C                    -0.208207
      4 C                    -0.467546
      5 C                    -0.510245
      6 C                    -0.183250
      7 O                     0.118131
      8 H                     0.152080
      9 H                     0.125874
     10 H                     0.162236
     11 H                     0.200526
     12 C                    -0.320125
     13 C                    -0.421451
     14 H                     0.154572
     15 H                     0.150834
     16 H                     0.164329
     17 H                     0.147332
     18 H                     0.145880
     19 H                     0.161702
     20 H                     0.107156
     21 H                     0.174097
     22 H                     0.162580
     23 H                     0.120425
     24 C                    -0.352506
     25 C                    -0.323772
     26 C                    -0.023189
     27 C                    -0.392718
     28 C                    -0.438855
     29 C                     0.056868
     30 O                     0.349423
     31 H                     0.158686
     32 H                     0.140409
     33 H                     0.168202
     34 H                     0.134603
     35 C                    -0.393838
     36 C                    -0.407738
     37 H                     0.171102
     38 H                     0.155962
     39 H                     0.192907
     40 H                     0.172446
     41 H                     0.152277
     42 H                     0.188777
     43 H                     0.204528
     44 H                     0.136475
     45 H                     0.147140
     46 H                     0.212651
  ----------------------------------------
  Sum of atomic charges =     0.000000

 -----------------------------------------------------------------
                    Cartesian Multipole Moments
 -----------------------------------------------------------------
    Charge (ESU x 10^10)
                 0.0000
    Dipole Moment (Debye)
         X      -3.9972      Y       0.0690      Z       2.4222
       Tot       4.6743
    Quadrupole Moments (Debye-Ang)
        XX    -119.1131     XY       0.1640     YY    -111.4701
        XZ       3.3968     YZ      -0.2681     ZZ    -116.4680
    Octopole Moments (Debye-Ang^2)
       XXX     -24.9676    XXY      -0.1568    XYY      -2.6675
       YYY       0.7335    XXZ       7.4506    XYZ       0.4287
       YYZ      -0.9106    XZZ     -10.2865    YZZ      -0.2099
       ZZZ      -7.0221
    Hexadecapole Moments (Debye-Ang^3)
      XXXX   -3119.0032   XXXY       3.2277   XXYY    -794.7503
      XYYY       0.4668   YYYY   -1720.8232   XXXZ      33.0873
      XXYZ      -1.5865   XYYZ      -1.2940   YYYZ      -1.8165
      XXZZ    -640.3420   XYZZ       0.8049   YYZZ    -387.1654
      XZZZ       0.9457   YZZZ      -0.0996   ZZZZ    -695.4689
 -----------------------------------------------------------------
Archival summary:
1\1\vega03.cac.cornell.edu\SP\ProcedureUnspecified\BasisUnspecified\21628\jj585\TueApr1700:18:382018TueApr1700:18:382018\0\\#,ProcedureUnspecified,BasisUnspecified,\\0,1\O\C,1,1.43358\C,1,1.43646,2,98.0224\C,3,1.51218,1,111.091,2,-178.393,0\H,4,1.09134,3,111.033,1,-57.0184,0\H,4,1.09192,3,109.775,1,62.6469,0\H,4,1.09264,3,110.458,1,-177.522,0\H,5,1.36527,4,96.2465,3,40.5643,0\C,8,1.09132,5,101.873,4,-108.72,0\H,9,1.09187,8,107.862,5,38.4373,0\H,10,0.979099,9,149.294,8,170.889,0\C,11,1.07,10,87.0677,9,-108.739,0\H,12,1.07,11,103.987,10,-145.567,0\C,2,1.513,1,109.807,3,-177.944,0\H,14,1.07,2,109.471,1,-64.7983,0\H,14,1.07,2,109.471,1,55.2018,0\H,14,1.07,2,109.471,1,175.202,0\H,16,1.45045,14,99.3308,2,-46.6731,0\C,18,1.09096,16,90.396,14,110.342,0\H,19,1.09186,18,108.033,16,-35.5764,0\H,20,1.04176,19,143.809,18,-171.048,0\C,21,1.07,20,88.945,19,109.221,0\H,22,1.07,21,104.724,20,145.394,0\C,2,1.54115,1,102.483,3,57.1986,0\H,24,1.09096,2,110.128,1,81.1589,0\H,24,1.09186,2,112.95,1,-157.962,0\C,19,1.54115,18,110.128,16,88.2067,0\O,27,1.43358,19,102.483,18,81.1589,0\C,28,1.43646,27,98.0224,19,57.1986,0\C,29,1.51218,28,111.091,27,-178.393,0\H,30,1.09134,29,111.033,28,-57.0184,0\H,30,1.09192,29,109.775,28,62.6469,0\H,30,1.09264,29,110.458,28,-177.522,0\C,27,1.513,19,116.857,18,-38.916,0\H,34,1.07,27,109.471,19,51.2997,0\H,34,1.07,27,109.471,19,171.3,0\H,34,1.07,27,109.471,19,-68.6999,0\C,27,1.54738,19,108.926,18,-170.072,0\H,38,1.07,27,113.95,19,46.9191,0\H,38,1.07,27,111.379,19,165.118,0\C,3,1.55466,1,102.371,2,-54.4128,0\H,41,1.09132,3,109.614,1,-87.4148,0\H,41,1.09187,3,112.355,1,152.676,0\C,38,1.5685,27,101.696,19,-76.1436,0\H,44,1.07,38,111.7,27,120.458,0\H,44,1.07,38,114.71,27,-121.541,0\\\@

 Total job time:  465.34s(wall), 1844.24s(cpu) 
 Tue Apr 17 00:18:38 2018

        *************************************************************
        *                                                           *
        *  Thank you very much for using Q-Chem.  Have a nice day.  *
        *                                                           *
        *************************************************************


0 sent ACK to 0 
now end server 0 ... 
