mFile = /opt/software/qchem/qchem-5.0.1//bin/mpi/machines
Process 0 of 1 is on vega03.cac.cornell.edu - thread support 0
initial socket setup ...start
initial socket setup ...done 
now start server 0 ... 
vega03 10.84.3
Q-Chem Developer Version! Running on 10.84.3.*
                  Welcome to Q-Chem
     A Quantum Leap Into The Future Of Chemistry


 Q-Chem 5.0, Q-Chem, Inc., Pleasanton, CA (2017)

 Yihan Shao,  Zhengting Gan,  E. Epifanovsky,  A. T. B. Gilbert,  M. Wormit,  
 J. Kussmann,  A. W. Lange,  A. Behn,  Jia Deng,  Xintian Feng,  D. Ghosh,  
 M. Goldey,  P. R. Horn,  L. D. Jacobson,  I. Kaliman,  T. Kus,  A. Landau,  
 Jie Liu,  E. I. Proynov,  R. M. Richard,  R. P. Steele,  E. J. Sundstrom,  
 H. L. Woodcock III,  P. M. Zimmerman,  D. Zuev,  B. Albrecht,  E. Alguire,  
 S. A. Baeppler,  Z. Benda,  Y. A. Bernard,  E. J. Berquist,  K. B. Bravaya,  
 D. Casanova,  Chun-Min Chang,  Yunqing Chen,  A. Chien,  K. D. Closser,  
 M. P. Coons,  S. Dasgupta,  M. Diedenhofen,  Hainam Do,  R. G. Edgar,  
 Po-Tung Fang,  S. Fatehi,  Qingguo Feng,  Qinghui Ge,  A. Ghysels,  
 J. Gomes,  J. Gonthier,  A. Gunina,  M. W. D. Hanson-Heine,  
 P. H. P. Harbach,  A. W. Hauser,  J. E. Herr,  E. G. Hohenstein,  
 Z. C. Holden,  Kerwin Hui,  T.-C. Jagau,  Hyunjun Ji,  B. Kaduk,  
 K. Khistyaev,  Jaehoon Kim,  P. Klunzinger,  K. Koh,  D. Kosenkov,  
 T. Kowalczyk,  C. M. Krauter,  A. Kunitsa,  Ka Un Lao,  A. Laurent,  
 K. V. Lawler,  Joonho Lee,  D. Lefrancois,  S. Lehtola,  D. S. Levine,  
 Yi-Pei Li,  You-Sheng Lin,  Fenglai Liu,  E. Livshits,  A. Luenser,  
 P. Manohar,  E. Mansoor,  S. F. Manzer,  Shan-Ping Mao,  Yuezhi Mao,  
 N. Mardirossian,  A. V. Marenich,  L. A. Martinez-Martinez,  S. A. Maurer,  
 N. J. Mayhall,  S. C. McKenzie,  J.-M. Mewes,  A. F. Morrison,  K. Nanda,  
 T. S. Nguyen-Beck,  R. Olivares-Amaya,  J. A. Parkhill,  T. M. Perrine,  
 F. Plasser,  S. Prager,  A. Prociuk,  D. R. Rehn,  F. Rob,  M. Schneider,  
 N. Sergueev,  S. M. Sharada,  S. Sharma,  D. W. Small,  T. Stauch,  
 T. Stein,  Yu-Chuan Su,  A. J. W. Thom,  T. Tsuchimochi,  L. Vogt,  
 O. Vydrov,  M. A. Watson,  J. Wenzel,  M. de Wergifosse,  T. A. Wesolowski,  
 A. White,  J. Witte,  A. Yamada,  Jun Yang,  K. Yao,  S. Yeganeh,  
 S. R. Yost,  Zhi-Qiang You,  A. Zech,  Igor Ying Zhang,  Xing Zhang,  
 Yan Zhao,  Ying Zhu,  B. R. Brooks,  G. K. L. Chan,  C. J. Cramer,  
 M. S. Gordon,  W. J. Hehre,  A. Klamt,  M. W. Schmidt,  C. D. Sherrill,  
 D. G. Truhlar,  A. Aspuru-Guzik,  R. Baer,  A. T. Bell,  N. A. Besley,  
 Jeng-Da Chai,  A. Dreuw,  B. D. Dunietz,  T. R. Furlani,  Chao-Ping Hsu,  
 Yousung Jung,  Jing Kong,  D. S. Lambrecht,  WanZhen Liang,  C. Ochsenfeld,  
 V. A. Rassolov,  L. V. Slipchenko,  J. E. Subotnik,  T. Van Voorhis,  
 J. M. Herbert,  A. I. Krylov,  P. M. W. Gill,  M. Head-Gordon

 Contributors to earlier versions of Q-Chem not listed above: 
 R. D. Adamson,  B. Austin,  J. Baker,  G. J. O. Beran,  K. Brandhorst,  
 S. T. Brown,  E. F. C. Byrd,  A. K. Chakraborty,  C.-L. Cheng,  
 Siu Hung Chien,  D. M. Chipman,  D. L. Crittenden,  H. Dachsel,  
 R. A. DiStasio Jr.,  R. J. Doerksen,  A. D. Dutoi,  L. Fusti-Molnar,  
 W. A. Goddard III,  A. Golubeva-Zadorozhnaya,  S. R. Gwaltney,  G. Hawkins,  
 A. Heyden,  S. Hirata,  G. Kedziora,  F. J. Keil,  C. Kelley,  Jihan Kim,  
 R. A. King,  R. Z. Khaliullin,  P. P. Korambath,  W. Kurlancheek,  
 A. M. Lee,  M. S. Lee,  S. V. Levchenko,  Ching Yeh Lin,  D. Liotard,  
 R. C. Lochan,  I. Lotan,  P. E. Maslen,  N. Nair,  D. P. O'Neill,  
 D. Neuhauser,  E. Neuscamman,  C. M. Oana,  R. Olson,  B. Peters,  
 R. Peverati,  P. A. Pieniazek,  Y. M. Rhee,  J. Ritchie,  M. A. Rohrdanz,  
 E. Rosta,  N. J. Russ,  H. F. Schaefer III,  N. E. Schultz,  N. Shenvi,  
 A. C. Simmonett,  A. Sodt,  D. Stuck,  K. S. Thanthiriwatte,  V. Vanovschi,  
 Tao Wang,  A. Warshel,  C. F. Williams,  Q. Wu,  X. Xu,  W. Zhang

 Please cite Q-Chem as follows:
 Y. Shao et al., Mol. Phys. 113, 184-215 (2015)
 DOI: 10.1080/00268976.2014.952696

 Q-Chem 5.0.1 for Intel X86 EM64T Linux

 Parts of Q-Chem use Armadillo 5.200.1 (Boston Tea Smuggler).
 http://arma.sourceforge.net/

 Q-Chem begins on Tue Apr 17 00:33:53 2018  

Host: vega03.cac.cornell.edu
0

     Scratch files written to /scratch/jj585/vdw/0110_distance_8.000_10.save//
 Parallel job on  1  processors

Checking the input file for inconsistencies... 	...done.

--------------------------------------------------------------
User input:
--------------------------------------------------------------
$molecule
0  1
C        +0.22270000        +1.04488000        +0.58595000
C        +0.62626000        -0.41353000        +0.99871000
C        +1.33008000        +1.39974000        -0.43491000
C        +2.63070000        +1.71700000        +0.32855000
C        +3.04336000        +0.29351000        +0.80300000
C        +1.94423000        -0.59299000        +0.15262000
O        +1.62840000        +0.13663000        -1.04376000
H        +3.37234000        +2.13782000        -0.35195000
H        +2.48236000        +2.42488000        +1.14651000
H        +4.02182000        +0.00994000        +0.41161000
H        +3.07359000        +0.18738000        +1.88928000
C        +0.90028000        +2.39077000        -1.49430000
C        +2.35450000        -2.01267000        -0.16812000
H        +3.26311000        -2.00678000        -0.77366000
H        +2.54990000        -2.57059000        +0.75079000
H        +1.57335000        -2.52896000        -0.72872000
H        +1.71845000        +2.58186000        -2.15686000
H        +0.59919000        +3.30478000        -1.02650000
H        +0.07925000        +1.98653000        -2.04874000
H        +0.81693000        -0.48905000        +2.04887000
H        -0.12524000        -1.15356000        +0.81843000
H        -0.74673000        +1.06811000        +0.13365000
H        +0.15552000        +1.72617000        +1.40828000
@C        +6.22728000        +4.25430000        +4.78650000
@C        +6.63084000        +2.79589000        +5.19926000
@C        +7.33466000        +4.60916000        +3.76564000
@C        +8.63528000        +4.92642000        +4.52910000
@C        +9.04794000        +3.50293000        +5.00355000
@C        +7.94881000        +2.61643000        +4.35317000
@O        +7.63298000        +3.34605000        +3.15679000
@H        +9.37692000        +5.34724000        +3.84860000
@H        +8.48694000        +5.63430000        +5.34706000
@H       +10.02640000        +3.21936000        +4.61216000
@H        +9.07817000        +3.39680000        +6.08983000
@C        +6.90486000        +5.60019000        +2.70625000
@C        +8.35908000        +1.19675000        +4.03243000
@H        +9.26769000        +1.20264000        +3.42689000
@H        +8.55448000        +0.63883000        +4.95134000
@H        +7.57793000        +0.68046000        +3.47183000
@H        +7.72303000        +5.79128000        +2.04369000
@H        +6.60377000        +6.51420000        +3.17405000
@H        +6.08383000        +5.19595000        +2.15181000
@H        +6.82151000        +2.72037000        +6.24942000
@H        +5.87934000        +2.05586000        +5.01898000
@H        +5.25785000        +4.27753000        +4.33420000
@H        +6.16010000        +4.93559000        +5.60883000
$end

$rem
JOBTYPE                   SP
METHOD                    B3LYP
DFT_D                     d3_op
BASIS                     6-311++G(d,p)
SYMMETRY                  False
THRESH                    12
SCF_CONVERGENCE           8
MAX_SUB_FILE_NUM          128
MEM_STATIC                400
MEM_TOTAL                 4000
$end
--------------------------------------------------------------
 Adding empirical dispersion correction 
 ----------------------------------------------------------------
 Doing -D3(op) with
 s6 =   1.00000
 s8 =   0.78311
 a1 =   0.30000
 a2 =   4.25000
 n  =  10.00000
 -D3 energy without 3body term =     -0.0216033054 hartrees
 ----------------------------------------------------------------
             Standard Nuclear Orientation (Angstroms)
    I     Atom           X                Y                Z
 ----------------------------------------------------------------
    1      C       0.2227000000     1.0448800000     0.5859500000
    2      C       0.6262600000    -0.4135300000     0.9987100000
    3      C       1.3300800000     1.3997400000    -0.4349100000
    4      C       2.6307000000     1.7170000000     0.3285500000
    5      C       3.0433600000     0.2935100000     0.8030000000
    6      C       1.9442300000    -0.5929900000     0.1526200000
    7      O       1.6284000000     0.1366300000    -1.0437600000
    8      H       3.3723400000     2.1378200000    -0.3519500000
    9      H       2.4823600000     2.4248800000     1.1465100000
   10      H       4.0218200000     0.0099400000     0.4116100000
   11      H       3.0735900000     0.1873800000     1.8892800000
   12      C       0.9002800000     2.3907700000    -1.4943000000
   13      C       2.3545000000    -2.0126700000    -0.1681200000
   14      H       3.2631100000    -2.0067800000    -0.7736600000
   15      H       2.5499000000    -2.5705900000     0.7507900000
   16      H       1.5733500000    -2.5289600000    -0.7287200000
   17      H       1.7184500000     2.5818600000    -2.1568600000
   18      H       0.5991900000     3.3047800000    -1.0265000000
   19      H       0.0792500000     1.9865300000    -2.0487400000
   20      H       0.8169300000    -0.4890500000     2.0488700000
   21      H      -0.1252400000    -1.1535600000     0.8184300000
   22      H      -0.7467300000     1.0681100000     0.1336500000
   23      H       0.1555200000     1.7261700000     1.4082800000
   24      GH      6.2272800000     4.2543000000     4.7865000000
   25      GH      6.6308400000     2.7958900000     5.1992600000
   26      GH      7.3346600000     4.6091600000     3.7656400000
   27      GH      8.6352800000     4.9264200000     4.5291000000
   28      GH      9.0479400000     3.5029300000     5.0035500000
   29      GH      7.9488100000     2.6164300000     4.3531700000
   30      GH      7.6329800000     3.3460500000     3.1567900000
   31      GH      9.3769200000     5.3472400000     3.8486000000
   32      GH      8.4869400000     5.6343000000     5.3470600000
   33      GH     10.0264000000     3.2193600000     4.6121600000
   34      GH      9.0781700000     3.3968000000     6.0898300000
   35      GH      6.9048600000     5.6001900000     2.7062500000
   36      GH      8.3590800000     1.1967500000     4.0324300000
   37      GH      9.2676900000     1.2026400000     3.4268900000
   38      GH      8.5544800000     0.6388300000     4.9513400000
   39      GH      7.5779300000     0.6804600000     3.4718300000
   40      GH      7.7230300000     5.7912800000     2.0436900000
   41      GH      6.6037700000     6.5142000000     3.1740500000
   42      GH      6.0838300000     5.1959500000     2.1518100000
   43      GH      6.8215100000     2.7203700000     6.2494200000
   44      GH      5.8793400000     2.0558600000     5.0189800000
   45      GH      5.2578500000     4.2775300000     4.3342000000
   46      GH      6.1601000000     4.9355900000     5.6088300000
 ----------------------------------------------------------------
 Nuclear Repulsion Energy =   506.2703564319 hartrees
 There are       35 alpha and       35 beta electrons
 Requested basis set is 6-311++G(d,p)
 There are 248 shells and 592 basis functions

 Total QAlloc Memory Limit   4000 MB
 Mega-Array Size       392 MB
 MEM_STATIC part       400 MB
 A cutoff of  1.0D-12 yielded  21928 shell pairs
 There are    120771 function pairs (    127383 Cartesian)
 
 -------------------------------------------------------
 OpenMP Integral Computing Module                       
 Release: version 1.0, May 2013, Q-Chem Inc. Pittsburgh 
 -------------------------------------------------------
 Integral Job Info:
 Integral job number is                      11
 Integral operator is                         1
 short-range coefficients                     0
 long-range coefficients              100000000
 Omega coefficients                           0
 if combine SR and LR in K                    0
 Integral screening is                        0
 Integral computing path is                   2
 max size of driver memory is            800000
 size of driver memory is                593474
 size of scratch memory is              2361544
 max col of scratch BK array               1296
 max len of scratch array in speh3          155
 max len of scratch index in speh4           18
 max int batch size is                      520
 min int batch size is                       52
 fixed nKL is                                52
 max L of basis functions is                  2
 order of int derivative is                   0
 number of shells is                        248
 number of basis is                         610
 number of cartesian basis is               610
 number of contracted shell pairs         21928
 number of primitive shell pairs          45510
 maxK2 (contraction) of shell pair           36
 max number of K2 of shell pair               1
 max number of CS2 of shell pair           4199
 max number of PS2 of shell pair           6630
 mem total for path MDJ                  163098
 -------------------------------------------------------
 Smallest overlap matrix eigenvalue = 1.17E-06

 Scale SEOQF with 1.000000e-02/1.000000e-02/1.000000e-02

 Standard Electronic Orientation quadrupole field applied
 Nucleus-field energy     =     0.0000000014 hartrees
 Guess from superposition of atomic densities
 Warning:  Energy on first SCF cycle will be non-variational

 Q-Chem warning in module /opt/software/qchem/qchem-5.0.1/libgen/Atomic_PolEc.C, line 58:

 No atomic polarizability available.


 Q-Chem warning in module /opt/software/qchem/qchem-5.0.1/libgen/Atomic_PolEc.C, line 73:

 No atomic polarizability available.


 Q-Chem warning in module /opt/software/qchem/qchem-5.0.1/libgen/Atomic_PolEc.C, line 58:

 No atomic polarizability available.


 Q-Chem warning in module /opt/software/qchem/qchem-5.0.1/libgen/Atomic_PolEc.C, line 73:

 No atomic polarizability available.


 Q-Chem warning in module /opt/software/qchem/qchem-5.0.1/libgen/Atomic_PolEc.C, line 58:

 No atomic polarizability available.


 Q-Chem warning in module /opt/software/qchem/qchem-5.0.1/libgen/Atomic_PolEc.C, line 73:

 No atomic polarizability available.


 Q-Chem warning in module /opt/software/qchem/qchem-5.0.1/libgen/Atomic_PolEc.C, line 58:

 No atomic polarizability available.


 Q-Chem warning in module /opt/software/qchem/qchem-5.0.1/libgen/Atomic_PolEc.C, line 73:

 No atomic polarizability available.


 Q-Chem warning in module /opt/software/qchem/qchem-5.0.1/libgen/Atomic_PolEc.C, line 58:

 No atomic polarizability available.


 Q-Chem warning in module /opt/software/qchem/qchem-5.0.1/libgen/Atomic_PolEc.C, line 73:

 No atomic polarizability available.


 Q-Chem warning in module /opt/software/qchem/qchem-5.0.1/libgen/Atomic_PolEc.C, line 58:

 No atomic polarizability available.


 Q-Chem warning in module /opt/software/qchem/qchem-5.0.1/libgen/Atomic_PolEc.C, line 73:

 No atomic polarizability available.


 Q-Chem warning in module /opt/software/qchem/qchem-5.0.1/libgen/Atomic_PolEc.C, line 58:

 No atomic polarizability available.


 Q-Chem warning in module /opt/software/qchem/qchem-5.0.1/libgen/Atomic_PolEc.C, line 73:

 No atomic polarizability available.


 Q-Chem warning in module /opt/software/qchem/qchem-5.0.1/libgen/Atomic_PolEc.C, line 58:

 No atomic polarizability available.


 Q-Chem warning in module /opt/software/qchem/qchem-5.0.1/libgen/Atomic_PolEc.C, line 73:

 No atomic polarizability available.


 Q-Chem warning in module /opt/software/qchem/qchem-5.0.1/libgen/Atomic_PolEc.C, line 58:

 No atomic polarizability available.


 Q-Chem warning in module /opt/software/qchem/qchem-5.0.1/libgen/Atomic_PolEc.C, line 73:

 No atomic polarizability available.


 Q-Chem warning in module /opt/software/qchem/qchem-5.0.1/libgen/Atomic_PolEc.C, line 58:

 No atomic polarizability available.


 Q-Chem warning in module /opt/software/qchem/qchem-5.0.1/libgen/Atomic_PolEc.C, line 73:

 No atomic polarizability available.


 Q-Chem warning in module /opt/software/qchem/qchem-5.0.1/libgen/Atomic_PolEc.C, line 58:

 No atomic polarizability available.


 Q-Chem warning in module /opt/software/qchem/qchem-5.0.1/libgen/Atomic_PolEc.C, line 73:

 No atomic polarizability available.


 Q-Chem warning in module /opt/software/qchem/qchem-5.0.1/libgen/Atomic_PolEc.C, line 58:

 No atomic polarizability available.


 Q-Chem warning in module /opt/software/qchem/qchem-5.0.1/libgen/Atomic_PolEc.C, line 73:

 No atomic polarizability available.


 Q-Chem warning in module /opt/software/qchem/qchem-5.0.1/libgen/Atomic_PolEc.C, line 58:

 No atomic polarizability available.


 Q-Chem warning in module /opt/software/qchem/qchem-5.0.1/libgen/Atomic_PolEc.C, line 73:

 No atomic polarizability available.


 Q-Chem warning in module /opt/software/qchem/qchem-5.0.1/libgen/Atomic_PolEc.C, line 58:

 No atomic polarizability available.


 Q-Chem warning in module /opt/software/qchem/qchem-5.0.1/libgen/Atomic_PolEc.C, line 73:

 No atomic polarizability available.


 Q-Chem warning in module /opt/software/qchem/qchem-5.0.1/libgen/Atomic_PolEc.C, line 58:

 No atomic polarizability available.


 Q-Chem warning in module /opt/software/qchem/qchem-5.0.1/libgen/Atomic_PolEc.C, line 73:

 No atomic polarizability available.


 Q-Chem warning in module /opt/software/qchem/qchem-5.0.1/libgen/Atomic_PolEc.C, line 58:

 No atomic polarizability available.


 Q-Chem warning in module /opt/software/qchem/qchem-5.0.1/libgen/Atomic_PolEc.C, line 73:

 No atomic polarizability available.


 Q-Chem warning in module /opt/software/qchem/qchem-5.0.1/libgen/Atomic_PolEc.C, line 58:

 No atomic polarizability available.


 Q-Chem warning in module /opt/software/qchem/qchem-5.0.1/libgen/Atomic_PolEc.C, line 73:

 No atomic polarizability available.


 Q-Chem warning in module /opt/software/qchem/qchem-5.0.1/libgen/Atomic_PolEc.C, line 58:

 No atomic polarizability available.


 Q-Chem warning in module /opt/software/qchem/qchem-5.0.1/libgen/Atomic_PolEc.C, line 73:

 No atomic polarizability available.


 Q-Chem warning in module /opt/software/qchem/qchem-5.0.1/libgen/Atomic_PolEc.C, line 58:

 No atomic polarizability available.


 Q-Chem warning in module /opt/software/qchem/qchem-5.0.1/libgen/Atomic_PolEc.C, line 73:

 No atomic polarizability available.


 Q-Chem warning in module /opt/software/qchem/qchem-5.0.1/libgen/Atomic_PolEc.C, line 58:

 No atomic polarizability available.


 Q-Chem warning in module /opt/software/qchem/qchem-5.0.1/libgen/Atomic_PolEc.C, line 73:

 No atomic polarizability available.


 Q-Chem warning in module /opt/software/qchem/qchem-5.0.1/libgen/Atomic_PolEc.C, line 58:

 No atomic polarizability available.


 Q-Chem warning in module /opt/software/qchem/qchem-5.0.1/libgen/Atomic_PolEc.C, line 73:

 No atomic polarizability available.


 Q-Chem warning in module /opt/software/qchem/qchem-5.0.1/libgen/Atomic_PolEc.C, line 58:

 No atomic polarizability available.


 Q-Chem warning in module /opt/software/qchem/qchem-5.0.1/libgen/Atomic_PolEc.C, line 73:

 No atomic polarizability available.


 Q-Chem warning in module /opt/software/qchem/qchem-5.0.1/libgen/Atomic_PolEc.C, line 58:

 No atomic polarizability available.


 Q-Chem warning in module /opt/software/qchem/qchem-5.0.1/libgen/Atomic_PolEc.C, line 73:

 No atomic polarizability available.

 A restricted hybrid HF-DFT SCF calculation will be
 performed using Pulay DIIS extrapolation
 Exchange:     0.2000 Hartree-Fock + 0.0800 Slater + 0.7200 B88
 Correlation:  0.1900 VWN1RPA + 0.8100 LYP
 Using SG-1 standard quadrature grid
 Dispersion:   Grimme D3
 SCF converges when DIIS error is below 1.0E-08
 using 4 threads for integral computing
 -------------------------------------------------------
 OpenMP Integral computing Module                
 Release: version 1.0, May 2013, Q-Chem Inc. Pittsburgh 
 -------------------------------------------------------
 -------------------------------------------------------
 OpenMP BLAS3 based DFT computing Module                
 Release: version 1.0, May 2013, Q-Chem Inc. Pittsburgh 
 -------------------------------------------------------
 ---------------------------------------
  Cycle       Energy         DIIS Error
 ---------------------------------------
    1    -390.4760989538      1.78E-02
    2    -388.4104268555      2.24E-03
    3    -388.3324287970      2.62E-03
    4    -388.6272535517      4.05E-04
    5    -388.6321890770      1.46E-04
    6    -388.6328366544      3.92E-05
    7    -388.6328810401      1.43E-05
    8    -388.6328886836      1.33E-06
    9    -388.6328887518      5.51E-07
   10    -388.6328887636      1.46E-07
   11    -388.6328887644      1.58E-08
   12    -388.6328887645      6.90E-09 Convergence criterion met
 ---------------------------------------
 SCF time:  CPU 634.15 s  wall 159.65 s
 SCF   energy in the final basis set = -388.63288876
 Total energy in the final basis set = -388.63288876
 
 --------------------------------------------------------------
 
                    Orbital Energies (a.u.)
 --------------------------------------------------------------
 
 Alpha MOs
 -- Occupied --
-19.115 -10.224 -10.221 -10.166 -10.166 -10.162 -10.161 -10.160
-10.151  -1.049  -0.799  -0.789  -0.749  -0.718  -0.652  -0.616
 -0.562  -0.556  -0.486  -0.474  -0.464  -0.444  -0.420  -0.410
 -0.407  -0.402  -0.384  -0.360  -0.346  -0.343  -0.340  -0.333
 -0.316  -0.299  -0.261
 -- Virtual --
 -0.011   0.001   0.008   0.011   0.020   0.025   0.027   0.032
  0.035   0.038   0.041   0.044   0.052   0.055   0.059   0.060
  0.061   0.066   0.069   0.071   0.074   0.078   0.080   0.084
  0.088   0.092   0.094   0.096   0.098   0.107   0.109   0.113
  0.114   0.116   0.118   0.118   0.119   0.125   0.127   0.128
  0.133   0.136   0.138   0.140   0.142   0.145   0.150   0.152
  0.155   0.158   0.162   0.163   0.164   0.166   0.168   0.169
  0.172   0.173   0.176   0.178   0.179   0.180   0.188   0.190
  0.194   0.196   0.198   0.201   0.203   0.206   0.208   0.209
  0.210   0.213   0.215   0.216   0.217   0.223   0.228   0.230
  0.234   0.237   0.239   0.240   0.242   0.245   0.248   0.251
  0.255   0.260   0.263   0.268   0.272   0.275   0.277   0.280
  0.282   0.286   0.290   0.296   0.297   0.301   0.312   0.318
  0.327   0.331   0.341   0.342   0.348   0.350   0.356   0.358
  0.363   0.365   0.369   0.370   0.376   0.379   0.381   0.385
  0.393   0.394   0.400   0.403   0.404   0.411   0.416   0.422
  0.426   0.436   0.439   0.444   0.458   0.461   0.464   0.468
  0.474   0.481   0.488   0.492   0.500   0.508   0.515   0.525
  0.527   0.544   0.545   0.547   0.553   0.557   0.561   0.569
  0.572   0.577   0.594   0.598   0.602   0.605   0.612   0.622
  0.628   0.629   0.633   0.642   0.642   0.649   0.652   0.654
  0.667   0.672   0.675   0.679   0.687   0.690   0.692   0.699
  0.704   0.708   0.712   0.725   0.726   0.730   0.733   0.743
  0.750   0.756   0.765   0.769   0.773   0.781   0.785   0.788
  0.792   0.801   0.803   0.811   0.818   0.825   0.828   0.833
  0.852   0.870   0.888   0.890   0.892   0.911   0.931   0.934
  0.948   0.958   0.969   0.976   0.985   1.011   1.036   1.041
  1.047   1.051   1.064   1.074   1.088   1.120   1.126   1.140
  1.163   1.172   1.177   1.184   1.188   1.197   1.225   1.236
  1.240   1.242   1.253   1.279   1.283   1.288   1.293   1.303
  1.354   1.358   1.371   1.424   1.428   1.440   1.453   1.460
  1.468   1.477   1.493   1.499   1.519   1.524   1.528   1.534
  1.542   1.548   1.564   1.575   1.586   1.595   1.601   1.604
  1.609   1.613   1.621   1.622   1.638   1.658   1.663   1.680
  1.683   1.693   1.704   1.710   1.711   1.713   1.717   1.723
  1.728   1.740   1.752   1.754   1.758   1.774   1.777   1.782
  1.788   1.789   1.802   1.810   1.814   1.824   1.840   1.842
  1.856   1.867   1.874   1.876   1.885   1.888   1.900   1.903
  1.908   1.911   1.926   1.931   1.933   1.948   1.950   1.958
  1.969   1.996   2.003   2.011   2.020   2.022   2.026   2.031
  2.040   2.054   2.072   2.074   2.088   2.096   2.111   2.120
  2.132   2.136   2.155   2.177   2.181   2.201   2.206   2.208
  2.221   2.242   2.249   2.272   2.277   2.278   2.302   2.316
  2.337   2.342   2.361   2.374   2.375   2.376   2.385   2.395
  2.404   2.411   2.413   2.430   2.453   2.459   2.471   2.472
  2.477   2.478   2.495   2.498   2.505   2.516   2.528   2.535
  2.538   2.549   2.554   2.560   2.562   2.569   2.575   2.588
  2.596   2.616   2.622   2.631   2.638   2.646   2.654   2.656
  2.666   2.699   2.705   2.723   2.735   2.753   2.763   2.774
  2.778   2.783   2.789   2.793   2.808   2.813   2.827   2.841
  2.867   2.868   2.892   2.893   2.896   2.914   2.923   2.937
  2.941   2.947   2.952   2.964   2.985   2.997   3.000   3.012
  3.016   3.056   3.072   3.077   3.111   3.121   3.124   3.146
  3.153   3.156   3.172   3.236   3.246   3.259   3.259   3.279
  3.293   3.308   3.325   3.329   3.331   3.345   3.355   3.391
  3.473   3.492   3.501   3.528   3.537   3.544   3.570   3.577
  3.586   3.614   3.616   3.619   3.636   3.665   3.690   3.693
  3.713   3.720   3.784   3.805   3.824   3.829   3.868   3.877
  3.885   3.906   3.920   3.954   3.970   3.982   4.022   4.081
  4.098   4.121   4.141   4.184   4.200   4.279   4.289   4.471
  4.501   4.567   4.646   4.677   4.704   4.823   4.827   4.849
  4.865   4.897   4.897   4.919   4.926   4.984   5.009   5.071
  5.080   5.171   5.201   5.370   5.515   5.687   5.748   7.381
  7.390   7.478   7.529   7.579   7.583   7.659   7.688   7.739
  7.766   7.778   7.813   7.828   7.849   7.939   7.989   8.152
  8.188   8.306   8.407   8.465   8.473   8.695   8.807   9.869
  9.897   9.964  10.000  10.024  10.035  10.055  10.109  13.659
 13.947  14.134  18.545  23.765  23.857  23.943  23.969  23.994
 24.012  24.017  24.053  49.980  69.876  69.894  69.969  69.987
 70.014  70.038  70.096  70.122 139.834
 --------------------------------------------------------------
 
          Ground-State Mulliken Net Atomic Charges

     Atom                 Charge (a.u.)
  ----------------------------------------
      1 C                    -0.464272
      2 C                    -0.493754
      3 C                     0.047637
      4 C                    -0.506460
      5 C                    -0.451865
      6 C                     0.020209
      7 O                    -0.016316
      8 H                     0.155264
      9 H                     0.121499
     10 H                     0.145427
     11 H                     0.121961
     12 C                    -0.069455
     13 C                    -0.099686
     14 H                     0.151361
     15 H                     0.141232
     16 H                     0.156593
     17 H                     0.143752
     18 H                     0.138134
     19 H                     0.154338
     20 H                     0.136197
     21 H                     0.167679
     22 H                     0.154963
     23 H                     0.143811
     24 GH                    0.000139
     25 GH                   -0.001282
     26 GH                   -0.001846
     27 GH                   -0.000408
     28 GH                   -0.000267
     29 GH                   -0.000675
     30 GH                    0.000256
     31 GH                   -0.000007
     32 GH                   -0.000002
     33 GH                   -0.000011
     34 GH                    0.000005
     35 GH                    0.000025
     36 GH                   -0.000164
     37 GH                    0.000052
     38 GH                   -0.000045
     39 GH                    0.000998
     40 GH                    0.000052
     41 GH                   -0.000037
     42 GH                    0.001103
     43 GH                   -0.000108
     44 GH                    0.002296
     45 GH                    0.001726
     46 GH                   -0.000050
  ----------------------------------------
  Sum of atomic charges =    -0.000000

 -----------------------------------------------------------------
                    Cartesian Multipole Moments
 -----------------------------------------------------------------
    Charge (ESU x 10^10)
                -0.0000
    Dipole Moment (Debye)
         X      -0.0322      Y       0.4308      Z       1.5095
       Tot       1.5701
    Quadrupole Moments (Debye-Ang)
        XX     -56.4643     XY       0.1423     YY     -54.7915
        XZ       2.3937     YZ      -0.4963     ZZ     -59.1100
    Octopole Moments (Debye-Ang^2)
       XXX    -276.9982    XXY     -26.4436    XYY     -90.7401
       YYY     -74.6316    XXZ       1.6407    XYZ      -1.3433
       YYZ      -0.0382    XZZ     -96.4643    YZZ     -24.3316
       ZZZ       6.5904
    Hexadecapole Moments (Debye-Ang^3)
      XXXX   -1330.7356   XXXY     -66.6143   XXYY    -359.6424
      XYYY     -60.1917   YYYY    -827.8378   XXXZ     -24.0015
      XXYZ      17.6858   XYYZ      -8.1208   YYYZ      71.4090
      XXZZ    -288.1506   XYZZ     -19.2936   YYZZ    -193.2291
      XZZZ      -5.0366   YZZZ      67.0811   ZZZZ    -353.1094
 -----------------------------------------------------------------
Archival summary:
1\1\vega03.cac.cornell.edu\SP\ProcedureUnspecified\BasisUnspecified\1814h23\jj585\TueApr1700:36:342018TueApr1700:36:342018\0\\#,ProcedureUnspecified,BasisUnspecified,\\0,1\O\C,1,1.43358\C,1,1.43646,2,98.0224\C,3,1.51218,1,111.091,2,-178.393,0\H,4,1.09134,3,111.033,1,-57.0184,0\H,4,1.09192,3,109.775,1,62.6469,0\H,4,1.09264,3,110.458,1,-177.522,0\C,2,1.513,1,109.807,3,-177.944,0\H,8,1.07,2,109.471,1,-64.7983,0\H,8,1.07,2,109.471,1,55.2018,0\H,8,1.07,2,109.471,1,175.202,0\C,2,1.54115,1,102.483,3,57.1986,0\H,12,1.09096,2,110.128,1,81.1589,0\H,12,1.09186,2,112.95,1,-157.962,0\C,2,1.54738,1,103.124,3,-55.9256,0\H,15,1.07,2,113.95,1,155.255,0\H,15,1.07,2,111.379,1,-86.5463,0\C,3,1.55466,1,102.371,2,-54.4128,0\H,18,1.09132,3,109.614,1,-87.4148,0\H,18,1.09187,3,112.355,1,152.676,0\C,15,1.5685,2,101.696,1,32.1918,0\H,21,1.07,15,111.7,2,120.458,0\H,21,1.07,15,114.71,2,-121.541,0\Gh,20,4.59983,18,130.868,3,177.35,0\Gh,24,1.07,20,145.485,18,11.8893,0\Gh,25,1.07,24,103.987,20,176.256,0\Gh,25,1.5685,24,114.71,20,53.9741,0\Gh,27,1.07,25,113.95,24,115.396,0\Gh,27,1.07,25,111.379,24,-2.80271,0\Gh,27,1.54738,25,101.696,24,-121.541,0\Gh,30,1.43358,27,103.124,25,32.1918,0\Gh,31,1.43646,30,98.0224,27,-55.9256,0\Gh,32,1.51218,31,111.091,30,-178.393,0\Gh,33,1.09134,32,111.033,31,-57.0184,0\Gh,33,1.09192,32,109.775,31,62.6469,0\Gh,33,1.09264,32,110.458,31,-177.522,0\Gh,30,1.513,27,114.133,25,151.252,0\Gh,37,1.07,30,109.471,27,180,0\Gh,37,1.07,30,109.471,27,-60.0002,0\Gh,37,1.07,30,109.471,27,60.0002,0\Gh,30,1.54115,27,108.926,25,-76.1436,0\Gh,41,1.09096,30,110.128,27,-170.072,0\Gh,41,1.09186,30,112.95,27,-49.1929,0\Gh,32,1.55466,31,102.371,30,-54.4128,0\Gh,44,1.09132,32,109.614,31,-87.4148,0\Gh,44,1.09187,32,112.355,31,152.676,0\\\@

 Total job time:  160.54s(wall), 636.52s(cpu) 
 Tue Apr 17 00:36:34 2018

        *************************************************************
        *                                                           *
        *  Thank you very much for using Q-Chem.  Have a nice day.  *
        *                                                           *
        *************************************************************


0 sent ACK to 0 
now end server 0 ... 
