mFile = /opt/software/qchem/qchem-5.0.1//bin/mpi/machines
Process 0 of 1 is on vega01.cac.cornell.edu - thread support 0
initial socket setup ...start
initial socket setup ...done 
now start server 0 ... 
localhost 127.0.0
Q-Chem Developer Version! Running on 127.0.0.*
                  Welcome to Q-Chem
     A Quantum Leap Into The Future Of Chemistry


 Q-Chem 5.0, Q-Chem, Inc., Pleasanton, CA (2017)

 Yihan Shao,  Zhengting Gan,  E. Epifanovsky,  A. T. B. Gilbert,  M. Wormit,  
 J. Kussmann,  A. W. Lange,  A. Behn,  Jia Deng,  Xintian Feng,  D. Ghosh,  
 M. Goldey,  P. R. Horn,  L. D. Jacobson,  I. Kaliman,  T. Kus,  A. Landau,  
 Jie Liu,  E. I. Proynov,  R. M. Richard,  R. P. Steele,  E. J. Sundstrom,  
 H. L. Woodcock III,  P. M. Zimmerman,  D. Zuev,  B. Albrecht,  E. Alguire,  
 S. A. Baeppler,  Z. Benda,  Y. A. Bernard,  E. J. Berquist,  K. B. Bravaya,  
 D. Casanova,  Chun-Min Chang,  Yunqing Chen,  A. Chien,  K. D. Closser,  
 M. P. Coons,  S. Dasgupta,  M. Diedenhofen,  Hainam Do,  R. G. Edgar,  
 Po-Tung Fang,  S. Fatehi,  Qingguo Feng,  Qinghui Ge,  A. Ghysels,  
 J. Gomes,  J. Gonthier,  A. Gunina,  M. W. D. Hanson-Heine,  
 P. H. P. Harbach,  A. W. Hauser,  J. E. Herr,  E. G. Hohenstein,  
 Z. C. Holden,  Kerwin Hui,  T.-C. Jagau,  Hyunjun Ji,  B. Kaduk,  
 K. Khistyaev,  Jaehoon Kim,  P. Klunzinger,  K. Koh,  D. Kosenkov,  
 T. Kowalczyk,  C. M. Krauter,  A. Kunitsa,  Ka Un Lao,  A. Laurent,  
 K. V. Lawler,  Joonho Lee,  D. Lefrancois,  S. Lehtola,  D. S. Levine,  
 Yi-Pei Li,  You-Sheng Lin,  Fenglai Liu,  E. Livshits,  A. Luenser,  
 P. Manohar,  E. Mansoor,  S. F. Manzer,  Shan-Ping Mao,  Yuezhi Mao,  
 N. Mardirossian,  A. V. Marenich,  L. A. Martinez-Martinez,  S. A. Maurer,  
 N. J. Mayhall,  S. C. McKenzie,  J.-M. Mewes,  A. F. Morrison,  K. Nanda,  
 T. S. Nguyen-Beck,  R. Olivares-Amaya,  J. A. Parkhill,  T. M. Perrine,  
 F. Plasser,  S. Prager,  A. Prociuk,  D. R. Rehn,  F. Rob,  M. Schneider,  
 N. Sergueev,  S. M. Sharada,  S. Sharma,  D. W. Small,  T. Stauch,  
 T. Stein,  Yu-Chuan Su,  A. J. W. Thom,  T. Tsuchimochi,  L. Vogt,  
 O. Vydrov,  M. A. Watson,  J. Wenzel,  M. de Wergifosse,  T. A. Wesolowski,  
 A. White,  J. Witte,  A. Yamada,  Jun Yang,  K. Yao,  S. Yeganeh,  
 S. R. Yost,  Zhi-Qiang You,  A. Zech,  Igor Ying Zhang,  Xing Zhang,  
 Yan Zhao,  Ying Zhu,  B. R. Brooks,  G. K. L. Chan,  C. J. Cramer,  
 M. S. Gordon,  W. J. Hehre,  A. Klamt,  M. W. Schmidt,  C. D. Sherrill,  
 D. G. Truhlar,  A. Aspuru-Guzik,  R. Baer,  A. T. Bell,  N. A. Besley,  
 Jeng-Da Chai,  A. Dreuw,  B. D. Dunietz,  T. R. Furlani,  Chao-Ping Hsu,  
 Yousung Jung,  Jing Kong,  D. S. Lambrecht,  WanZhen Liang,  C. Ochsenfeld,  
 V. A. Rassolov,  L. V. Slipchenko,  J. E. Subotnik,  T. Van Voorhis,  
 J. M. Herbert,  A. I. Krylov,  P. M. W. Gill,  M. Head-Gordon

 Contributors to earlier versions of Q-Chem not listed above: 
 R. D. Adamson,  B. Austin,  J. Baker,  G. J. O. Beran,  K. Brandhorst,  
 S. T. Brown,  E. F. C. Byrd,  A. K. Chakraborty,  C.-L. Cheng,  
 Siu Hung Chien,  D. M. Chipman,  D. L. Crittenden,  H. Dachsel,  
 R. A. DiStasio Jr.,  R. J. Doerksen,  A. D. Dutoi,  L. Fusti-Molnar,  
 W. A. Goddard III,  A. Golubeva-Zadorozhnaya,  S. R. Gwaltney,  G. Hawkins,  
 A. Heyden,  S. Hirata,  G. Kedziora,  F. J. Keil,  C. Kelley,  Jihan Kim,  
 R. A. King,  R. Z. Khaliullin,  P. P. Korambath,  W. Kurlancheek,  
 A. M. Lee,  M. S. Lee,  S. V. Levchenko,  Ching Yeh Lin,  D. Liotard,  
 R. C. Lochan,  I. Lotan,  P. E. Maslen,  N. Nair,  D. P. O'Neill,  
 D. Neuhauser,  E. Neuscamman,  C. M. Oana,  R. Olson,  B. Peters,  
 R. Peverati,  P. A. Pieniazek,  Y. M. Rhee,  J. Ritchie,  M. A. Rohrdanz,  
 E. Rosta,  N. J. Russ,  H. F. Schaefer III,  N. E. Schultz,  N. Shenvi,  
 A. C. Simmonett,  A. Sodt,  D. Stuck,  K. S. Thanthiriwatte,  V. Vanovschi,  
 Tao Wang,  A. Warshel,  C. F. Williams,  Q. Wu,  X. Xu,  W. Zhang

 Please cite Q-Chem as follows:
 Y. Shao et al., Mol. Phys. 113, 184-215 (2015)
 DOI: 10.1080/00268976.2014.952696

 Q-Chem 5.0.1 for Intel X86 EM64T Linux

 Parts of Q-Chem use Armadillo 5.200.1 (Boston Tea Smuggler).
 http://arma.sourceforge.net/

 Q-Chem begins on Tue Apr 17 15:49:34 2018  

Host: vega01.cac.cornell.edu
0

     Scratch files written to /scratch/jj585/vdw/01n00_distance_5.000_10.save//
 Parallel job on  1  processors

Checking the input file for inconsistencies... 	...done.

--------------------------------------------------------------
User input:
--------------------------------------------------------------
$molecule
0  1
C        -0.54444000        -0.68370000        -0.06689000
C        -0.55709000        +0.71878000        +0.05493000
C        -1.74320000        -1.41616000        -0.12552000
C        -2.93952000        -0.70056000        -0.05285000
C        -2.95313000        +0.68255000        +0.06934000
C        -1.77161000        +1.42404000        +0.12810000
H        -3.90354000        +1.20325000        +0.11710000
H        -3.87892000        -1.24211000        -0.08988000
C        -1.83960000        +2.92746000        +0.24839000
H        -1.24214000        +3.42352000        -0.52065000
H        -1.45503000        +3.26427000        +1.21284000
H        -2.87211000        +3.26623000        +0.14638000
H        -1.73878000        -2.44393000        -0.21875000
H        +0.35825000        -1.18166000        -0.11386000
H        +0.33551000        +1.23549000        +0.09097000
@C        -0.51003000        -1.11966000        +4.91395000
@C        -0.52268000        +0.28282000        +5.03577000
@C        -1.70879000        -1.85212000        +4.85532000
@C        -2.90511000        -1.13652000        +4.92799000
@C        -2.91872000        +0.24659000        +5.05018000
@C        -1.73720000        +0.98808000        +5.10894000
@H        -3.86913000        +0.76729000        +5.09794000
@H        -3.84451000        -1.67807000        +4.89096000
@C        -1.80519000        +2.49150000        +5.22923000
@H        -1.20773000        +2.98756000        +4.46019000
@H        -1.42062000        +2.82831000        +6.19368000
@H        -2.83770000        +2.83027000        +5.12722000
@H        -1.70437000        -2.87989000        +4.76209000
@H        +0.39266000        -1.61762000        +4.86698000
@H        +0.36992000        +0.79953000        +5.07181000
$end

$rem
JOBTYPE                   SP
METHOD                    B3LYP
DFT_D                     d3_op
BASIS                     6-311++G(d,p)
SYMMETRY                  False
THRESH                    12
SCF_CONVERGENCE           8
MAX_SUB_FILE_NUM          128
MEM_STATIC                400
MEM_TOTAL                 4000
$end
--------------------------------------------------------------
 Adding empirical dispersion correction 
 ----------------------------------------------------------------
 Doing -D3(op) with
 s6 =   1.00000
 s8 =   0.78311
 a1 =   0.30000
 a2 =   4.25000
 n  =  10.00000
 -D3 energy without 3body term =     -0.0113800034 hartrees
 ----------------------------------------------------------------
             Standard Nuclear Orientation (Angstroms)
    I     Atom           X                Y                Z
 ----------------------------------------------------------------
    1      C      -0.5444400000    -0.6837000000    -0.0668900000
    2      C      -0.5570900000     0.7187800000     0.0549300000
    3      C      -1.7432000000    -1.4161600000    -0.1255200000
    4      C      -2.9395200000    -0.7005600000    -0.0528500000
    5      C      -2.9531300000     0.6825500000     0.0693400000
    6      C      -1.7716100000     1.4240400000     0.1281000000
    7      H      -3.9035400000     1.2032500000     0.1171000000
    8      H      -3.8789200000    -1.2421100000    -0.0898800000
    9      C      -1.8396000000     2.9274600000     0.2483900000
   10      H      -1.2421400000     3.4235200000    -0.5206500000
   11      H      -1.4550300000     3.2642700000     1.2128400000
   12      H      -2.8721100000     3.2662300000     0.1463800000
   13      H      -1.7387800000    -2.4439300000    -0.2187500000
   14      H       0.3582500000    -1.1816600000    -0.1138600000
   15      H       0.3355100000     1.2354900000     0.0909700000
   16      GH     -0.5100300000    -1.1196600000     4.9139500000
   17      GH     -0.5226800000     0.2828200000     5.0357700000
   18      GH     -1.7087900000    -1.8521200000     4.8553200000
   19      GH     -2.9051100000    -1.1365200000     4.9279900000
   20      GH     -2.9187200000     0.2465900000     5.0501800000
   21      GH     -1.7372000000     0.9880800000     5.1089400000
   22      GH     -3.8691300000     0.7672900000     5.0979400000
   23      GH     -3.8445100000    -1.6780700000     4.8909600000
   24      GH     -1.8051900000     2.4915000000     5.2292300000
   25      GH     -1.2077300000     2.9875600000     4.4601900000
   26      GH     -1.4206200000     2.8283100000     6.1936800000
   27      GH     -2.8377000000     2.8302700000     5.1272200000
   28      GH     -1.7043700000    -2.8798900000     4.7620900000
   29      GH      0.3926600000    -1.6176200000     4.8669800000
   30      GH      0.3699200000     0.7995300000     5.0718100000
 ----------------------------------------------------------------
 Nuclear Repulsion Energy =   269.2168625664 hartrees
 There are       25 alpha and       25 beta electrons
 Requested basis set is 6-311++G(d,p)
 There are 164 shells and 420 basis functions

 Total QAlloc Memory Limit   4000 MB
 Mega-Array Size       392 MB
 MEM_STATIC part       400 MB
 A cutoff of  1.0D-12 yielded  10802 shell pairs
 There are     70532 function pairs (     74775 Cartesian)
 
 -------------------------------------------------------
 OpenMP Integral Computing Module                       
 Release: version 1.0, May 2013, Q-Chem Inc. Pittsburgh 
 -------------------------------------------------------
 Integral Job Info:
 Integral job number is                      11
 Integral operator is                         1
 short-range coefficients                     0
 long-range coefficients              100000000
 Omega coefficients                           0
 if combine SR and LR in K                    0
 Integral screening is                        0
 Integral computing path is                   2
 max size of driver memory is            800000
 size of driver memory is                593474
 size of scratch memory is              2361544
 max col of scratch BK array               1296
 max len of scratch array in speh3          155
 max len of scratch index in speh4           18
 max int batch size is                      520
 min int batch size is                       52
 fixed nKL is                                52
 max L of basis functions is                  2
 order of int derivative is                   0
 number of shells is                        164
 number of basis is                         434
 number of cartesian basis is               434
 number of contracted shell pairs         10802
 number of primitive shell pairs          23833
 maxK2 (contraction) of shell pair           36
 max number of K2 of shell pair               1
 max number of CS2 of shell pair           2066
 max number of PS2 of shell pair           3336
 mem total for path MDJ                  118552
 -------------------------------------------------------
 Smallest overlap matrix eigenvalue = 4.60E-07
 Linear dependence detected in AO basis
 Number of orthogonalized atomic orbitals = 419
 Maximum deviation from orthogonality = 9.187E-11

 Scale SEOQF with 1.000000e-01/1.000000e-01/1.000000e-02

 Standard Electronic Orientation quadrupole field applied
 Nucleus-field energy     =     0.0000000169 hartrees
 Guess from superposition of atomic densities
 Warning:  Energy on first SCF cycle will be non-variational

 Q-Chem warning in module /opt/software/qchem/qchem-5.0.1/libgen/Atomic_PolEc.C, line 58:

 No atomic polarizability available.


 Q-Chem warning in module /opt/software/qchem/qchem-5.0.1/libgen/Atomic_PolEc.C, line 73:

 No atomic polarizability available.


 Q-Chem warning in module /opt/software/qchem/qchem-5.0.1/libgen/Atomic_PolEc.C, line 58:

 No atomic polarizability available.


 Q-Chem warning in module /opt/software/qchem/qchem-5.0.1/libgen/Atomic_PolEc.C, line 73:

 No atomic polarizability available.


 Q-Chem warning in module /opt/software/qchem/qchem-5.0.1/libgen/Atomic_PolEc.C, line 58:

 No atomic polarizability available.


 Q-Chem warning in module /opt/software/qchem/qchem-5.0.1/libgen/Atomic_PolEc.C, line 73:

 No atomic polarizability available.


 Q-Chem warning in module /opt/software/qchem/qchem-5.0.1/libgen/Atomic_PolEc.C, line 58:

 No atomic polarizability available.


 Q-Chem warning in module /opt/software/qchem/qchem-5.0.1/libgen/Atomic_PolEc.C, line 73:

 No atomic polarizability available.


 Q-Chem warning in module /opt/software/qchem/qchem-5.0.1/libgen/Atomic_PolEc.C, line 58:

 No atomic polarizability available.


 Q-Chem warning in module /opt/software/qchem/qchem-5.0.1/libgen/Atomic_PolEc.C, line 73:

 No atomic polarizability available.


 Q-Chem warning in module /opt/software/qchem/qchem-5.0.1/libgen/Atomic_PolEc.C, line 58:

 No atomic polarizability available.


 Q-Chem warning in module /opt/software/qchem/qchem-5.0.1/libgen/Atomic_PolEc.C, line 73:

 No atomic polarizability available.


 Q-Chem warning in module /opt/software/qchem/qchem-5.0.1/libgen/Atomic_PolEc.C, line 58:

 No atomic polarizability available.


 Q-Chem warning in module /opt/software/qchem/qchem-5.0.1/libgen/Atomic_PolEc.C, line 73:

 No atomic polarizability available.


 Q-Chem warning in module /opt/software/qchem/qchem-5.0.1/libgen/Atomic_PolEc.C, line 58:

 No atomic polarizability available.


 Q-Chem warning in module /opt/software/qchem/qchem-5.0.1/libgen/Atomic_PolEc.C, line 73:

 No atomic polarizability available.


 Q-Chem warning in module /opt/software/qchem/qchem-5.0.1/libgen/Atomic_PolEc.C, line 58:

 No atomic polarizability available.


 Q-Chem warning in module /opt/software/qchem/qchem-5.0.1/libgen/Atomic_PolEc.C, line 73:

 No atomic polarizability available.


 Q-Chem warning in module /opt/software/qchem/qchem-5.0.1/libgen/Atomic_PolEc.C, line 58:

 No atomic polarizability available.


 Q-Chem warning in module /opt/software/qchem/qchem-5.0.1/libgen/Atomic_PolEc.C, line 73:

 No atomic polarizability available.


 Q-Chem warning in module /opt/software/qchem/qchem-5.0.1/libgen/Atomic_PolEc.C, line 58:

 No atomic polarizability available.


 Q-Chem warning in module /opt/software/qchem/qchem-5.0.1/libgen/Atomic_PolEc.C, line 73:

 No atomic polarizability available.


 Q-Chem warning in module /opt/software/qchem/qchem-5.0.1/libgen/Atomic_PolEc.C, line 58:

 No atomic polarizability available.


 Q-Chem warning in module /opt/software/qchem/qchem-5.0.1/libgen/Atomic_PolEc.C, line 73:

 No atomic polarizability available.


 Q-Chem warning in module /opt/software/qchem/qchem-5.0.1/libgen/Atomic_PolEc.C, line 58:

 No atomic polarizability available.


 Q-Chem warning in module /opt/software/qchem/qchem-5.0.1/libgen/Atomic_PolEc.C, line 73:

 No atomic polarizability available.


 Q-Chem warning in module /opt/software/qchem/qchem-5.0.1/libgen/Atomic_PolEc.C, line 58:

 No atomic polarizability available.


 Q-Chem warning in module /opt/software/qchem/qchem-5.0.1/libgen/Atomic_PolEc.C, line 73:

 No atomic polarizability available.


 Q-Chem warning in module /opt/software/qchem/qchem-5.0.1/libgen/Atomic_PolEc.C, line 58:

 No atomic polarizability available.


 Q-Chem warning in module /opt/software/qchem/qchem-5.0.1/libgen/Atomic_PolEc.C, line 73:

 No atomic polarizability available.

 A restricted hybrid HF-DFT SCF calculation will be
 performed using Pulay DIIS extrapolation
 Exchange:     0.2000 Hartree-Fock + 0.0800 Slater + 0.7200 B88
 Correlation:  0.1900 VWN1RPA + 0.8100 LYP
 Using SG-1 standard quadrature grid
 Dispersion:   Grimme D3
 SCF converges when DIIS error is below 1.0E-08
 using 4 threads for integral computing
 -------------------------------------------------------
 OpenMP Integral computing Module                
 Release: version 1.0, May 2013, Q-Chem Inc. Pittsburgh 
 -------------------------------------------------------
 -------------------------------------------------------
 OpenMP BLAS3 based DFT computing Module                
 Release: version 1.0, May 2013, Q-Chem Inc. Pittsburgh 
 -------------------------------------------------------
 ---------------------------------------
  Cycle       Energy         DIIS Error
 ---------------------------------------
    1    -273.1501197048      2.19E-02
    2    -271.4966099998      2.44E-03
    3    -271.4747455241      2.65E-03
    4    -271.6428993818      1.98E-04
    5    -271.6434915961      1.01E-04
    6    -271.6436672114      4.35E-05
    7    -271.6437056877      1.58E-05
    8    -271.6437117770      1.31E-06
    9    -271.6437118064      7.99E-07
   10    -271.6437118204      1.85E-07
   11    -271.6437118211      8.03E-08
   12    -271.6437118212      9.78E-09 Convergence criterion met
 ---------------------------------------
 SCF time:  CPU 310.97 s  wall 77.93 s
 SCF   energy in the final basis set = -271.64371182
 Total energy in the final basis set = -271.64371182
 
 --------------------------------------------------------------
 
                    Orbital Energies (a.u.)
 --------------------------------------------------------------
 
 Alpha MOs
 -- Occupied --
-10.185 -10.174 -10.172 -10.171 -10.170 -10.169 -10.169  -0.858
 -0.776  -0.747  -0.691  -0.611  -0.591  -0.521  -0.465  -0.462
 -0.424  -0.423  -0.418  -0.390  -0.358  -0.350  -0.342  -0.255
 -0.247
 -- Virtual --
 -0.017  -0.013  -0.008   0.005   0.009   0.018   0.028   0.031
  0.036   0.040   0.048   0.051   0.055   0.061   0.064   0.068
  0.074   0.082   0.086   0.088   0.092   0.100   0.106   0.107
  0.110   0.114   0.117   0.122   0.123   0.126   0.127   0.130
  0.135   0.137   0.141   0.142   0.150   0.154   0.160   0.161
  0.163   0.168   0.170   0.175   0.176   0.180   0.183   0.186
  0.189   0.190   0.194   0.197   0.203   0.212   0.215   0.218
  0.222   0.226   0.231   0.235   0.241   0.245   0.248   0.250
  0.256   0.260   0.262   0.265   0.268   0.274   0.281   0.289
  0.292   0.294   0.300   0.304   0.308   0.312   0.316   0.320
  0.330   0.333   0.350   0.354   0.355   0.359   0.369   0.372
  0.376   0.384   0.392   0.408   0.419   0.424   0.436   0.442
  0.451   0.479   0.485   0.486   0.502   0.516   0.521   0.522
  0.539   0.545   0.552   0.560   0.567   0.580   0.582   0.585
  0.590   0.600   0.610   0.611   0.616   0.626   0.631   0.637
  0.641   0.650   0.652   0.659   0.662   0.671   0.674   0.690
  0.705   0.712   0.719   0.731   0.735   0.738   0.747   0.753
  0.773   0.775   0.794   0.803   0.812   0.826   0.849   0.850
  0.859   0.883   0.883   0.896   0.903   0.917   0.921   0.935
  0.937   0.949   0.963   0.968   1.005   1.015   1.019   1.034
  1.040   1.045   1.081   1.086   1.093   1.124   1.130   1.146
  1.158   1.182   1.205   1.210   1.226   1.290   1.328   1.357
  1.367   1.408   1.417   1.424   1.448   1.452   1.466   1.478
  1.500   1.527   1.530   1.533   1.538   1.546   1.558   1.562
  1.565   1.577   1.590   1.598   1.609   1.624   1.646   1.662
  1.677   1.688   1.696   1.713   1.718   1.722   1.738   1.744
  1.756   1.763   1.769   1.774   1.794   1.803   1.809   1.825
  1.847   1.853   1.861   1.866   1.885   1.895   1.899   1.904
  1.919   1.936   1.940   1.955   1.960   1.962   1.968   1.982
  2.012   2.025   2.035   2.036   2.041   2.052   2.065   2.098
  2.104   2.115   2.144   2.163   2.196   2.240   2.251   2.258
  2.308   2.313   2.321   2.324   2.335   2.395   2.404   2.413
  2.414   2.419   2.428   2.447   2.448   2.480   2.482   2.490
  2.494   2.514   2.537   2.554   2.555   2.563   2.570   2.588
  2.598   2.604   2.637   2.643   2.675   2.686   2.701   2.732
  2.737   2.750   2.758   2.760   2.761   2.776   2.801   2.836
  2.839   2.861   2.901   2.904   2.916   2.926   2.930   2.940
  2.953   2.990   2.995   3.000   3.005   3.012   3.047   3.093
  3.117   3.154   3.175   3.208   3.225   3.247   3.282   3.346
  3.355   3.358   3.390   3.391   3.400   3.448   3.477   3.487
  3.513   3.516   3.548   3.560   3.571   3.588   3.622   3.654
  3.666   3.715   3.721   3.792   3.795   3.860   4.017   4.034
  4.038   4.121   4.179   4.186   4.204   4.342   4.627   4.732
  4.838   4.840   4.865   4.911   4.968   5.108   5.216   5.657
  7.080   7.129   7.157   7.225   7.237   7.371   7.619   7.716
  7.724   7.746   7.771   7.784   7.823   7.839   7.869   7.986
  8.029   8.054   8.177   8.486   8.916   9.726  10.018  10.209
 10.229  10.260  10.277  10.337  23.661  23.940  24.001  24.012
 24.096  24.108  24.206  69.771  69.909  70.004  70.031  70.052
 70.056  70.094
 --------------------------------------------------------------
 
          Ground-State Mulliken Net Atomic Charges

     Atom                 Charge (a.u.)
  ----------------------------------------
      1 C                    -0.062902
      2 C                    -0.426653
      3 C                    -0.334666
      4 C                    -0.109465
      5 C                    -0.581723
      6 C                     0.926083
      7 H                     0.149323
      8 H                     0.169520
      9 C                    -0.647909
     10 H                     0.146964
     11 H                     0.161108
     12 H                     0.143795
     13 H                     0.150286
     14 H                     0.160225
     15 H                     0.167629
     16 GH                   -0.017438
     17 GH                    0.023991
     18 GH                    0.020838
     19 GH                   -0.019288
     20 GH                   -0.007833
     21 GH                   -0.012670
     22 GH                   -0.000681
     23 GH                   -0.000202
     24 GH                    0.000214
     25 GH                   -0.001040
     26 GH                   -0.000442
     27 GH                    0.001365
     28 GH                    0.001688
     29 GH                   -0.000586
     30 GH                    0.000469
  ----------------------------------------
  Sum of atomic charges =     0.000000

 -----------------------------------------------------------------
                    Cartesian Multipole Moments
 -----------------------------------------------------------------
    Charge (ESU x 10^10)
                 0.0000
    Dipole Moment (Debye)
         X       0.0622      Y       0.3869      Z       0.0390
       Tot       0.3938
    Quadrupole Moments (Debye-Ang)
        XX     -39.3608     XY      -0.6294     YY     -38.0782
        XZ      -0.0996     YZ       0.7279     ZZ     -46.4067
    Octopole Moments (Debye-Ang^2)
       XXX     208.5821    XXY     -19.5400    XYY      67.8645
       YYY     -62.7808    XXZ      -1.7085    XYZ      -1.2472
       YYZ      -2.0908    XZZ      82.7400    YZZ     -19.5960
       ZZZ      -4.8416
    Hexadecapole Moments (Debye-Ang^3)
      XXXX   -1027.5197   XXXY     110.4171   XXYY    -280.2607
      XYYY     117.0455   YYYY    -684.1854   XXXZ      10.6625
      XXYZ      -6.4319   XYYZ       3.8982   YYYZ     -25.4823
      XXZZ    -217.4461   XYZZ      38.0897   YYZZ    -130.4461
      XZZZ      10.4015   YZZZ     -27.3402   ZZZZ     -68.0470
 -----------------------------------------------------------------
Archival summary:
1\1\vega01.cac.cornell.edu\SP\ProcedureUnspecified\BasisUnspecified\78h15\jj585\TueApr1715:50:522018TueApr1715:50:522018\0\\#,ProcedureUnspecified,BasisUnspecified,\\0,1\C\C,1,1.39616\H,2,1.08475,1,118.991\C,2,1.38856,1,121.629,3,179.783,0\H,4,1.08495,2,119.453,1,179.671,0\C,4,1.3959,2,121.575,1,-0.129654,0\H,6,1.032,4,121.26,2,-179.84,0\C,6,1.40604,4,117.481,2,0.160349,0\H,8,1.032,6,119.504,4,179.742,0\C,1,1.40634,2,117.536,3,-179.6,0\H,10,1.032,1,119.607,2,179.72,0\C,1,1.50976,2,119.611,3,-0.341033,0\H,12,1.09144,1,110.135,2,-7.24194,0\H,12,1.09156,1,111.21,2,113.289,0\H,12,1.09291,1,111.796,2,-127.427,0\Gh,14,3.26849,12,151.447,1,-42.914,0\Gh,16,1.09291,14,134.121,12,-20.0012,0\Gh,17,1.09144,16,108.09,14,-53.398,0\Gh,17,1.09156,16,106.802,14,-170.167,0\Gh,17,1.50976,16,111.796,14,67.9775,0\Gh,20,1.39616,17,119.611,16,-127.427,0\Gh,21,1.08475,20,118.991,17,-0.341033,0\Gh,21,1.38856,20,121.629,17,179.442,0\Gh,23,1.08495,21,119.453,20,179.671,0\Gh,23,1.3959,21,121.575,20,-0.129654,0\Gh,25,1.032,23,121.26,21,-179.84,0\Gh,25,1.40604,23,117.481,21,0.160349,0\Gh,27,1.032,25,119.504,23,179.742,0\Gh,20,1.40634,17,122.848,16,51.7903,0\Gh,29,1.032,20,119.607,17,0.487832,0\\\@

 Total job time:  78.59s(wall), 313.04s(cpu) 
 Tue Apr 17 15:50:52 2018

        *************************************************************
        *                                                           *
        *  Thank you very much for using Q-Chem.  Have a nice day.  *
        *                                                           *
        *************************************************************


0 sent ACK to 0 
now end server 0 ... 
