r0103.ten.osc.edu 10.25.153
Q-Chem Developer Version! Running on 10.25.153.*
                  Welcome to Q-Chem
     A Quantum Leap Into The Future Of Chemistry


 Q-Chem 5.0, Q-Chem, Inc., Pleasanton, CA (2017)

 Yihan Shao,  Zhengting Gan,  E. Epifanovsky,  A. T. B. Gilbert,  M. Wormit,  
 J. Kussmann,  A. W. Lange,  A. Behn,  Jia Deng,  Xintian Feng,  D. Ghosh,  
 M. Goldey,  P. R. Horn,  L. D. Jacobson,  I. Kaliman,  T. Kus,  A. Landau,  
 Jie Liu,  E. I. Proynov,  R. M. Richard,  R. P. Steele,  E. J. Sundstrom,  
 H. L. Woodcock III,  P. M. Zimmerman,  D. Zuev,  B. Albrecht,  E. Alguire,  
 S. A. Baeppler,  Z. Benda,  Y. A. Bernard,  E. J. Berquist,  K. B. Bravaya,  
 D. Casanova,  Chun-Min Chang,  Yunqing Chen,  A. Chien,  K. D. Closser,  
 M. P. Coons,  S. Dasgupta,  M. Diedenhofen,  Hainam Do,  R. G. Edgar,  
 Po-Tung Fang,  S. Fatehi,  Qingguo Feng,  Qinghui Ge,  A. Ghysels,  
 J. Gomes,  J. Gonthier,  A. Gunina,  M. W. D. Hanson-Heine,  
 P. H. P. Harbach,  A. W. Hauser,  J. E. Herr,  E. G. Hohenstein,  
 Z. C. Holden,  Kerwin Hui,  T.-C. Jagau,  Hyunjun Ji,  B. Kaduk,  
 K. Khistyaev,  Jaehoon Kim,  P. Klunzinger,  K. Koh,  D. Kosenkov,  
 T. Kowalczyk,  C. M. Krauter,  A. Kunitsa,  Ka Un Lao,  A. Laurent,  
 K. V. Lawler,  Joonho Lee,  D. Lefrancois,  S. Lehtola,  D. S. Levine,  
 Yi-Pei Li,  You-Sheng Lin,  Fenglai Liu,  E. Livshits,  A. Luenser,  
 P. Manohar,  E. Mansoor,  S. F. Manzer,  Shan-Ping Mao,  Yuezhi Mao,  
 N. Mardirossian,  A. V. Marenich,  L. A. Martinez-Martinez,  S. A. Maurer,  
 N. J. Mayhall,  S. C. McKenzie,  J.-M. Mewes,  A. F. Morrison,  K. Nanda,  
 T. S. Nguyen-Beck,  R. Olivares-Amaya,  J. A. Parkhill,  T. M. Perrine,  
 F. Plasser,  S. Prager,  A. Prociuk,  D. R. Rehn,  F. Rob,  M. Schneider,  
 N. Sergueev,  S. M. Sharada,  S. Sharma,  D. W. Small,  T. Stauch,  
 T. Stein,  Yu-Chuan Su,  A. J. W. Thom,  T. Tsuchimochi,  L. Vogt,  
 O. Vydrov,  M. A. Watson,  J. Wenzel,  M. de Wergifosse,  T. A. Wesolowski,  
 A. White,  J. Witte,  A. Yamada,  Jun Yang,  K. Yao,  S. Yeganeh,  
 S. R. Yost,  Zhi-Qiang You,  A. Zech,  Igor Ying Zhang,  Xing Zhang,  
 Yan Zhao,  Ying Zhu,  B. R. Brooks,  G. K. L. Chan,  C. J. Cramer,  
 M. S. Gordon,  W. J. Hehre,  A. Klamt,  M. W. Schmidt,  C. D. Sherrill,  
 D. G. Truhlar,  A. Aspuru-Guzik,  R. Baer,  A. T. Bell,  N. A. Besley,  
 Jeng-Da Chai,  A. Dreuw,  B. D. Dunietz,  T. R. Furlani,  Chao-Ping Hsu,  
 Yousung Jung,  Jing Kong,  D. S. Lambrecht,  WanZhen Liang,  C. Ochsenfeld,  
 V. A. Rassolov,  L. V. Slipchenko,  J. E. Subotnik,  T. Van Voorhis,  
 J. M. Herbert,  A. I. Krylov,  P. M. W. Gill,  M. Head-Gordon

 Contributors to earlier versions of Q-Chem not listed above: 
 R. D. Adamson,  B. Austin,  J. Baker,  G. J. O. Beran,  K. Brandhorst,  
 S. T. Brown,  E. F. C. Byrd,  A. K. Chakraborty,  C.-L. Cheng,  
 Siu Hung Chien,  D. M. Chipman,  D. L. Crittenden,  H. Dachsel,  
 R. A. DiStasio Jr.,  R. J. Doerksen,  A. D. Dutoi,  L. Fusti-Molnar,  
 W. A. Goddard III,  A. Golubeva-Zadorozhnaya,  S. R. Gwaltney,  G. Hawkins,  
 A. Heyden,  S. Hirata,  G. Kedziora,  F. J. Keil,  C. Kelley,  Jihan Kim,  
 R. A. King,  R. Z. Khaliullin,  P. P. Korambath,  W. Kurlancheek,  
 A. M. Lee,  M. S. Lee,  S. V. Levchenko,  Ching Yeh Lin,  D. Liotard,  
 R. C. Lochan,  I. Lotan,  P. E. Maslen,  N. Nair,  D. P. O'Neill,  
 D. Neuhauser,  E. Neuscamman,  C. M. Oana,  R. Olson,  B. Peters,  
 R. Peverati,  P. A. Pieniazek,  Y. M. Rhee,  J. Ritchie,  M. A. Rohrdanz,  
 E. Rosta,  N. J. Russ,  H. F. Schaefer III,  N. E. Schultz,  N. Shenvi,  
 A. C. Simmonett,  A. Sodt,  D. Stuck,  K. S. Thanthiriwatte,  V. Vanovschi,  
 Tao Wang,  A. Warshel,  C. F. Williams,  Q. Wu,  X. Xu,  W. Zhang

 Please cite Q-Chem as follows:
 Y. Shao et al., Mol. Phys. 113, 184-215 (2015)
 DOI: 10.1080/00268976.2014.952696

 Q-Chem 5.0.1 for Intel X86 EM64T Linux

 Parts of Q-Chem use Armadillo 5.200.1 (Boston Tea Smuggler).
 http://arma.sourceforge.net/

 Q-Chem begins on Sat Oct 14 21:27:53 2017  

Host: r0103.ten.osc.edu
0

     Scratch files written to /tmp/pbstmp.1310497/00//
Processing $rem in /users/PAS0291/osu6415/.qchemrc.
molden_format             true

Checking the input file for inconsistencies... 	...done.

--------------------------------------------------------------
User input:
--------------------------------------------------------------
$molecule
0 1
C 0.22583790 -0.71157700 -0.06512586
C -0.99865671 -0.02144766 -0.00622228
C 1.48903205 0.05157072 -0.33738476
C -1.02637166 1.47051255 -0.11527332
O 2.39857731 -0.12232144 0.63858974
O 1.68350310 0.71752418 -1.32576486
O -0.07630877 2.03938004 0.65710304
O -1.80564195 2.10210040 -0.78663386
C 0.08603078 3.46137184 0.50903634
C 3.65486322 0.55536861 0.45003611
C 0.26982996 -2.11313854 0.00865777
C -0.94050451 -2.79092097 0.16332170
C -2.14889615 -2.11053392 0.23845720
C -2.21179496 -0.71914613 0.14462295
H 0.40649224 3.69360016 -0.50790568
H 4.14505902 0.20561887 -0.45991676
H -3.06895401 -2.67138704 0.36481502
H -0.84991266 3.97877465 0.72270148
H 0.85318686 3.74112304 1.22761442
H 4.25010629 0.31138092 1.32695252
H 3.49523282 1.63218930 0.37966618
H -0.93549687 -3.87457326 0.21828139
C -3.55422717 -0.03088193 0.21479645
C 1.56046980 -2.89079872 -0.09792115
H 2.17574879 -2.54052895 -0.93072208
H 1.35400705 -3.95048831 -0.25831384
H 2.15816927 -2.79104820 0.81147506
H -3.83065204 0.38876588 -0.75465493
H -3.55285731 0.79828875 0.92610269
H -4.32475669 -0.74105159 0.52064116
$end

$rem
sym_ignore      true
jobtype         opt
method          b3lyp
basis           6-311++G(d,p)
dft_d           d3_op
mem_total       62000
MEM_STATIC      4000
ao2mo_disk      350000
max_scf_cycles  200
geom_opt_max_cycles 1000
geom_opt_tol_displacement 1
GEOM_OPT_TOL_GRADIENT       1
GEOM_OPT_TOL_ENERGY         1
$end

--------------------------------------------------------------
 Adding empirical dispersion correction 
 ----------------------------------------------------------------
 Doing -D3(op) with
 s6 =   1.00000
 s8 =   0.78311
 a1 =   0.30000
 a2 =   4.25000
 n  =  10.00000
 -D3 energy without 3body term =     -0.0331848675 hartrees
 ----------------------------------------------------------------
             Standard Nuclear Orientation (Angstroms)
    I     Atom           X                Y                Z
 ----------------------------------------------------------------
    1      C       0.2258379000    -0.7115770000    -0.0651258600
    2      C      -0.9986567100    -0.0214476600    -0.0062222800
    3      C       1.4890320500     0.0515707200    -0.3373847600
    4      C      -1.0263716600     1.4705125500    -0.1152733200
    5      O       2.3985773100    -0.1223214400     0.6385897400
    6      O       1.6835031000     0.7175241800    -1.3257648600
    7      O      -0.0763087700     2.0393800400     0.6571030400
    8      O      -1.8056419500     2.1021004000    -0.7866338600
    9      C       0.0860307800     3.4613718400     0.5090363400
   10      C       3.6548632200     0.5553686100     0.4500361100
   11      C       0.2698299600    -2.1131385400     0.0086577700
   12      C      -0.9405045100    -2.7909209700     0.1633217000
   13      C      -2.1488961500    -2.1105339200     0.2384572000
   14      C      -2.2117949600    -0.7191461300     0.1446229500
   15      H       0.4064922400     3.6936001600    -0.5079056800
   16      H       4.1450590200     0.2056188700    -0.4599167600
   17      H      -3.0689540100    -2.6713870400     0.3648150200
   18      H      -0.8499126600     3.9787746500     0.7227014800
   19      H       0.8531868600     3.7411230400     1.2276144200
   20      H       4.2501062900     0.3113809200     1.3269525200
   21      H       3.4952328200     1.6321893000     0.3796661800
   22      H      -0.9354968700    -3.8745732600     0.2182813900
   23      C      -3.5542271700    -0.0308819300     0.2147964500
   24      C       1.5604698000    -2.8907987200    -0.0979211500
   25      H       2.1757487900    -2.5405289500    -0.9307220800
   26      H       1.3540070500    -3.9504883100    -0.2583138400
   27      H       2.1581692700    -2.7910482000     0.8114750600
   28      H      -3.8306520400     0.3887658800    -0.7546549300
   29      H      -3.5528573100     0.7982887500     0.9261026900
   30      H      -4.3247566900    -0.7410515900     0.5206411600
 ----------------------------------------------------------------
 Nuclear Repulsion Energy =  1141.5278278316 hartrees
 There are       59 alpha and       59 beta electrons
 Requested basis set is 6-311++G(d,p)
 There are 166 shells and 450 basis functions

 Total QAlloc Memory Limit  62000 MB
 Mega-Array Size      3911 MB
 MEM_STATIC part      4000 MB
 A cutoff of  1.0D-11 yielded  10973 shell pairs
 There are     83039 function pairs (     88726 Cartesian)
 
 -------------------------------------------------------
 OpenMP Integral Computing Module                       
 Release: version 1.0, May 2013, Q-Chem Inc. Pittsburgh 
 -------------------------------------------------------
 Integral Job Info:
 Integral job number is                      11
 Integral operator is                         1
 short-range coefficients                     0
 long-range coefficients              100000000
 Omega coefficients                           0
 if combine SR and LR in K                    0
 Integral screening is                        0
 Integral computing path is                   2
 max size of driver memory is            800000
 size of driver memory is                593474
 size of scratch memory is              2361544
 max col of scratch BK array               1296
 max len of scratch array in speh3          155
 max len of scratch index in speh4           18
 max int batch size is                      520
 min int batch size is                       52
 fixed nKL is                                52
 max L of basis functions is                  2
 order of int derivative is                   0
 number of shells is                        166
 number of basis is                         466
 number of cartesian basis is               466
 number of contracted shell pairs         10973
 number of primitive shell pairs          24784
 maxK2 (contraction) of shell pair           36
 max number of K2 of shell pair               1
 max number of CS2 of shell pair           2067
 max number of PS2 of shell pair           3786
 mem total for path MDJ                  160568
 -------------------------------------------------------
 Smallest overlap matrix eigenvalue = 4.19E-08

 Q-Chem warning in module /fs/scratch/osu6415/qchem-kaunlao-vdw/stvman/mkSTV.C, line 281:

 Overlap eigenvalue is smaller than square root of threshold

 Linear dependence detected in AO basis
 Number of orthogonalized atomic orbitals = 447
 Maximum deviation from orthogonality = 4.974E-10

 Scale SEOQF with 1.000000e-01/1.000000e-01/1.000000e-01

 Standard Electronic Orientation quadrupole field applied
 Nucleus-field energy     =     0.0000000424 hartrees
 Guess from superposition of atomic densities
 Warning:  Energy on first SCF cycle will be non-variational
 A restricted hybrid HF-DFT SCF calculation will be
 performed using Pulay DIIS extrapolation
 Exchange:     0.2000 Hartree-Fock + 0.0800 Slater + 0.7200 B88
 Correlation:  0.1900 VWN1RPA + 0.8100 LYP
 Using SG-1 standard quadrature grid
 Dispersion:   Grimme D3
 SCF converges when DIIS error is below 1.0E-08
 using 20 threads for integral computing
 -------------------------------------------------------
 OpenMP Integral computing Module                
 Release: version 1.0, May 2013, Q-Chem Inc. Pittsburgh 
 -------------------------------------------------------
 -------------------------------------------------------
 OpenMP BLAS3 based DFT computing Module                
 Release: version 1.0, May 2013, Q-Chem Inc. Pittsburgh 
 -------------------------------------------------------
 ---------------------------------------
  Cycle       Energy         DIIS Error
 ---------------------------------------
    1    -770.1922586262      3.04E-02
    2    -766.5475570949      3.92E-03
    3    -766.0334377144      6.62E-03
    4    -766.8152048579      1.68E-03
    5    -766.8722528208      3.89E-04
    6    -766.8744348089      1.81E-04
    7    -766.8750468872      3.50E-05
    8    -766.8750671084      1.79E-05
    9    -766.8750751807      3.91E-06
   10    -766.8750755172      1.28E-06
   11    -766.8750755454      6.69E-07
   12    -766.8750755541      1.66E-07
   13    -766.8750755538      5.25E-08
   14    -766.8750755533      1.33E-08
   15    -766.8750755536      8.86E-09 Convergence criterion met
 ---------------------------------------
 SCF time:  CPU 812.65 s  wall 44.78 s
 SCF   energy in the final basis set = -766.87507555
 Total energy in the final basis set = -766.87507555
 
 --------------------------------------------------------------
 
                    Orbital Energies (a.u.)
 --------------------------------------------------------------
 
 Alpha MOs
 -- Occupied --
-19.178 -19.173 -19.120 -19.116 -10.312 -10.308 -10.233 -10.227
-10.205 -10.203 -10.201 -10.200 -10.187 -10.185 -10.176 -10.168
 -1.121  -1.114  -1.032  -1.028  -0.885  -0.808  -0.792  -0.748
 -0.732  -0.726  -0.674  -0.648  -0.620  -0.576  -0.568  -0.531
 -0.519  -0.513  -0.489  -0.488  -0.480  -0.477  -0.469  -0.441
 -0.436  -0.428  -0.423  -0.415  -0.412  -0.405  -0.396  -0.387
 -0.380  -0.372  -0.360  -0.358  -0.357  -0.320  -0.312  -0.298
 -0.287  -0.265  -0.253
 -- Virtual --
 -0.055  -0.033  -0.012  -0.004  -0.000   0.007   0.012   0.016
  0.022   0.025   0.033   0.035   0.038   0.039   0.046   0.053
  0.055   0.058   0.067   0.070   0.076   0.081   0.090   0.091
  0.096   0.098   0.103   0.108   0.111   0.115   0.118   0.120
  0.123   0.126   0.131   0.135   0.137   0.141   0.142   0.144
  0.147   0.148   0.153   0.154   0.159   0.162   0.167   0.168
  0.170   0.174   0.176   0.187   0.188   0.194   0.196   0.199
  0.202   0.205   0.208   0.211   0.219   0.225   0.226   0.235
  0.240   0.244   0.247   0.252   0.258   0.262   0.267   0.271
  0.281   0.285   0.288   0.292   0.297   0.302   0.305   0.311
  0.314   0.319   0.322   0.326   0.332   0.341   0.343   0.351
  0.352   0.356   0.361   0.368   0.373   0.376   0.385   0.390
  0.395   0.398   0.404   0.407   0.415   0.424   0.430   0.435
  0.458   0.458   0.478   0.482   0.497   0.504   0.515   0.518
  0.522   0.530   0.549   0.554   0.563   0.567   0.570   0.581
  0.588   0.592   0.597   0.612   0.622   0.629   0.634   0.639
  0.648   0.657   0.658   0.662   0.665   0.670   0.674   0.682
  0.686   0.693   0.695   0.700   0.705   0.716   0.729   0.740
  0.741   0.749   0.756   0.766   0.769   0.786   0.792   0.809
  0.811   0.840   0.854   0.863   0.871   0.887   0.898   0.919
  0.938   0.943   0.962   0.967   0.983   0.984   1.017   1.028
  1.040   1.043   1.058   1.071   1.081   1.086   1.096   1.115
  1.146   1.170   1.179   1.196   1.210   1.223   1.231   1.246
  1.255   1.278   1.295   1.301   1.327   1.331   1.345   1.358
  1.366   1.375   1.386   1.405   1.408   1.422   1.430   1.440
  1.454   1.458   1.476   1.487   1.495   1.503   1.525   1.531
  1.537   1.553   1.560   1.566   1.570   1.587   1.594   1.596
  1.605   1.611   1.621   1.631   1.641   1.650   1.666   1.686
  1.697   1.708   1.718   1.721   1.738   1.742   1.759   1.773
  1.778   1.783   1.792   1.821   1.827   1.833   1.844   1.867
  1.880   1.888   1.891   1.922   1.951   1.962   1.975   1.985
  2.014   2.016   2.023   2.051   2.085   2.092   2.103   2.123
  2.123   2.133   2.141   2.164   2.179   2.186   2.207   2.235
  2.251   2.300   2.315   2.329   2.332   2.408   2.417   2.450
  2.453   2.473   2.478   2.488   2.501   2.512   2.520   2.529
  2.542   2.557   2.570   2.579   2.594   2.596   2.608   2.611
  2.628   2.645   2.661   2.667   2.686   2.698   2.728   2.739
  2.758   2.763   2.782   2.800   2.820   2.834   2.846   2.850
  2.872   2.885   2.894   2.907   2.917   2.934   2.954   2.972
  3.000   3.023   3.038   3.051   3.052   3.076   3.108   3.110
  3.138   3.171   3.180   3.205   3.228   3.242   3.253   3.270
  3.295   3.311   3.375   3.394   3.436   3.444   3.529   3.591
  3.593   3.618   3.665   3.717   3.763   3.777   3.790   3.796
  3.797   3.817   3.850   3.859   3.885   3.948   4.049   4.055
  4.078   4.127   4.138   4.234   4.313   4.339   4.390   4.863
  5.065   5.119   5.123   5.166   5.237   5.255   5.392   5.406
  5.614   5.629   5.863   5.882  23.542  23.848  23.865  23.907
 23.924  23.937  23.943  23.951  23.999  24.063  24.072  24.168
 49.890  49.903  50.013  50.037
 --------------------------------------------------------------
 
          Ground-State Mulliken Net Atomic Charges

     Atom                 Charge (a.u.)
  ----------------------------------------
      1 C                     0.448941
      2 C                     0.551214
      3 C                    -0.915440
      4 C                    -0.460766
      5 O                     0.039976
      6 O                    -0.127185
      7 O                    -0.007892
      8 O                    -0.194718
      9 C                    -0.224376
     10 C                    -0.211042
     11 C                     0.613658
     12 C                    -0.547461
     13 C                    -0.657031
     14 C                     0.515102
     15 H                     0.194907
     16 H                     0.184873
     17 H                     0.125842
     18 H                     0.174779
     19 H                     0.150437
     20 H                     0.158714
     21 H                     0.158241
     22 H                     0.132490
     23 C                    -0.564129
     24 C                    -0.577620
     25 H                     0.176158
     26 H                     0.150759
     27 H                     0.193452
     28 H                     0.204066
     29 H                     0.174898
     30 H                     0.139153
  ----------------------------------------
  Sum of atomic charges =     0.000000

 -----------------------------------------------------------------
                    Cartesian Multipole Moments
 -----------------------------------------------------------------
    Charge (ESU x 10^10)
                 0.0000
    Dipole Moment (Debye)
         X       1.6628      Y      -1.3186      Z       2.4873
       Tot       3.2695
    Quadrupole Moments (Debye-Ang)
        XX     -83.5446     XY       5.5215     YY     -83.4199
        XZ      -0.1493     YZ       5.8115     ZZ    -101.8845
    Octopole Moments (Debye-Ang^2)
       XXX      46.9423    XXY      -4.8253    XYY      16.8813
       YYY      24.7972    XXZ      12.8446    XYZ       0.5922
       YYZ      10.5721    XZZ       6.5488    YZZ       6.4463
       ZZZ      -5.6038
    Hexadecapole Moments (Debye-Ang^3)
      XXXX   -2109.1984   XXXY      37.7142   XXYY    -733.9739
      XYYY      25.2131   YYYY   -1871.4195   XXXZ      13.0481
      XXYZ      20.2958   XYYZ     -17.1012   YYYZ      27.3333
      XXZZ    -441.3813   XYZZ     -15.3188   YYZZ    -407.5574
      XZZZ      11.9388   YZZZ       3.3691   ZZZZ    -279.5519
 -----------------------------------------------------------------
 Calculating analytic gradient of the SCF energy
 Gradient of SCF Energy
            1           2           3           4           5           6
    1  -0.0000559   0.0000502   0.0000455  -0.0000354  -0.0000296  -0.0000205
    2   0.0000219  -0.0000357   0.0000134   0.0000361  -0.0000195   0.0000004
    3   0.0000805  -0.0000537  -0.0000783   0.0000272  -0.0000030   0.0000228
            7           8           9          10          11          12
    1   0.0000502  -0.0000093   0.0000201   0.0000342   0.0000339  -0.0000132
    2  -0.0000376  -0.0000110   0.0000167  -0.0000108   0.0000020   0.0000032
    3  -0.0000545   0.0000110   0.0000606   0.0000382  -0.0000562   0.0000510
           13          14          15          16          17          18
    1   0.0000107  -0.0000237  -0.0000075  -0.0000083  -0.0000028  -0.0000143
    2  -0.0000184   0.0000367   0.0000046   0.0000203  -0.0000047   0.0000033
    3   0.0000110   0.0000074  -0.0000086  -0.0000295  -0.0000031  -0.0000333
           19          20          21          22          23          24
    1  -0.0000203  -0.0000066  -0.0000012   0.0000071  -0.0000157  -0.0000336
    2  -0.0000032   0.0000052   0.0000096  -0.0000052  -0.0000638  -0.0000354
    3   0.0000050  -0.0000201  -0.0000326   0.0000014   0.0000450  -0.0000116
           25          26          27          28          29          30
    1   0.0000235   0.0000001   0.0000020  -0.0000034   0.0000118   0.0000120
    2   0.0000318   0.0000110  -0.0000061   0.0000100   0.0000226   0.0000029
    3   0.0000236  -0.0000263   0.0000051   0.0000085  -0.0000099   0.0000222
 Max gradient component =       8.051E-05
 RMS gradient           =       2.849E-05
 Gradient time:  CPU 271.36 s  wall 20.76 s
 Geometry Optimization Parameters
   NAtoms,    NIC,     NZ,  NCons,   NDum,   NFix, NCnnct, MaxDiis
       30     194       0       0       0       0       0       0


** GEOMETRY OPTIMIZATION IN DELOCALIZED INTERNAL COORDINATES **
   Searching for a Minimum

   Optimization Cycle:   1

                       Coordinates (Angstroms)
     ATOM                X               Y               Z
      1  C         0.2258379000   -0.7115770000   -0.0651258600
      2  C        -0.9986567100   -0.0214476600   -0.0062222800
      3  C         1.4890320500    0.0515707200   -0.3373847600
      4  C        -1.0263716600    1.4705125500   -0.1152733200
      5  O         2.3985773100   -0.1223214400    0.6385897400
      6  O         1.6835031000    0.7175241800   -1.3257648600
      7  O        -0.0763087700    2.0393800400    0.6571030400
      8  O        -1.8056419500    2.1021004000   -0.7866338600
      9  C         0.0860307800    3.4613718400    0.5090363400
     10  C         3.6548632200    0.5553686100    0.4500361100
     11  C         0.2698299600   -2.1131385400    0.0086577700
     12  C        -0.9405045100   -2.7909209700    0.1633217000
     13  C        -2.1488961500   -2.1105339200    0.2384572000
     14  C        -2.2117949600   -0.7191461300    0.1446229500
     15  H         0.4064922400    3.6936001600   -0.5079056800
     16  H         4.1450590200    0.2056188700   -0.4599167600
     17  H        -3.0689540100   -2.6713870400    0.3648150200
     18  H        -0.8499126600    3.9787746500    0.7227014800
     19  H         0.8531868600    3.7411230400    1.2276144200
     20  H         4.2501062900    0.3113809200    1.3269525200
     21  H         3.4952328200    1.6321893000    0.3796661800
     22  H        -0.9354968700   -3.8745732600    0.2182813900
     23  C        -3.5542271700   -0.0308819300    0.2147964500
     24  C         1.5604698000   -2.8907987200   -0.0979211500
     25  H         2.1757487900   -2.5405289500   -0.9307220800
     26  H         1.3540070500   -3.9504883100   -0.2583138400
     27  H         2.1581692700   -2.7910482000    0.8114750600
     28  H        -3.8306520400    0.3887658800   -0.7546549300
     29  H        -3.5528573100    0.7982887500    0.9261026900
     30  H        -4.3247566900   -0.7410515900    0.5206411600
   Point Group: c1    Number of degrees of freedom:    84


   Energy is   -766.875075554


 Attempting to Generate Delocalized Internal Coordinates

 84 Hessian modes will be used to form the next step
  Hessian Eigenvalues:
     0.007779    0.007827    0.009083    0.009682    0.010378    0.010504
     0.013673    0.013784    0.015815    0.016645    0.018013    0.018285
     0.021594    0.022245    0.022245    0.022871    0.023243    0.023287
     0.023519    0.071772    0.071786    0.072685    0.072899    0.101395
     0.101586    0.105943    0.106203    0.159993    0.159996    0.160000
     0.160000    0.160000    0.160000    0.160000    0.160000    0.160000
     0.160000    0.160000    0.160000    0.160000    0.160000    0.224675
     0.244761    0.248778    0.249676    0.249944    0.249952    0.249974
     0.249991    0.249996    0.250000    0.250000    0.250000    0.250000
     0.312918    0.313286    0.323013    0.327796    0.344596    0.344919
     0.345292    0.345885    0.346280    0.346439    0.346702    0.346789
     0.347134    0.347466    0.350770    0.350940    0.353902    0.354076
     0.396107    0.397412    0.414045    0.417873    0.446043    0.456522
     0.458619    0.470208    0.549981    0.560169    1.011129    1.013748

 Minimum Search - Taking Simple RFO Step
 Searching for Lamda that Minimizes Along All modes
 Value Taken    Lamda =  -0.00000128
 Step Taken.  Stepsize is  0.011468

                             Maximum     Tolerance    Cnvgd?
         Gradient           0.000062      0.000001      NO
         Displacement       0.007570      0.000001      NO
         Energy change     *********      0.000000      NO


 New Cartesian Coordinates Obtained by Inverse Iteration

 Displacement from previous Coordinates is:  0.017288
 Adding empirical dispersion correction 
 ----------------------------------------------------------------
 Doing -D3(op) with
 s6 =   1.00000
 s8 =   0.78311
 a1 =   0.30000
 a2 =   4.25000
 n  =  10.00000
 -D3 energy without 3body term =     -0.0331853604 hartrees
 ----------------------------------------------------------------
             Standard Nuclear Orientation (Angstroms)
    I     Atom           X                Y                Z
 ----------------------------------------------------------------
    1      C       0.2256973492    -0.7113018148    -0.0648764016
    2      C      -0.9988874152    -0.0212893167    -0.0054963604
    3      C       1.4888069497     0.0520499979    -0.3367528083
    4      C      -1.0267581838     1.4706521073    -0.1145226936
    5      O       2.3983025525    -0.1218617782     0.6392673049
    6      O       1.6838326699     0.7171410332    -1.3256207565
    7      O      -0.0768370264     2.0396846748     0.6579054053
    8      O      -1.8055361593     2.1021480204    -0.7865451381
    9      C       0.0861221351     3.4614846302     0.5088953150
   10      C       3.6549586648     0.5549675137     0.4502914254
   11      C       0.2698793083    -2.1128466791     0.0089585766
   12      C      -0.9403657561    -2.7908142018     0.1633712565
   13      C      -2.1488711903    -2.1106003820     0.2383470620
   14      C      -2.2119425958    -0.7192210613     0.1447616861
   15      H       0.4041296948     3.6931342351    -0.5089368911
   16      H       4.1449994242     0.2043154991    -0.4593875667
   17      H      -3.0688555563    -2.6715943746     0.3645581707
   18      H      -0.8488170076     3.9796529199     0.7250417522
   19      H       0.8554465644     3.7408922820     1.2253099542
   20      H       4.2500592279     0.3110719665     1.3273515880
   21      H       3.4960144409     1.6318465965     0.3794604507
   22      H      -0.9352464921    -3.8744681154     0.2181589456
   23      C      -3.5545205895    -0.0311426948     0.2143403333
   24      C       1.5606142777    -2.8903050094    -0.0981971287
   25      H       2.1739326149    -2.5421519941    -0.9333277750
   26      H       1.3541690020    -3.9504950845    -0.2553356959
   27      H       2.1601759274    -2.7880004199     0.8096735607
   28      H      -3.8299367636     0.3897051624    -0.7548636153
   29      H      -3.5541430448     0.7969366349     0.9269051780
   30      H      -4.3253080231    -0.7418640971     0.5182967059
 ----------------------------------------------------------------
 Nuclear Repulsion Energy =  1141.5193029050 hartrees
 There are       59 alpha and       59 beta electrons
 Applying Cartesian multipole field
    Component          Value
    ---------          -----
     (2,0,0)        1.00000E-11
     (0,2,0)        2.00000E-11
     (0,0,2)       -3.00000E-11
 Nucleus-field energy     =     0.0000000424 hartrees
 Requested basis set is 6-311++G(d,p)
 There are 166 shells and 450 basis functions
 A cutoff of  1.0D-11 yielded  10970 shell pairs
 There are     83022 function pairs (     88706 Cartesian)
 Smallest overlap matrix eigenvalue = 4.18E-08

 Q-Chem warning in module /fs/scratch/osu6415/qchem-kaunlao-vdw/stvman/mkSTV.C, line 281:

 Overlap eigenvalue is smaller than square root of threshold

 Linear dependence detected in AO basis
 Number of orthogonalized atomic orbitals = 447
 Maximum deviation from orthogonality = 4.752E-10
 Guess MOs from SCF MO coefficient file
 Reading MOs from coefficient file
 Reading MOs from coefficient file
 A restricted hybrid HF-DFT SCF calculation will be
 performed using Pulay DIIS extrapolation
 Exchange:     0.2000 Hartree-Fock + 0.0800 Slater + 0.7200 B88
 Correlation:  0.1900 VWN1RPA + 0.8100 LYP
 Using SG-1 standard quadrature grid
 Dispersion:   Grimme D3
 SCF converges when DIIS error is below 1.0E-08
 Geometry optimization detected.  Setting ReadMinima to 0
 Setting SaveMinima to 0
 using 20 threads for integral computing
 -------------------------------------------------------
 OpenMP Integral computing Module                
 Release: version 1.0, May 2013, Q-Chem Inc. Pittsburgh 
 -------------------------------------------------------
 -------------------------------------------------------
 OpenMP BLAS3 based DFT computing Module                
 Release: version 1.0, May 2013, Q-Chem Inc. Pittsburgh 
 -------------------------------------------------------
 ---------------------------------------
  Cycle       Energy         DIIS Error
 ---------------------------------------
    1    -766.8750938365      1.94E-05
    2    -766.8750757865      1.45E-06
    3    -766.8750758443      1.21E-06
    4    -766.8750758712      6.11E-07
    5    -766.8750758783      2.73E-07
    6    -766.8750758797      8.13E-08
    7    -766.8750758793      3.42E-08
    8    -766.8750758794      8.32E-09 Convergence criterion met
 ---------------------------------------
 SCF time:  CPU 434.57 s  wall 24.28 s
 SCF   energy in the final basis set = -766.87507588
 Total energy in the final basis set = -766.87507588
 
 --------------------------------------------------------------
 
                    Orbital Energies (a.u.)
 --------------------------------------------------------------
 
 Alpha MOs
 -- Occupied --
-19.178 -19.173 -19.120 -19.116 -10.312 -10.308 -10.233 -10.227
-10.205 -10.204 -10.201 -10.200 -10.187 -10.185 -10.176 -10.168
 -1.121  -1.114  -1.032  -1.028  -0.885  -0.808  -0.792  -0.748
 -0.732  -0.726  -0.674  -0.648  -0.620  -0.576  -0.568  -0.531
 -0.519  -0.513  -0.489  -0.488  -0.480  -0.477  -0.469  -0.441
 -0.436  -0.428  -0.423  -0.415  -0.412  -0.405  -0.396  -0.387
 -0.380  -0.372  -0.360  -0.358  -0.357  -0.320  -0.312  -0.298
 -0.287  -0.265  -0.253
 -- Virtual --
 -0.055  -0.033  -0.012  -0.004  -0.000   0.007   0.012   0.016
  0.022   0.025   0.033   0.035   0.038   0.039   0.046   0.053
  0.055   0.058   0.067   0.070   0.076   0.081   0.090   0.091
  0.096   0.098   0.103   0.108   0.111   0.115   0.118   0.120
  0.123   0.126   0.131   0.135   0.137   0.141   0.142   0.144
  0.147   0.148   0.153   0.154   0.159   0.162   0.167   0.168
  0.170   0.174   0.176   0.187   0.188   0.194   0.196   0.199
  0.202   0.205   0.208   0.211   0.219   0.225   0.226   0.235
  0.240   0.244   0.247   0.252   0.257   0.262   0.267   0.271
  0.281   0.284   0.288   0.292   0.297   0.302   0.305   0.311
  0.314   0.319   0.322   0.326   0.332   0.341   0.343   0.351
  0.351   0.356   0.361   0.368   0.373   0.376   0.385   0.390
  0.395   0.399   0.404   0.407   0.415   0.424   0.430   0.435
  0.458   0.458   0.478   0.482   0.497   0.504   0.515   0.518
  0.522   0.530   0.549   0.554   0.563   0.567   0.570   0.581
  0.588   0.592   0.597   0.612   0.622   0.629   0.634   0.639
  0.648   0.657   0.658   0.662   0.665   0.670   0.674   0.681
  0.686   0.693   0.695   0.700   0.705   0.716   0.729   0.740
  0.741   0.749   0.756   0.766   0.769   0.786   0.792   0.809
  0.811   0.840   0.854   0.863   0.871   0.888   0.898   0.919
  0.938   0.943   0.962   0.967   0.983   0.984   1.017   1.028
  1.039   1.043   1.058   1.071   1.081   1.087   1.096   1.115
  1.147   1.170   1.179   1.196   1.210   1.223   1.231   1.245
  1.255   1.278   1.295   1.301   1.327   1.331   1.345   1.358
  1.366   1.375   1.386   1.405   1.408   1.422   1.430   1.440
  1.454   1.458   1.476   1.487   1.495   1.503   1.525   1.531
  1.537   1.553   1.560   1.566   1.570   1.586   1.594   1.596
  1.605   1.611   1.621   1.631   1.641   1.650   1.666   1.686
  1.697   1.708   1.718   1.721   1.738   1.743   1.759   1.773
  1.778   1.783   1.792   1.821   1.827   1.834   1.844   1.867
  1.880   1.888   1.891   1.922   1.951   1.962   1.975   1.985
  2.015   2.016   2.023   2.051   2.085   2.092   2.103   2.123
  2.123   2.133   2.141   2.164   2.178   2.186   2.207   2.235
  2.251   2.300   2.315   2.329   2.332   2.408   2.417   2.450
  2.453   2.473   2.478   2.488   2.501   2.512   2.520   2.529
  2.542   2.557   2.570   2.579   2.594   2.596   2.608   2.611
  2.628   2.645   2.661   2.667   2.686   2.698   2.728   2.739
  2.758   2.763   2.782   2.800   2.820   2.834   2.846   2.850
  2.872   2.885   2.894   2.907   2.917   2.934   2.954   2.972
  3.000   3.024   3.038   3.051   3.053   3.076   3.109   3.110
  3.138   3.171   3.180   3.204   3.228   3.242   3.253   3.270
  3.295   3.311   3.375   3.394   3.436   3.444   3.529   3.591
  3.593   3.618   3.665   3.717   3.763   3.777   3.790   3.796
  3.797   3.817   3.850   3.859   3.885   3.947   4.049   4.055
  4.078   4.127   4.138   4.234   4.313   4.339   4.390   4.864
  5.065   5.119   5.123   5.166   5.237   5.255   5.392   5.406
  5.614   5.628   5.863   5.882  23.542  23.848  23.865  23.907
 23.924  23.937  23.943  23.951  23.999  24.063  24.072  24.168
 49.890  49.903  50.013  50.037
 --------------------------------------------------------------
 
          Ground-State Mulliken Net Atomic Charges

     Atom                 Charge (a.u.)
  ----------------------------------------
      1 C                     0.451834
      2 C                     0.554220
      3 C                    -0.915516
      4 C                    -0.461296
      5 O                     0.040044
      6 O                    -0.127046
      7 O                    -0.007913
      8 O                    -0.194700
      9 C                    -0.224187
     10 C                    -0.211100
     11 C                     0.612516
     12 C                    -0.548128
     13 C                    -0.656645
     14 C                     0.511430
     15 H                     0.194966
     16 H                     0.184906
     17 H                     0.125812
     18 H                     0.174780
     19 H                     0.150391
     20 H                     0.158736
     21 H                     0.158216
     22 H                     0.132299
     23 C                    -0.564493
     24 C                    -0.577548
     25 H                     0.176189
     26 H                     0.150958
     27 H                     0.193213
     28 H                     0.204023
     29 H                     0.174828
     30 H                     0.139212
  ----------------------------------------
  Sum of atomic charges =     0.000000

 -----------------------------------------------------------------
                    Cartesian Multipole Moments
 -----------------------------------------------------------------
    Charge (ESU x 10^10)
                 0.0000
    Dipole Moment (Debye)
         X       1.6625      Y      -1.3181      Z       2.4860
       Tot       3.2683
    Quadrupole Moments (Debye-Ang)
        XX     -83.5423     XY       5.5204     YY     -83.4196
        XZ      -0.1474     YZ       5.8109     ZZ    -101.8885
    Octopole Moments (Debye-Ang^2)
       XXX      46.9600    XXY      -4.8378    XYY      16.8881
       YYY      24.7854    XXZ      12.8343    XYZ       0.5898
       YYZ      10.5467    XZZ       6.5465    YZZ       6.4392
       ZZZ      -5.6738
    Hexadecapole Moments (Debye-Ang^3)
      XXXX   -2109.3338   XXXY      37.6870   XXYY    -733.9617
      XYYY      25.2404   YYYY   -1871.2589   XXXZ      13.0489
      XXYZ      20.3105   XYYZ     -17.1310   YYYZ      27.2609
      XXZZ    -441.4231   XYZZ     -15.3454   YYZZ    -407.5587
      XZZZ      11.8567   YZZZ       3.3059   ZZZZ    -279.5759
 -----------------------------------------------------------------
 Calculating analytic gradient of the SCF energy
 Gradient of SCF Energy
            1           2           3           4           5           6
    1   0.0000060   0.0000313  -0.0000523  -0.0000820   0.0000091   0.0000202
    2  -0.0000609  -0.0000004   0.0001358   0.0000152  -0.0000465  -0.0000530
    3  -0.0000517  -0.0000074   0.0000309   0.0000912  -0.0000245  -0.0000164
            7           8           9          10          11          12
    1   0.0000411   0.0000152  -0.0000167   0.0000126   0.0000129  -0.0000050
    2   0.0000019  -0.0000082   0.0000074  -0.0000017   0.0000161  -0.0000030
    3  -0.0000562  -0.0000192   0.0000454  -0.0000037   0.0000102   0.0000453
           13          14          15          16          17          18
    1   0.0000118  -0.0000014   0.0000064  -0.0000005   0.0000019  -0.0000013
    2  -0.0000163   0.0000273  -0.0000054   0.0000093  -0.0000023   0.0000004
    3  -0.0000053   0.0000088  -0.0000080  -0.0000161   0.0000080  -0.0000164
           19          20          21          22          23          24
    1  -0.0000068  -0.0000023  -0.0000038   0.0000027  -0.0000031  -0.0000122
    2  -0.0000016   0.0000016   0.0000050  -0.0000035  -0.0000203  -0.0000021
    3   0.0000014  -0.0000163  -0.0000162  -0.0000033   0.0000342  -0.0000441
           25          26          27          28          29          30
    1   0.0000126   0.0000014  -0.0000003  -0.0000115   0.0000066   0.0000075
    2   0.0000075   0.0000047  -0.0000083  -0.0000020   0.0000054  -0.0000022
    3   0.0000266  -0.0000228   0.0000110   0.0000045  -0.0000081   0.0000182
 Max gradient component =       1.358E-04
 RMS gradient           =       2.802E-05
 Gradient time:  CPU 269.21 s  wall 20.83 s
 Geometry Optimization Parameters
   NAtoms,    NIC,     NZ,  NCons,   NDum,   NFix, NCnnct, MaxDiis
       30     194       0       0       0       0       0       0

 Cartesian Hessian Update
 Hessian Updated using BFGS Update


** GEOMETRY OPTIMIZATION IN DELOCALIZED INTERNAL COORDINATES **
   Searching for a Minimum

   Optimization Cycle:   2

                       Coordinates (Angstroms)
     ATOM                X               Y               Z
      1  C         0.2256973492   -0.7113018148   -0.0648764016
      2  C        -0.9988874152   -0.0212893167   -0.0054963604
      3  C         1.4888069497    0.0520499979   -0.3367528083
      4  C        -1.0267581838    1.4706521073   -0.1145226936
      5  O         2.3983025525   -0.1218617782    0.6392673049
      6  O         1.6838326699    0.7171410332   -1.3256207565
      7  O        -0.0768370264    2.0396846748    0.6579054053
      8  O        -1.8055361593    2.1021480204   -0.7865451381
      9  C         0.0861221351    3.4614846302    0.5088953150
     10  C         3.6549586648    0.5549675137    0.4502914254
     11  C         0.2698793083   -2.1128466791    0.0089585766
     12  C        -0.9403657561   -2.7908142018    0.1633712565
     13  C        -2.1488711903   -2.1106003820    0.2383470620
     14  C        -2.2119425958   -0.7192210613    0.1447616861
     15  H         0.4041296948    3.6931342351   -0.5089368911
     16  H         4.1449994242    0.2043154991   -0.4593875667
     17  H        -3.0688555563   -2.6715943746    0.3645581707
     18  H        -0.8488170076    3.9796529199    0.7250417522
     19  H         0.8554465644    3.7408922820    1.2253099542
     20  H         4.2500592279    0.3110719665    1.3273515880
     21  H         3.4960144409    1.6318465965    0.3794604507
     22  H        -0.9352464921   -3.8744681154    0.2181589456
     23  C        -3.5545205895   -0.0311426948    0.2143403333
     24  C         1.5606142777   -2.8903050094   -0.0981971287
     25  H         2.1739326149   -2.5421519941   -0.9333277750
     26  H         1.3541690020   -3.9504950845   -0.2553356959
     27  H         2.1601759274   -2.7880004199    0.8096735607
     28  H        -3.8299367636    0.3897051624   -0.7548636153
     29  H        -3.5541430448    0.7969366349    0.9269051780
     30  H        -4.3253080231   -0.7418640971    0.5182967059
   Point Group: c1    Number of degrees of freedom:    84


   Energy is   -766.875075879

 Hessian Updated using BFGS Update

 72 Hessian modes will be used to form the next step
  Hessian Eigenvalues:
     0.001706    0.007821    0.009048    0.009712    0.009770    0.010378
     0.013762    0.015656    0.016416    0.017660    0.018238    0.021086
     0.022011    0.022243    0.022823    0.023216    0.023265    0.023487
     0.038173    0.071674    0.071781    0.072719    0.073422    0.101503
     0.101991    0.105941    0.106768    0.159680    0.159993    0.159997
     0.161287    0.224830    0.244854    0.248207    0.248824    0.249689
     0.249952    0.249956    0.249977    0.249995    0.249999    0.253821
     0.312964    0.313307    0.323059    0.327712    0.344821    0.344873
     0.345573    0.345818    0.346287    0.346466    0.346667    0.346815
     0.347139    0.347631    0.350782    0.350912    0.353895    0.354087
     0.396095    0.397776    0.415270    0.417982    0.448308    0.456527
     0.458602    0.470021    0.549989    0.560169    1.010734    1.013740

 Minimum Search - Taking Simple RFO Step
 Searching for Lamda that Minimizes Along All modes
 Value Taken    Lamda =  -0.00000415
 Step Taken.  Stepsize is  0.047607

                             Maximum     Tolerance    Cnvgd?
         Gradient           0.000081      0.000001      NO
         Displacement       0.031944      0.000001      NO
         Energy change     -0.000000      0.000000      NO


 New Cartesian Coordinates Obtained by Inverse Iteration

 Displacement from previous Coordinates is:  0.080537
 Adding empirical dispersion correction 
 ----------------------------------------------------------------
 Doing -D3(op) with
 s6 =   1.00000
 s8 =   0.78311
 a1 =   0.30000
 a2 =   4.25000
 n  =  10.00000
 -D3 energy without 3body term =     -0.0331906080 hartrees
 ----------------------------------------------------------------
             Standard Nuclear Orientation (Angstroms)
    I     Atom           X                Y                Z
 ----------------------------------------------------------------
    1      C       0.2258418919    -0.7126998590    -0.0652221302
    2      C      -0.9984157582    -0.0220846904    -0.0041224658
    3      C       1.4891163361     0.0502558431    -0.3367748037
    4      C      -1.0252788142     1.4697300776    -0.1140206341
    5      O       2.3965141241    -0.1186761358     0.6420781643
    6      O       1.6839059453     0.7162183308    -1.3251693627
    7      O      -0.0754068548     2.0387368038     0.6584757348
    8      O      -1.8043712739     2.1015043442    -0.7854333933
    9      C       0.0890707782     3.4601009135     0.5075287166
   10      C       3.6521928147     0.5600604547     0.4541271048
   11      C       0.2694504304    -2.1142407655     0.0087144175
   12      C      -0.9410128793    -2.7917111375     0.1631407990
   13      C      -2.1492616415    -2.1109964276     0.2384421209
   14      C      -2.2117288449    -0.7196312150     0.1453454713
   15      H       0.3955982603     3.6912844831    -0.5138658312
   16      H       4.1455020437     0.2070229146    -0.4528255884
   17      H      -3.0694030972    -2.6716234815     0.3649667328
   18      H      -0.8418379119     3.9803923931     0.7355602018
   19      H       0.8677209233     3.7375486704     1.2146529303
   20      H       4.2454799257     0.3201501904     1.3335905853
   21      H       3.4914615508     1.6363889982     0.3797429405
   22      H      -0.9364171862    -3.8753546370     0.2176797632
   23      C      -3.5540598150    -0.0308400161     0.2138623354
   24      C       1.5597782456    -2.8921071810    -0.1011395611
   25      H       2.1645747569    -2.5536551789    -0.9464670620
   26      H       1.3524964201    -3.9541789706    -0.2440263419
   27      H       2.1677932099    -2.7791616271     0.7997401609
   28      H      -3.8257081261     0.3954283741    -0.7539650254
   29      H      -3.5560384167     0.7927364645     0.9316159645
   30      H      -4.3264420368    -0.7428716831     0.5107998960
 ----------------------------------------------------------------
 Nuclear Repulsion Energy =  1141.5848789069 hartrees
 There are       59 alpha and       59 beta electrons
 Applying Cartesian multipole field
    Component          Value
    ---------          -----
     (2,0,0)        1.00000E-11
     (0,2,0)        2.00000E-11
     (0,0,2)       -3.00000E-11
 Nucleus-field energy     =     0.0000000424 hartrees
 Requested basis set is 6-311++G(d,p)
 There are 166 shells and 450 basis functions
 A cutoff of  1.0D-11 yielded  10971 shell pairs
 There are     83023 function pairs (     88707 Cartesian)
 Smallest overlap matrix eigenvalue = 4.15E-08

 Q-Chem warning in module /fs/scratch/osu6415/qchem-kaunlao-vdw/stvman/mkSTV.C, line 281:

 Overlap eigenvalue is smaller than square root of threshold

 Linear dependence detected in AO basis
 Number of orthogonalized atomic orbitals = 447
 Maximum deviation from orthogonality = 9.406E-10
 Guess MOs from SCF MO coefficient file
 Reading MOs from coefficient file
 Reading MOs from coefficient file
 A restricted hybrid HF-DFT SCF calculation will be
 performed using Pulay DIIS extrapolation
 Exchange:     0.2000 Hartree-Fock + 0.0800 Slater + 0.7200 B88
 Correlation:  0.1900 VWN1RPA + 0.8100 LYP
 Using SG-1 standard quadrature grid
 Dispersion:   Grimme D3
 SCF converges when DIIS error is below 1.0E-08
 Geometry optimization detected.  Setting ReadMinima to 0
 Setting SaveMinima to 0
 using 20 threads for integral computing
 -------------------------------------------------------
 OpenMP Integral computing Module                
 Release: version 1.0, May 2013, Q-Chem Inc. Pittsburgh 
 -------------------------------------------------------
 -------------------------------------------------------
 OpenMP BLAS3 based DFT computing Module                
 Release: version 1.0, May 2013, Q-Chem Inc. Pittsburgh 
 -------------------------------------------------------
 ---------------------------------------
  Cycle       Energy         DIIS Error
 ---------------------------------------
    1    -766.8743544269      6.65E-05
    2    -766.8750738120      8.18E-06
    3    -766.8750711523      1.43E-05
    4    -766.8750760568      2.83E-06
    5    -766.8750761878      1.25E-06
    6    -766.8750762123      5.56E-07
    7    -766.8750762190      1.34E-07
    8    -766.8750762190      3.89E-08
    9    -766.8750762194      1.35E-08
   10    -766.8750762234      6.10E-09 Convergence criterion met
 ---------------------------------------
 SCF time:  CPU 547.21 s  wall 31.57 s
 SCF   energy in the final basis set = -766.87507622
 Total energy in the final basis set = -766.87507622
 
 --------------------------------------------------------------
 
                    Orbital Energies (a.u.)
 --------------------------------------------------------------
 
 Alpha MOs
 -- Occupied --
-19.178 -19.173 -19.120 -19.116 -10.312 -10.308 -10.233 -10.227
-10.205 -10.204 -10.201 -10.200 -10.187 -10.185 -10.176 -10.168
 -1.121  -1.114  -1.032  -1.028  -0.885  -0.808  -0.792  -0.748
 -0.733  -0.726  -0.674  -0.648  -0.620  -0.576  -0.568  -0.531
 -0.519  -0.513  -0.489  -0.488  -0.480  -0.477  -0.469  -0.441
 -0.436  -0.428  -0.423  -0.415  -0.412  -0.406  -0.396  -0.387
 -0.380  -0.372  -0.360  -0.358  -0.357  -0.320  -0.312  -0.298
 -0.287  -0.265  -0.253
 -- Virtual --
 -0.055  -0.033  -0.012  -0.004  -0.000   0.007   0.012   0.016
  0.022   0.025   0.033   0.035   0.038   0.039   0.046   0.053
  0.055   0.058   0.067   0.070   0.076   0.081   0.090   0.091
  0.096   0.098   0.103   0.108   0.111   0.115   0.118   0.120
  0.123   0.126   0.131   0.135   0.137   0.142   0.142   0.144
  0.147   0.148   0.153   0.154   0.159   0.162   0.167   0.169
  0.170   0.174   0.176   0.186   0.188   0.194   0.196   0.199
  0.202   0.205   0.208   0.211   0.219   0.225   0.226   0.235
  0.240   0.244   0.247   0.252   0.257   0.262   0.267   0.271
  0.281   0.284   0.288   0.292   0.297   0.302   0.305   0.311
  0.314   0.319   0.322   0.327   0.332   0.341   0.343   0.351
  0.351   0.356   0.361   0.368   0.373   0.376   0.385   0.390
  0.395   0.399   0.404   0.406   0.415   0.424   0.431   0.435
  0.458   0.458   0.477   0.482   0.497   0.504   0.515   0.518
  0.522   0.530   0.549   0.555   0.563   0.567   0.571   0.581
  0.588   0.592   0.597   0.612   0.622   0.629   0.634   0.639
  0.648   0.657   0.658   0.662   0.665   0.670   0.674   0.681
  0.686   0.693   0.696   0.700   0.705   0.716   0.729   0.740
  0.740   0.749   0.756   0.765   0.769   0.786   0.792   0.809
  0.810   0.840   0.855   0.863   0.872   0.888   0.898   0.920
  0.939   0.944   0.962   0.967   0.983   0.984   1.017   1.027
  1.039   1.043   1.058   1.072   1.081   1.087   1.096   1.114
  1.147   1.169   1.179   1.196   1.210   1.223   1.231   1.245
  1.255   1.279   1.295   1.301   1.327   1.331   1.345   1.358
  1.366   1.375   1.386   1.404   1.408   1.421   1.430   1.440
  1.454   1.458   1.477   1.487   1.495   1.503   1.524   1.531
  1.537   1.553   1.561   1.566   1.570   1.586   1.594   1.596
  1.605   1.611   1.622   1.631   1.642   1.650   1.666   1.686
  1.697   1.708   1.718   1.721   1.738   1.743   1.758   1.773
  1.778   1.783   1.793   1.820   1.827   1.834   1.844   1.867
  1.880   1.888   1.891   1.921   1.951   1.962   1.975   1.985
  2.015   2.016   2.023   2.051   2.085   2.092   2.104   2.122
  2.124   2.133   2.142   2.164   2.178   2.187   2.206   2.236
  2.251   2.300   2.315   2.328   2.332   2.409   2.416   2.450
  2.454   2.473   2.477   2.488   2.501   2.512   2.520   2.529
  2.542   2.556   2.570   2.579   2.594   2.596   2.607   2.611
  2.628   2.645   2.661   2.667   2.686   2.698   2.727   2.739
  2.757   2.764   2.783   2.799   2.820   2.834   2.846   2.850
  2.872   2.885   2.894   2.908   2.917   2.934   2.954   2.972
  2.999   3.024   3.038   3.051   3.053   3.076   3.110   3.110
  3.138   3.171   3.180   3.205   3.229   3.243   3.253   3.270
  3.295   3.311   3.375   3.394   3.436   3.444   3.529   3.591
  3.593   3.618   3.665   3.717   3.763   3.777   3.791   3.796
  3.798   3.816   3.850   3.859   3.885   3.947   4.049   4.056
  4.078   4.127   4.138   4.234   4.313   4.339   4.390   4.864
  5.065   5.119   5.122   5.166   5.237   5.255   5.392   5.406
  5.614   5.628   5.864   5.882  23.542  23.848  23.866  23.907
 23.924  23.937  23.943  23.951  23.999  24.063  24.072  24.168
 49.890  49.903  50.013  50.037
 --------------------------------------------------------------
 
          Ground-State Mulliken Net Atomic Charges

     Atom                 Charge (a.u.)
  ----------------------------------------
      1 C                     0.460180
      2 C                     0.567217
      3 C                    -0.914656
      4 C                    -0.461606
      5 O                     0.040922
      6 O                    -0.126424
      7 O                    -0.008032
      8 O                    -0.195002
      9 C                    -0.224252
     10 C                    -0.211274
     11 C                     0.607088
     12 C                    -0.549281
     13 C                    -0.657140
     14 C                     0.498570
     15 H                     0.195368
     16 H                     0.184937
     17 H                     0.125703
     18 H                     0.174739
     19 H                     0.150028
     20 H                     0.158940
     21 H                     0.158089
     22 H                     0.131553
     23 C                    -0.564987
     24 C                    -0.578692
     25 H                     0.176158
     26 H                     0.151668
     27 H                     0.192243
     28 H                     0.203908
     29 H                     0.174654
     30 H                     0.139379
  ----------------------------------------
  Sum of atomic charges =     0.000000

 -----------------------------------------------------------------
                    Cartesian Multipole Moments
 -----------------------------------------------------------------
    Charge (ESU x 10^10)
                 0.0000
    Dipole Moment (Debye)
         X       1.6641      Y      -1.3185      Z       2.4795
       Tot       3.2643
    Quadrupole Moments (Debye-Ang)
        XX     -83.5528     XY       5.5354     YY     -83.4185
        XZ      -0.1395     YZ       5.8086     ZZ    -101.8874
    Octopole Moments (Debye-Ang^2)
       XXX      46.8630    XXY      -4.7630    XYY      16.9360
       YYY      24.7759    XXZ      12.8523    XYZ       0.6319
       YYZ      10.4666    XZZ       6.5203    YZZ       6.4905
       ZZZ      -5.7968
    Hexadecapole Moments (Debye-Ang^3)
      XXXX   -2108.2572   XXXY      36.9696   XXYY    -733.6570
      XYYY      24.4882   YYYY   -1871.7991   XXXZ      13.0045
      XXYZ      20.3587   XYYZ     -17.2513   YYYZ      26.7094
      XXZZ    -441.1396   XYZZ     -15.7390   YYZZ    -407.7179
      XZZZ      11.5377   YZZZ       2.9606   ZZZZ    -279.7319
 -----------------------------------------------------------------
 Calculating analytic gradient of the SCF energy
 Gradient of SCF Energy
            1           2           3           4           5           6
    1   0.0000096  -0.0001972   0.0001300   0.0001613  -0.0000021  -0.0000738
    2   0.0001169   0.0000416  -0.0006149  -0.0000939   0.0002686   0.0002507
    3  -0.0002114   0.0002778  -0.0002141  -0.0001952   0.0001257   0.0000915
            7           8           9          10          11          12
    1  -0.0000477  -0.0000582  -0.0001191  -0.0000575   0.0000204   0.0000121
    2   0.0000717  -0.0000049  -0.0000030   0.0000317   0.0000625  -0.0000048
    3   0.0000566   0.0000747  -0.0000191  -0.0001253   0.0001600  -0.0000106
           13          14          15          16          17          18
    1  -0.0000056   0.0000745   0.0000398   0.0000031   0.0000145   0.0000422
    2   0.0000001  -0.0000278  -0.0000354  -0.0000385   0.0000042  -0.0000124
    3  -0.0000530   0.0000077  -0.0000047   0.0000181   0.0000440   0.0000434
           19          20          21          22          23          24
    1   0.0000363   0.0000157   0.0000080  -0.0000034   0.0000508   0.0000597
    2   0.0000054   0.0000002  -0.0000083   0.0000083   0.0001367   0.0000560
    3  -0.0000120   0.0000005   0.0000405  -0.0000079   0.0000039  -0.0001269
           25          26          27          28          29          30
    1  -0.0000351  -0.0000088  -0.0000093  -0.0000279  -0.0000172  -0.0000148
    2  -0.0000635  -0.0000205  -0.0000217  -0.0000447  -0.0000500  -0.0000105
    3   0.0000351  -0.0000095   0.0000098  -0.0000152   0.0000104   0.0000051
 Max gradient component =       6.149E-04
 RMS gradient           =       1.065E-04
 Gradient time:  CPU 271.21 s  wall 20.58 s
 Geometry Optimization Parameters
   NAtoms,    NIC,     NZ,  NCons,   NDum,   NFix, NCnnct, MaxDiis
       30     194       0       0       0       0       0       0

 Cartesian Hessian Update
 Hessian Updated using BFGS Update


** GEOMETRY OPTIMIZATION IN DELOCALIZED INTERNAL COORDINATES **
   Searching for a Minimum

   Optimization Cycle:   3

                       Coordinates (Angstroms)
     ATOM                X               Y               Z
      1  C         0.2258418919   -0.7126998590   -0.0652221302
      2  C        -0.9984157582   -0.0220846904   -0.0041224658
      3  C         1.4891163361    0.0502558431   -0.3367748037
      4  C        -1.0252788142    1.4697300776   -0.1140206341
      5  O         2.3965141241   -0.1186761358    0.6420781643
      6  O         1.6839059453    0.7162183308   -1.3251693627
      7  O        -0.0754068548    2.0387368038    0.6584757348
      8  O        -1.8043712739    2.1015043442   -0.7854333933
      9  C         0.0890707782    3.4601009135    0.5075287166
     10  C         3.6521928147    0.5600604547    0.4541271048
     11  C         0.2694504304   -2.1142407655    0.0087144175
     12  C        -0.9410128793   -2.7917111375    0.1631407990
     13  C        -2.1492616415   -2.1109964276    0.2384421209
     14  C        -2.2117288449   -0.7196312150    0.1453454713
     15  H         0.3955982603    3.6912844831   -0.5138658312
     16  H         4.1455020437    0.2070229146   -0.4528255884
     17  H        -3.0694030972   -2.6716234815    0.3649667328
     18  H        -0.8418379119    3.9803923931    0.7355602018
     19  H         0.8677209233    3.7375486704    1.2146529303
     20  H         4.2454799257    0.3201501904    1.3335905853
     21  H         3.4914615508    1.6363889982    0.3797429405
     22  H        -0.9364171862   -3.8753546370    0.2176797632
     23  C        -3.5540598150   -0.0308400161    0.2138623354
     24  C         1.5597782456   -2.8921071810   -0.1011395611
     25  H         2.1645747569   -2.5536551789   -0.9464670620
     26  H         1.3524964201   -3.9541789706   -0.2440263419
     27  H         2.1677932099   -2.7791616271    0.7997401609
     28  H        -3.8257081261    0.3954283741   -0.7539650254
     29  H        -3.5560384167    0.7927364645    0.9316159645
     30  H        -4.3264420368   -0.7428716831    0.5107998960
   Point Group: c1    Number of degrees of freedom:    84


   Energy is   -766.875076223

 Hessian Updated using BFGS Update

 74 Hessian modes will be used to form the next step
  Hessian Eigenvalues:
     0.001842    0.007824    0.009215    0.009755    0.009965    0.010379
     0.013959    0.015980    0.016873    0.018202    0.019438    0.021762
     0.022241    0.022690    0.023164    0.023263    0.023353    0.024473
     0.060091    0.071755    0.071889    0.072714    0.073616    0.101502
     0.102597    0.105945    0.106963    0.159603    0.159993    0.159997
     0.160386    0.161288    0.224996    0.244860    0.248054    0.249011
     0.249703    0.249953    0.249975    0.249994    0.249996    0.249999
     0.252589    0.259123    0.313036    0.313411    0.323234    0.328362
     0.344813    0.344928    0.345627    0.345800    0.346310    0.346550
     0.346654    0.346834    0.347168    0.347839    0.350829    0.351009
     0.353909    0.354100    0.396217    0.397969    0.415318    0.418738
     0.448694    0.456540    0.458593    0.470020    0.550006    0.560280
     1.011066    1.013742

 Minimum Search - Taking Simple RFO Step
 Searching for Lamda that Minimizes Along All modes
 Value Taken    Lamda =  -0.00000485
 Step Taken.  Stepsize is  0.013196

                             Maximum     Tolerance    Cnvgd?
         Gradient           0.000248      0.000001      NO
         Displacement       0.006050      0.000001      NO
         Energy change     -0.000000      0.000000      NO


 New Cartesian Coordinates Obtained by Inverse Iteration

 Displacement from previous Coordinates is:  0.039227
 Adding empirical dispersion correction 
 ----------------------------------------------------------------
 Doing -D3(op) with
 s6 =   1.00000
 s8 =   0.78311
 a1 =   0.30000
 a2 =   4.25000
 n  =  10.00000
 -D3 energy without 3body term =     -0.0331859780 hartrees
 ----------------------------------------------------------------
             Standard Nuclear Orientation (Angstroms)
    I     Atom           X                Y                Z
 ----------------------------------------------------------------
    1      C       0.2257140271    -0.7114070572    -0.0643551911
    2      C      -0.9988604844    -0.0213556420    -0.0051772986
    3      C       1.4889260037     0.0518210979    -0.3357817021
    4      C      -1.0262992331     1.4705233234    -0.1147886414
    5      O       2.3979751866    -0.1212956356     0.6407861647
    6      O       1.6843269117     0.7164076869    -1.3249569718
    7      O      -0.0769439913     2.0396718472     0.6582259376
    8      O      -1.8053567336     2.1021255697    -0.7864020616
    9      C       0.0860787640     3.4613948191     0.5086032147
   10      C       3.6547977355     0.5551064360     0.4517181538
   11      C       0.2697809423    -2.1129626238     0.0091506049
   12      C      -0.9404851903    -2.7909371626     0.1630116181
   13      C      -2.1490173814    -2.1106740082     0.2378718235
   14      C      -2.2119874865    -0.7193309782     0.1444266459
   15      H       0.3951631614     3.6937824533    -0.5117461492
   16      H       4.1452921759     0.2031816602    -0.4572093363
   17      H      -3.0690226341    -2.6716451202     0.3639688664
   18      H      -0.8463945658     3.9801486190     0.7338891730
   19      H       0.8620334454     3.7395972590     1.2183472276
   20      H       4.2494723621     0.3120652939     1.3293506946
   21      H       3.4961690994     1.6319329305     0.3797636378
   22      H      -0.9354123925    -3.8745741139     0.2178552696
   23      C      -3.5545100833    -0.0310479868     0.2135326515
   24      C       1.5606967528    -2.8900406622    -0.0987768362
   25      H       2.1674451369    -2.5495092618    -0.9419437095
   26      H       1.3544487764    -3.9519675403    -0.2440337104
   27      H       2.1664683173    -2.7781439326     0.8037445960
   28      H      -3.8269156967     0.3947492427    -0.7542857805
   29      H      -3.5560048705     0.7931474483     0.9306339430
   30      H      -4.3264630550    -0.7430377118     0.5116090061
 ----------------------------------------------------------------
 Nuclear Repulsion Energy =  1141.5301851800 hartrees
 There are       59 alpha and       59 beta electrons
 Applying Cartesian multipole field
    Component          Value
    ---------          -----
     (2,0,0)        1.00000E-11
     (0,2,0)        2.00000E-11
     (0,0,2)       -3.00000E-11
 Nucleus-field energy     =     0.0000000424 hartrees
 Requested basis set is 6-311++G(d,p)
 There are 166 shells and 450 basis functions
 A cutoff of  1.0D-11 yielded  10971 shell pairs
 There are     83023 function pairs (     88707 Cartesian)
 Smallest overlap matrix eigenvalue = 4.18E-08

 Q-Chem warning in module /fs/scratch/osu6415/qchem-kaunlao-vdw/stvman/mkSTV.C, line 281:

 Overlap eigenvalue is smaller than square root of threshold

 Linear dependence detected in AO basis
 Number of orthogonalized atomic orbitals = 447
 Maximum deviation from orthogonality = 2.882E-10
 Guess MOs from SCF MO coefficient file
 Reading MOs from coefficient file
 Reading MOs from coefficient file
 A restricted hybrid HF-DFT SCF calculation will be
 performed using Pulay DIIS extrapolation
 Exchange:     0.2000 Hartree-Fock + 0.0800 Slater + 0.7200 B88
 Correlation:  0.1900 VWN1RPA + 0.8100 LYP
 Using SG-1 standard quadrature grid
 Dispersion:   Grimme D3
 SCF converges when DIIS error is below 1.0E-08
 Geometry optimization detected.  Setting ReadMinima to 0
 Setting SaveMinima to 0
 using 20 threads for integral computing
 -------------------------------------------------------
 OpenMP Integral computing Module                
 Release: version 1.0, May 2013, Q-Chem Inc. Pittsburgh 
 -------------------------------------------------------
 -------------------------------------------------------
 OpenMP BLAS3 based DFT computing Module                
 Release: version 1.0, May 2013, Q-Chem Inc. Pittsburgh 
 -------------------------------------------------------
 ---------------------------------------
  Cycle       Energy         DIIS Error
 ---------------------------------------
    1    -766.8752214886      4.24E-05
    2    -766.8750760530      5.10E-06
    3    -766.8750753112      7.93E-06
    4    -766.8750767678      2.14E-06
    5    -766.8750768568      7.29E-07
    6    -766.8750768646      3.15E-07
    7    -766.8750768666      1.16E-07
    8    -766.8750768669      3.05E-08
    9    -766.8750768668      1.10E-08
   10    -766.8750768647      4.82E-09 Convergence criterion met
 ---------------------------------------
 SCF time:  CPU 531.78 s  wall 31.04 s
 SCF   energy in the final basis set = -766.87507686
 Total energy in the final basis set = -766.87507686
 
 --------------------------------------------------------------
 
                    Orbital Energies (a.u.)
 --------------------------------------------------------------
 
 Alpha MOs
 -- Occupied --
-19.178 -19.173 -19.120 -19.116 -10.312 -10.308 -10.233 -10.227
-10.205 -10.204 -10.201 -10.200 -10.187 -10.185 -10.176 -10.168
 -1.121  -1.114  -1.032  -1.028  -0.885  -0.808  -0.792  -0.748
 -0.732  -0.726  -0.674  -0.648  -0.620  -0.576  -0.568  -0.531
 -0.519  -0.513  -0.489  -0.488  -0.480  -0.477  -0.469  -0.441
 -0.436  -0.428  -0.423  -0.415  -0.412  -0.406  -0.396  -0.387
 -0.381  -0.372  -0.360  -0.358  -0.357  -0.320  -0.312  -0.298
 -0.287  -0.265  -0.253
 -- Virtual --
 -0.055  -0.033  -0.012  -0.004  -0.000   0.007   0.012   0.016
  0.022   0.025   0.033   0.035   0.038   0.039   0.046   0.053
  0.055   0.058   0.067   0.070   0.076   0.081   0.090   0.091
  0.096   0.098   0.103   0.108   0.111   0.115   0.118   0.120
  0.123   0.126   0.131   0.135   0.137   0.141   0.142   0.144
  0.147   0.148   0.153   0.154   0.159   0.162   0.167   0.168
  0.170   0.174   0.176   0.186   0.188   0.194   0.196   0.199
  0.202   0.205   0.208   0.211   0.219   0.225   0.226   0.235
  0.240   0.244   0.247   0.252   0.257   0.262   0.267   0.271
  0.281   0.284   0.288   0.292   0.297   0.302   0.305   0.311
  0.314   0.319   0.322   0.327   0.332   0.341   0.343   0.351
  0.351   0.356   0.361   0.368   0.373   0.376   0.385   0.390
  0.395   0.399   0.404   0.407   0.415   0.424   0.430   0.435
  0.458   0.458   0.477   0.482   0.497   0.504   0.515   0.518
  0.522   0.530   0.549   0.555   0.563   0.567   0.571   0.581
  0.588   0.592   0.597   0.612   0.622   0.629   0.634   0.639
  0.648   0.657   0.658   0.662   0.665   0.670   0.674   0.681
  0.686   0.693   0.696   0.700   0.704   0.716   0.728   0.740
  0.741   0.748   0.756   0.766   0.769   0.786   0.792   0.809
  0.810   0.840   0.855   0.863   0.872   0.888   0.898   0.920
  0.938   0.943   0.962   0.967   0.983   0.984   1.018   1.027
  1.039   1.043   1.058   1.072   1.081   1.087   1.096   1.115
  1.147   1.169   1.179   1.196   1.210   1.223   1.231   1.245
  1.255   1.278   1.295   1.301   1.327   1.331   1.345   1.358
  1.366   1.375   1.386   1.405   1.408   1.422   1.430   1.440
  1.454   1.458   1.476   1.487   1.495   1.503   1.524   1.531
  1.537   1.553   1.560   1.566   1.569   1.586   1.594   1.596
  1.605   1.611   1.622   1.631   1.641   1.650   1.666   1.686
  1.697   1.708   1.718   1.721   1.738   1.743   1.759   1.773
  1.778   1.783   1.793   1.821   1.827   1.834   1.844   1.867
  1.880   1.888   1.891   1.921   1.951   1.962   1.975   1.985
  2.015   2.016   2.023   2.051   2.085   2.092   2.104   2.122
  2.124   2.133   2.141   2.164   2.178   2.186   2.206   2.235
  2.251   2.300   2.315   2.328   2.332   2.409   2.416   2.450
  2.453   2.473   2.477   2.488   2.501   2.512   2.520   2.529
  2.542   2.557   2.570   2.579   2.594   2.596   2.607   2.611
  2.628   2.645   2.661   2.667   2.686   2.698   2.727   2.739
  2.757   2.764   2.783   2.799   2.820   2.834   2.846   2.850
  2.872   2.885   2.894   2.908   2.917   2.934   2.954   2.972
  3.000   3.024   3.038   3.051   3.054   3.076   3.110   3.110
  3.138   3.171   3.180   3.204   3.228   3.242   3.253   3.270
  3.295   3.311   3.375   3.395   3.436   3.444   3.528   3.591
  3.593   3.618   3.665   3.717   3.763   3.777   3.790   3.796
  3.797   3.816   3.850   3.859   3.886   3.947   4.049   4.055
  4.078   4.127   4.138   4.234   4.313   4.339   4.390   4.864
  5.065   5.119   5.123   5.166   5.237   5.255   5.392   5.406
  5.614   5.628   5.863   5.882  23.542  23.848  23.866  23.907
 23.924  23.937  23.943  23.951  23.999  24.063  24.072  24.168
 49.890  49.903  50.013  50.037
 --------------------------------------------------------------
 
          Ground-State Mulliken Net Atomic Charges

     Atom                 Charge (a.u.)
  ----------------------------------------
      1 C                     0.453367
      2 C                     0.558393
      3 C                    -0.916028
      4 C                    -0.459496
      5 O                     0.040078
      6 O                    -0.126887
      7 O                    -0.007803
      8 O                    -0.194930
      9 C                    -0.224031
     10 C                    -0.211431
     11 C                     0.613493
     12 C                    -0.550826
     13 C                    -0.658979
     14 C                     0.508719
     15 H                     0.195232
     16 H                     0.185050
     17 H                     0.125750
     18 H                     0.174734
     19 H                     0.150184
     20 H                     0.158835
     21 H                     0.158177
     22 H                     0.131712
     23 C                    -0.564596
     24 C                    -0.576941
     25 H                     0.176159
     26 H                     0.151470
     27 H                     0.192601
     28 H                     0.203949
     29 H                     0.174708
     30 H                     0.139337
  ----------------------------------------
  Sum of atomic charges =     0.000000

 -----------------------------------------------------------------
                    Cartesian Multipole Moments
 -----------------------------------------------------------------
    Charge (ESU x 10^10)
                 0.0000
    Dipole Moment (Debye)
         X       1.6637      Y      -1.3169      Z       2.4832
       Tot       3.2662
    Quadrupole Moments (Debye-Ang)
        XX     -83.5444     XY       5.5223     YY     -83.4245
        XZ      -0.1431     YZ       5.8084     ZZ    -101.8880
    Octopole Moments (Debye-Ang^2)
       XXX      46.9772    XXY      -4.8366    XYY      16.8903
       YYY      24.7993    XXZ      12.8551    XYZ       0.5973
       YYZ      10.5177    XZZ       6.5356    YZZ       6.4635
       ZZZ      -5.7532
    Hexadecapole Moments (Debye-Ang^3)
      XXXX   -2109.3281   XXXY      37.6861   XXYY    -733.9346
      XYYY      25.2860   YYYY   -1871.1897   XXXZ      12.9313
      XXYZ      20.3718   XYYZ     -17.2553   YYYZ      27.0051
      XXZZ    -441.4222   XYZZ     -15.4341   YYZZ    -407.5873
      XZZZ      11.4950   YZZZ       3.1906   ZZZZ    -279.5762
 -----------------------------------------------------------------
 Calculating analytic gradient of the SCF energy
 Gradient of SCF Energy
            1           2           3           4           5           6
    1   0.0000672  -0.0000905  -0.0000781   0.0001442   0.0000371   0.0000131
    2  -0.0000660   0.0000253   0.0000660  -0.0000163  -0.0000320  -0.0000234
    3  -0.0000872   0.0001027   0.0000962  -0.0001508  -0.0000176  -0.0000473
            7           8           9          10          11          12
    1  -0.0000595  -0.0000504  -0.0000421  -0.0000301  -0.0000232  -0.0000048
    2   0.0000177  -0.0000007  -0.0000127   0.0000140   0.0000517  -0.0000086
    3   0.0000497   0.0000601  -0.0000220  -0.0000472   0.0000013   0.0000029
           13          14          15          16          17          18
    1  -0.0000033   0.0000359   0.0000111   0.0000028   0.0000054   0.0000140
    2  -0.0000110  -0.0000164  -0.0000078  -0.0000095  -0.0000021  -0.0000069
    3  -0.0000048   0.0000043   0.0000003   0.0000006   0.0000202   0.0000212
           19          20          21          22          23          24
    1   0.0000149   0.0000168  -0.0000000  -0.0000016   0.0000214   0.0000263
    2   0.0000076   0.0000021  -0.0000039   0.0000016   0.0000516   0.0000520
    3  -0.0000047  -0.0000076   0.0000065   0.0000066   0.0000283  -0.0000431
           25          26          27          28          29          30
    1  -0.0000139   0.0000065   0.0000021  -0.0000048  -0.0000067  -0.0000098
    2  -0.0000092  -0.0000066  -0.0000048  -0.0000257  -0.0000179  -0.0000078
    3   0.0000022  -0.0000039   0.0000118   0.0000005   0.0000064   0.0000143
 Max gradient component =       1.508E-04
 RMS gradient           =       3.968E-05
 Gradient time:  CPU 269.45 s  wall 20.71 s
 Geometry Optimization Parameters
   NAtoms,    NIC,     NZ,  NCons,   NDum,   NFix, NCnnct, MaxDiis
       30     194       0       0       0       0       0       0

 Cartesian Hessian Update
 Hessian Updated using BFGS Update


** GEOMETRY OPTIMIZATION IN DELOCALIZED INTERNAL COORDINATES **
   Searching for a Minimum

   Optimization Cycle:   4

                       Coordinates (Angstroms)
     ATOM                X               Y               Z
      1  C         0.2257140271   -0.7114070572   -0.0643551911
      2  C        -0.9988604844   -0.0213556420   -0.0051772986
      3  C         1.4889260037    0.0518210979   -0.3357817021
      4  C        -1.0262992331    1.4705233234   -0.1147886414
      5  O         2.3979751866   -0.1212956356    0.6407861647
      6  O         1.6843269117    0.7164076869   -1.3249569718
      7  O        -0.0769439913    2.0396718472    0.6582259376
      8  O        -1.8053567336    2.1021255697   -0.7864020616
      9  C         0.0860787640    3.4613948191    0.5086032147
     10  C         3.6547977355    0.5551064360    0.4517181538
     11  C         0.2697809423   -2.1129626238    0.0091506049
     12  C        -0.9404851903   -2.7909371626    0.1630116181
     13  C        -2.1490173814   -2.1106740082    0.2378718235
     14  C        -2.2119874865   -0.7193309782    0.1444266459
     15  H         0.3951631614    3.6937824533   -0.5117461492
     16  H         4.1452921759    0.2031816602   -0.4572093363
     17  H        -3.0690226341   -2.6716451202    0.3639688664
     18  H        -0.8463945658    3.9801486190    0.7338891730
     19  H         0.8620334454    3.7395972590    1.2183472276
     20  H         4.2494723621    0.3120652939    1.3293506946
     21  H         3.4961690994    1.6319329305    0.3797636378
     22  H        -0.9354123925   -3.8745741139    0.2178552696
     23  C        -3.5545100833   -0.0310479868    0.2135326515
     24  C         1.5606967528   -2.8900406622   -0.0987768362
     25  H         2.1674451369   -2.5495092618   -0.9419437095
     26  H         1.3544487764   -3.9519675403   -0.2440337104
     27  H         2.1664683173   -2.7781439326    0.8037445960
     28  H        -3.8269156967    0.3947492427   -0.7542857805
     29  H        -3.5560048705    0.7931474483    0.9306339430
     30  H        -4.3264630550   -0.7430377118    0.5116090061
   Point Group: c1    Number of degrees of freedom:    84


   Energy is   -766.875076865

 Hessian Updated using BFGS Update

 76 Hessian modes will be used to form the next step
  Hessian Eigenvalues:
     0.001774    0.007807    0.009194    0.009653    0.009796    0.010378
     0.013867    0.016059    0.017037    0.018193    0.019303    0.021901
     0.022242    0.022691    0.023114    0.023259    0.023415    0.025111
     0.066147    0.071695    0.071831    0.072714    0.073439    0.101508
     0.101768    0.105941    0.106541    0.159679    0.159857    0.159993
     0.159997    0.160464    0.160829    0.225055    0.245026    0.248138
     0.249047    0.249703    0.249789    0.249965    0.249979    0.249995
     0.249997    0.250000    0.253531    0.265479    0.313062    0.313346
     0.322950    0.328011    0.344604    0.344993    0.345394    0.345809
     0.346259    0.346460    0.346650    0.346797    0.347125    0.347518
     0.350751    0.350898    0.353899    0.354090    0.396078    0.397641
     0.415261    0.420237    0.447531    0.456879    0.458598    0.470142
     0.550156    0.560113    1.010711    1.013739

 Minimum Search - Taking Simple RFO Step
 Searching for Lamda that Minimizes Along All modes
 Value Taken    Lamda =  -0.00000124
 Step Taken.  Stepsize is  0.011230

                             Maximum     Tolerance    Cnvgd?
         Gradient           0.000082      0.000001      NO
         Displacement       0.005620      0.000001      NO
         Energy change     -0.000001      0.000000      NO


 New Cartesian Coordinates Obtained by Inverse Iteration

 Displacement from previous Coordinates is:  0.022492
 Adding empirical dispersion correction 
 ----------------------------------------------------------------
 Doing -D3(op) with
 s6 =   1.00000
 s8 =   0.78311
 a1 =   0.30000
 a2 =   4.25000
 n  =  10.00000
 -D3 energy without 3body term =     -0.0331921602 hartrees
 ----------------------------------------------------------------
             Standard Nuclear Orientation (Angstroms)
    I     Atom           X                Y                Z
 ----------------------------------------------------------------
    1      C       0.2252901154    -0.7115276859    -0.0637713041
    2      C      -0.9993695842    -0.0216649673    -0.0049686480
    3      C       1.4883541383     0.0519622342    -0.3356191730
    4      C      -1.0270906755     1.4703690352    -0.1129681672
    5      O       2.3974291501    -0.1204320637     0.6410275300
    6      O       1.6830830233     0.7171451663    -1.3244995787
    7      O      -0.0756112766     2.0387313477     0.6580326610
    8      O      -1.8040669872     2.1024302355    -0.7865560647
    9      C       0.0889301017     3.4602090328     0.5073867069
   10      C       3.6536073804     0.5573191443     0.4522323097
   11      C       0.2694668527    -2.1132006183     0.0089984023
   12      C      -0.9408065147    -2.7913005540     0.1622106160
   13      C      -2.1494048472    -2.1111673736     0.2371375891
   14      C      -2.2124930305    -0.7197802772     0.1443833108
   15      H       0.3991180559     3.6915144776    -0.5128778919
   16      H       4.1445002601     0.2061872639    -0.4568027002
   17      H      -3.0694144294    -2.6722830668     0.3626090302
   18      H      -0.8433830797     3.9799887235     0.7310855031
   19      H       0.8643243307     3.7383060892     1.2177452809
   20      H       4.2484129193     0.3148193667     1.3298895670
   21      H       3.4937897758     1.6339858484     0.3802229559
   22      H      -0.9356425492    -3.8749760182     0.2164379687
   23      C      -3.5550302920    -0.0316727691     0.2144756790
   24      C       1.5603619942    -2.8903184623    -0.0986869176
   25      H       2.1684236917    -2.5480591772    -0.9402455389
   26      H       1.3541402586    -3.9518932652    -0.2464072613
   27      H       2.1649366329    -2.7802610874     0.8048487960
   28      H      -3.8280215915     0.3946836556    -0.7529351714
   29      H      -3.5559659928     0.7923638983     0.9318030644
   30      H      -4.3267528304    -0.7437518830     0.5128432863
 ----------------------------------------------------------------
 Nuclear Repulsion Energy =  1141.5860985840 hartrees
 There are       59 alpha and       59 beta electrons
 Applying Cartesian multipole field
    Component          Value
    ---------          -----
     (2,0,0)        1.00000E-11
     (0,2,0)        2.00000E-11
     (0,0,2)       -3.00000E-11
[...]
     0.00005170     -0.00041601      0.00011093
    -0.00032726     -0.00021871      0.00015992
     0.00008741     -0.00011644     -0.00001560
    -0.00015613      0.00023953     -0.00004678
     0.00139783      0.00006277     -0.00012660
     0.00017858     -0.00058905      0.00014447
     0.00187216      0.00120882     -0.00606823
     0.00283183     -0.00224595     -0.00541831
    -0.01254719     -0.00661930      0.00187881
    -0.00597170      0.00312654      0.00146122
     0.00342705      0.00111883      0.00317805
     0.00248717     -0.00107529      0.00380539
    -0.00107292      0.00619968     -0.00033248
    -0.00039267      0.00013554      0.00013584
    -0.04335692      0.02410005      0.00818554
     0.00035819     -0.00004129     -0.00004018
    -0.00274268     -0.00152676      0.00394419
     0.00054457      0.00262863      0.00036537
    -0.00229609     -0.00041481     -0.00359598
     0.11904412     -0.20006910      0.47046506
    -0.01275323     -0.46739704     -0.41487745
     0.39891011      0.38517091     -0.15240659
vibration 73
    -0.00015031      0.00002956     -0.00009361
     0.00003045     -0.00002424      0.00002408
     0.00162433     -0.00073535      0.00238386
    -0.00017329     -0.00015552     -0.00015500
    -0.00262041     -0.00091007     -0.00052751
     0.00014138      0.00053200     -0.00079326
     0.00009241      0.00030190      0.00004584
     0.00002901     -0.00000514      0.00002905
    -0.00008583      0.00391829     -0.00135974
    -0.03348033     -0.02247204      0.01800340
     0.00001621      0.00003109     -0.00001245
     0.00001964     -0.00003254     -0.00000063
    -0.00005944      0.00000496      0.00000125
    -0.00001614     -0.00000588      0.00001103
    -0.01808109     -0.01209436      0.05821773
     0.28564508     -0.22150353     -0.54108365
     0.00036214      0.00022853     -0.00005547
     0.05031515     -0.02676110     -0.01262462
    -0.03138761     -0.01082588     -0.02898865
     0.23546232     -0.09922023      0.35413848
    -0.10021942      0.60280242     -0.03369745
    -0.00002638      0.00033036      0.00000630
     0.00038799     -0.00023124     -0.00006060
    -0.00014390     -0.00048874     -0.00030035
    -0.00084691     -0.00044745      0.00100041
     0.00094737      0.00547550      0.00056205
     0.00124738      0.00064469      0.00205505
    -0.00115854      0.00189955     -0.00442588
     0.00008882      0.00421854      0.00374603
    -0.00355029     -0.00339621      0.00134700
vibration 74
     0.00003393     -0.00001233      0.00003024
     0.00014619      0.00016583      0.00008059
    -0.00002474      0.00001919     -0.00025194
    -0.00218672     -0.00072399     -0.00172372
     0.00018028      0.00008550      0.00003968
    -0.00007180     -0.00005514      0.00009906
     0.00100719      0.00255614      0.00039069
     0.00058286     -0.00047961      0.00051776
    -0.00101885      0.04112252     -0.01452972
     0.00331006      0.00217800     -0.00176975
     0.00001446     -0.00002291      0.00000408
    -0.00000745      0.00006269     -0.00000196
     0.00009217      0.00004729     -0.00002041
    -0.00008936      0.00001296     -0.00000756
    -0.18826926     -0.12633518      0.60571472
    -0.02772074      0.02132643      0.05244942
    -0.00083307     -0.00040630      0.00012613
     0.52160782     -0.27837323     -0.13099469
    -0.32164271     -0.11105215     -0.29651190
    -0.02265822      0.00943116     -0.03406426
     0.00940625     -0.05774469      0.00317401
     0.00001844     -0.00051004      0.00003166
    -0.00040662      0.00042756      0.00008306
     0.00029073     -0.00000348     -0.00004256
    -0.00207915     -0.00123765      0.00300975
     0.00038876      0.00170248      0.00022657
    -0.00177710     -0.00036747     -0.00275011
     0.00145064     -0.00250681      0.00574735
    -0.00018332     -0.00604722     -0.00534604
     0.00350343      0.00343749     -0.00132844
vibration 75
     0.00002695     -0.00009645      0.00022814
     0.00006601     -0.00002989     -0.00001551
    -0.00006535     -0.00008224     -0.00020629
     0.00000825      0.00002061     -0.00001678
    -0.00000224     -0.00016785      0.00012023
    -0.00001222     -0.00000908      0.00006783
    -0.00001586      0.00000454      0.00000417
    -0.00000458     -0.00000820      0.00000321
    -0.00003958     -0.00000917      0.00004613
     0.00005499      0.00014440      0.00000073
    -0.00010481      0.00049371     -0.00052064
     0.00018517     -0.00082101     -0.00020914
    -0.00005473      0.00020189     -0.00000992
    -0.00001610     -0.00011863      0.00001286
     0.00017932      0.00011047     -0.00059552
    -0.00026762      0.00005852      0.00035054
    -0.00140917     -0.00087563      0.00026275
     0.00012881     -0.00006217     -0.00002551
     0.00004318      0.00001304      0.00004775
    -0.00047012      0.00031732     -0.00070354
     0.00017791     -0.00203549      0.00018659
    -0.00094872      0.00852948     -0.00056406
     0.00015003      0.00017037      0.00062554
     0.00232311      0.02378621     -0.08848935
    -0.38931153     -0.22501585      0.52921732
    -0.02979948     -0.14289739     -0.03844368
     0.39391883      0.08515272      0.56919564
    -0.00131198      0.00223884     -0.00474084
     0.00002550     -0.00384138     -0.00323566
    -0.00057197     -0.00053799      0.00034122
vibration 76
     0.00007599     -0.00005692     -0.00003635
     0.00010567     -0.00001995      0.00028012
    -0.00002678     -0.00004474      0.00000227
     0.00012396      0.00002879      0.00003777
     0.00000227      0.00000333      0.00000038
    -0.00000112      0.00002266     -0.00000788
     0.00000391     -0.00000429     -0.00003574
     0.00002412      0.00016737      0.00005402
    -0.00039709      0.00014110      0.00026860
    -0.00003639      0.00008035      0.00004580
     0.00007147      0.00008330     -0.00001827
    -0.00016134     -0.00018940      0.00000038
     0.00116740      0.00055218     -0.00040612
    -0.00049050     -0.00043160     -0.00042118
     0.00067679      0.00056486     -0.00247736
     0.00033409     -0.00023948     -0.00064615
    -0.01204267     -0.00611071      0.00146187
     0.00398465     -0.00209563     -0.00091403
     0.00013752      0.00008623      0.00024472
     0.00000009      0.00001734     -0.00000206
     0.00014214     -0.00077861      0.00005886
    -0.00001842      0.00355762     -0.00006098
    -0.02878943     -0.04359936     -0.07516889
     0.00017172      0.00042850     -0.00056377
    -0.00324640     -0.00190847      0.00453388
    -0.00075479     -0.00361426     -0.00063041
     0.00200619      0.00047582      0.00280034
     0.13443506     -0.24521816      0.50575999
     0.00149383      0.57079237      0.49125020
     0.20798505      0.19379158     -0.09687791
vibration 77
    -0.00001600     -0.00002897     -0.00003636
    -0.00027578      0.00008100     -0.00002160
    -0.00033436      0.00030641     -0.00038205
    -0.00005378     -0.00004781     -0.00004019
     0.00013392     -0.00022296      0.00010050
     0.00002405     -0.00006123      0.00013593
     0.00002982      0.00000686      0.00000750
     0.00001856     -0.00000320      0.00001033
     0.00022978     -0.00001748     -0.00016010
     0.00076014     -0.00085328     -0.00077122
    -0.00128075     -0.00053377      0.00002890
    -0.00010596      0.00469460     -0.00014784
    -0.00035292     -0.00043795      0.00010942
     0.00009073      0.00011366     -0.00002396
    -0.00057107     -0.00038905      0.00191700
    -0.00591049      0.00453007      0.01125613
     0.00803177      0.00486577     -0.00115050
    -0.00169418      0.00090941      0.00037869
    -0.00050704     -0.00015012     -0.00049990
    -0.00085673      0.00020675     -0.00137400
    -0.00126859      0.00581814     -0.00062194
     0.00258323     -0.04958182      0.00135420
    -0.00006171      0.00010565     -0.00042579
    -0.04438230     -0.07802530     -0.02233126
     0.13495676      0.06946902     -0.21311810
     0.16770906      0.82682618      0.10874266
     0.23860207      0.03181501      0.37230809
     0.00108637     -0.00183650      0.00403623
     0.00002432      0.00111724      0.00083623
    -0.00033393     -0.00038799      0.00006846
vibration 78
    -0.00021314      0.00018060     -0.00005532
    -0.00001586      0.00006077      0.00002131
     0.00000353      0.00003913     -0.00003302
    -0.00062271      0.00021398     -0.00042537
     0.00001103     -0.00000449      0.00001234
     0.00000588     -0.00002260      0.00001738
     0.00011797      0.00004898      0.00012422
     0.00046534     -0.00003755      0.00012844
     0.00014960     -0.00010193      0.00019056
     0.00006486     -0.00019086     -0.00005276
    -0.00002304     -0.00013072      0.00000264
     0.00009206      0.00046317     -0.00001121
    -0.00309104     -0.00195493      0.00041417
    -0.00025127      0.00124272     -0.00033209
     0.00048330      0.00040462     -0.00170552
    -0.00047873      0.00034556      0.00095876
     0.03360908      0.01847097     -0.00488122
    -0.00148803      0.00081395      0.00029776
    -0.00095753     -0.00036619     -0.00089064
    -0.00006980     -0.00000127     -0.00014045
    -0.00032611      0.00190452     -0.00014212
     0.00007301     -0.00798723      0.00038891
     0.03136581      0.07041533     -0.05177395
     0.00009163      0.00036395     -0.00007594
    -0.00079737     -0.00044357      0.00116181
    -0.00079264     -0.00413729     -0.00057936
     0.00031770      0.00013354      0.00034482
     0.15965486     -0.23342170      0.55501748
     0.00471728     -0.11704680     -0.13152412
    -0.53150731     -0.49905308      0.19792383
vibration 79
     0.00011961     -0.00021058     -0.00010742
     0.00002568      0.00005313      0.00000319
    -0.00003560      0.00013340      0.00012857
    -0.00008815     -0.00009113     -0.00006866
    -0.00020236      0.00028568      0.00018667
    -0.00005842      0.00013163      0.00005814
     0.00003974      0.00005039      0.00004240
     0.00002489      0.00001368      0.00002841
     0.00169303     -0.00037609     -0.00106547
     0.03275734     -0.07608342     -0.04627291
    -0.00001170     -0.00002194      0.00001200
     0.00001047     -0.00008152      0.00000739
    -0.00001270      0.00000943     -0.00000245
    -0.00001083     -0.00001856      0.00000884
    -0.00323968     -0.00246983      0.01171947
    -0.29798542      0.22076722      0.58433489
     0.00001959      0.00005037     -0.00001988
    -0.01455511      0.00791041      0.00341820
    -0.00247219     -0.00081072     -0.00265882
     0.02679167     -0.02349386      0.02136485
    -0.11547605      0.70200154     -0.05906141
    -0.00004210      0.00093852     -0.00004649
    -0.00009290     -0.00020959      0.00002308
     0.00069068      0.00107102      0.00016130
    -0.00275108     -0.00135586      0.00479409
    -0.00229315     -0.01066853     -0.00139877
    -0.00321597     -0.00021276     -0.00546554
    -0.00025532      0.00026089     -0.00074416
    -0.00004368      0.00100489      0.00095726
     0.00135964      0.00127897     -0.00053032
vibration 80
    -0.00002257     -0.00004037      0.00002288
     0.00018508     -0.00000153     -0.00016026
     0.00005158      0.00015433     -0.00015037
     0.00004247      0.00000039      0.00026242
     0.00000145     -0.00002569      0.00002475
    -0.00003713     -0.00010561      0.00006119
    -0.00029518     -0.00005657      0.00022345
    -0.00006964      0.00014260      0.00008765
     0.06473398     -0.01663231     -0.06759104
    -0.00055715      0.00148540      0.00125433
     0.00001282      0.00001725      0.00000313
    -0.00000741     -0.00005800      0.00000273
     0.00000942      0.00000079      0.00000703
    -0.00001070      0.00002276      0.00000994
    -0.18538381     -0.13974898      0.65048561
     0.00670656     -0.00506604     -0.01304173
    -0.00013079     -0.00007144      0.00000134
    -0.61952076      0.33055123      0.13707393
     0.03793104      0.00597408      0.01111732
    -0.00226378      0.00106749     -0.00303479
     0.00201959     -0.01336928      0.00107002
    -0.00003249      0.00062868     -0.00003609
    -0.00011553     -0.00023465     -0.00041023
     0.00011175      0.00020327      0.00000738
    -0.00058172     -0.00026422      0.00086288
    -0.00045082     -0.00216561     -0.00029346
    -0.00038207     -0.00000214     -0.00064780
     0.00057930     -0.00114521      0.00236441
    -0.00003919      0.00319435      0.00279933
     0.00070756      0.00072157     -0.00033991
vibration 81
     0.00000406     -0.00001291     -0.00000367
     0.00006375     -0.00002220      0.00005224
    -0.00012538      0.00000204     -0.00009190
    -0.00035236      0.00113134     -0.00040594
     0.00006374      0.00001693      0.00005178
     0.00002811     -0.00000816      0.00003055
     0.00028307     -0.00001106      0.00021762
     0.00023404     -0.00042083      0.00023263
    -0.06874113     -0.00122246     -0.06518452
    -0.00017413     -0.00016963     -0.00090033
    -0.00000694     -0.00000355      0.00000085
     0.00001685      0.00001824      0.00000020
    -0.00014084     -0.00008158      0.00001492
    -0.00001119      0.00000582      0.00000180
    -0.10099758     -0.05672022      0.27254600
    -0.00245137      0.00214172      0.00460199
     0.00166106      0.00100126     -0.00021795
     0.27943754     -0.15309759     -0.08520551
     0.63516763      0.21850196      0.58587397
     0.00438418     -0.00184546      0.00643552
     0.00004975      0.00140659     -0.00049137
     0.00000440     -0.00036101      0.00001229
     0.00009192      0.00019383     -0.00004096
    -0.00004411     -0.00003325     -0.00001471
     0.00019378      0.00008452     -0.00030529
     0.00007894      0.00025620      0.00003579
     0.00031166      0.00000830      0.00046207
     0.00032682     -0.00021042      0.00080237
     0.00007487     -0.00076962     -0.00087978
    -0.00134399     -0.00136753      0.00053504
vibration 82
    -0.00000446     -0.00003439      0.00008016
    -0.00000329     -0.00000597      0.00000004
     0.00080502      0.00074516     -0.00064716
     0.00004386     -0.00000397      0.00001431
     0.00012170     -0.00013258      0.00032115
    -0.00024371     -0.00032370      0.00035505
    -0.00002526      0.00000351      0.00000628
    -0.00001398      0.00000663     -0.00000949
     0.00079961     -0.00005925      0.00029747
    -0.03454361      0.03477338     -0.08090871
     0.00000617      0.00000524     -0.00000070
     0.00000152     -0.00118126      0.00006072
     0.00053938      0.00038310     -0.00007683
     0.00002006     -0.00002179     -0.00000487
     0.00029695     -0.00005926      0.00002130
    -0.13110067      0.10669573      0.22667265
    -0.00679483     -0.00420312      0.00092953
    -0.00458616      0.00245569      0.00123129
    -0.00512770     -0.00180554     -0.00490074
     0.48454733     -0.20521508      0.72881815
     0.05045792     -0.31642335      0.00390635
    -0.00008091      0.01364343     -0.00068883
     0.00004452      0.00005331     -0.00003642
    -0.00000917     -0.00001789     -0.00000559
     0.00011993      0.00023395     -0.00016655
     0.00000879      0.00015799      0.00010310
    -0.00001536     -0.00011614      0.00014372
     0.00007313     -0.00008021      0.00022876
    -0.00000157     -0.00002457     -0.00005582
    -0.00064464     -0.00057814      0.00023431
vibration 83
    -0.00031223      0.00054162     -0.00001690
    -0.00046496      0.00006866      0.00001850
     0.00019734      0.00003568      0.00000134
     0.00006409     -0.00018593      0.00001873
    -0.00005437     -0.00000022     -0.00002092
    -0.00005117     -0.00004145      0.00003034
     0.00001513      0.00004439      0.00001117
    -0.00004204      0.00004303     -0.00001031
    -0.00012583     -0.00000948     -0.00005732
     0.00055433     -0.00052033      0.00124906
     0.00226455     -0.00009599     -0.00025728
    -0.00130278     -0.06726922      0.00356115
     0.04250982      0.02845021     -0.00595004
     0.00100919     -0.00121025     -0.00003780
    -0.00003634      0.00004389      0.00000246
     0.00189065     -0.00164137     -0.00333846
    -0.51469814     -0.31666577      0.07049137
     0.00063393     -0.00031888     -0.00017043
     0.00097703      0.00038582      0.00090777
    -0.00763432      0.00319276     -0.01141979
    -0.00077114      0.00470738     -0.00003483
    -0.00216984      0.78582272     -0.03949129
     0.00161497      0.00222801     -0.00082584
    -0.00145124     -0.00378882     -0.00045694
     0.00484464      0.00366585     -0.00772520
     0.00654668      0.04416493      0.00601312
     0.00385472      0.00075289      0.00724824
     0.00172158     -0.00259114      0.00694590
    -0.00049046     -0.00574392     -0.00519341
    -0.02309946     -0.01932394      0.00838487
vibration 84
    -0.00004086      0.00049096     -0.00003277
     0.00056976      0.00020480     -0.00004082
     0.00014327      0.00002745     -0.00002207
    -0.00008369      0.00020672     -0.00003506
    -0.00006064     -0.00000884     -0.00001719
    -0.00004858     -0.00003933      0.00004463
    -0.00002941     -0.00008905     -0.00002021
     0.00005482     -0.00007536      0.00003576
     0.00006756      0.00008031      0.00007376
     0.00010262     -0.00001316      0.00016162
     0.00243397      0.00064292     -0.00028961
     0.00243720     -0.05439589      0.00254624
    -0.06009345     -0.03470087      0.00807611
    -0.00099435      0.00278206     -0.00008138
    -0.00000744     -0.00006670      0.00005749
     0.00011541     -0.00016967     -0.00026833
     0.66996662      0.40483479     -0.09106122
     0.00028369     -0.00022827     -0.00003323
    -0.00111539     -0.00045054     -0.00099087
    -0.00117417      0.00046566     -0.00168735
    -0.00002548     -0.00007597      0.00005629
    -0.00658533      0.60711590     -0.03012669
    -0.00160100     -0.00194041      0.00080181
    -0.00067764     -0.00211212     -0.00025894
     0.00071623      0.00172025     -0.00227529
     0.00331149      0.02460228      0.00337359
     0.00050666      0.00050459      0.00240514
    -0.00038938      0.00125637     -0.00458858
     0.00134924      0.00256770      0.00253773
     0.02183422      0.01775221     -0.00785127
[INT]
    0.471976
    0.058301
    2.473910
    4.230729
    0.323970
    0.868244
    0.506749
    4.416301
    0.517824
    0.300076
    0.356471
    0.255585
    1.266604
    3.176478
    1.260638
    4.586167
   11.248615
    7.684331
    4.766720
    6.713152
    1.161969
    1.082316
   10.112351
    1.954512
    7.125613
    1.066106
    0.298534
   23.773073
    6.164592
   10.875160
   10.264038
   19.116372
    4.965326
    9.532378
    0.105808
    5.383122
   11.360800
    2.325007
   61.949295
    6.019945
    3.388317
   87.452480
    0.124965
    2.303718
   95.874687
   25.540139
    9.841493
  293.576453
   21.853859
  173.283995
  191.800656
   59.062103
    1.100711
    4.924777
   51.986243
   16.338691
   36.995505
    6.176240
    7.432369
    1.198215
   12.527307
   11.316892
   14.328749
    3.237657
    9.850697
   18.008157
   13.502398
    2.028457
  139.304962
  378.960224
   24.562840
   22.963214
   31.164258
   36.723483
   11.070795
   11.832213
   17.098039
   14.260953
   17.649684
   13.960581
   13.109133
   12.663893
    8.421321
   20.159260

======= END OF MOLDEN-FORMATTED INPUT FILE =======


        *************************************************************
        *                                                           *
        *  Thank you very much for using Q-Chem.  Have a nice day.  *
        *                                                           *
        *************************************************************


