r0174.ten.osc.edu 10.25.155
Q-Chem Developer Version! Running on 10.25.155.*
                  Welcome to Q-Chem
     A Quantum Leap Into The Future Of Chemistry


 Q-Chem 5.0, Q-Chem, Inc., Pleasanton, CA (2017)

 Yihan Shao,  Zhengting Gan,  E. Epifanovsky,  A. T. B. Gilbert,  M. Wormit,  
 J. Kussmann,  A. W. Lange,  A. Behn,  Jia Deng,  Xintian Feng,  D. Ghosh,  
 M. Goldey,  P. R. Horn,  L. D. Jacobson,  I. Kaliman,  T. Kus,  A. Landau,  
 Jie Liu,  E. I. Proynov,  R. M. Richard,  R. P. Steele,  E. J. Sundstrom,  
 H. L. Woodcock III,  P. M. Zimmerman,  D. Zuev,  B. Albrecht,  E. Alguire,  
 S. A. Baeppler,  Z. Benda,  Y. A. Bernard,  E. J. Berquist,  K. B. Bravaya,  
 D. Casanova,  Chun-Min Chang,  Yunqing Chen,  A. Chien,  K. D. Closser,  
 M. P. Coons,  S. Dasgupta,  M. Diedenhofen,  Hainam Do,  R. G. Edgar,  
 Po-Tung Fang,  S. Fatehi,  Qingguo Feng,  Qinghui Ge,  A. Ghysels,  
 J. Gomes,  J. Gonthier,  A. Gunina,  M. W. D. Hanson-Heine,  
 P. H. P. Harbach,  A. W. Hauser,  J. E. Herr,  E. G. Hohenstein,  
 Z. C. Holden,  Kerwin Hui,  T.-C. Jagau,  Hyunjun Ji,  B. Kaduk,  
 K. Khistyaev,  Jaehoon Kim,  P. Klunzinger,  K. Koh,  D. Kosenkov,  
 T. Kowalczyk,  C. M. Krauter,  A. Kunitsa,  Ka Un Lao,  A. Laurent,  
 K. V. Lawler,  Joonho Lee,  D. Lefrancois,  S. Lehtola,  D. S. Levine,  
 Yi-Pei Li,  You-Sheng Lin,  Fenglai Liu,  E. Livshits,  A. Luenser,  
 P. Manohar,  E. Mansoor,  S. F. Manzer,  Shan-Ping Mao,  Yuezhi Mao,  
 N. Mardirossian,  A. V. Marenich,  L. A. Martinez-Martinez,  S. A. Maurer,  
 N. J. Mayhall,  S. C. McKenzie,  J.-M. Mewes,  A. F. Morrison,  K. Nanda,  
 T. S. Nguyen-Beck,  R. Olivares-Amaya,  J. A. Parkhill,  T. M. Perrine,  
 F. Plasser,  S. Prager,  A. Prociuk,  D. R. Rehn,  F. Rob,  M. Schneider,  
 N. Sergueev,  S. M. Sharada,  S. Sharma,  D. W. Small,  T. Stauch,  
 T. Stein,  Yu-Chuan Su,  A. J. W. Thom,  T. Tsuchimochi,  L. Vogt,  
 O. Vydrov,  M. A. Watson,  J. Wenzel,  M. de Wergifosse,  T. A. Wesolowski,  
 A. White,  J. Witte,  A. Yamada,  Jun Yang,  K. Yao,  S. Yeganeh,  
 S. R. Yost,  Zhi-Qiang You,  A. Zech,  Igor Ying Zhang,  Xing Zhang,  
 Yan Zhao,  Ying Zhu,  B. R. Brooks,  G. K. L. Chan,  C. J. Cramer,  
 M. S. Gordon,  W. J. Hehre,  A. Klamt,  M. W. Schmidt,  C. D. Sherrill,  
 D. G. Truhlar,  A. Aspuru-Guzik,  R. Baer,  A. T. Bell,  N. A. Besley,  
 Jeng-Da Chai,  A. Dreuw,  B. D. Dunietz,  T. R. Furlani,  Chao-Ping Hsu,  
 Yousung Jung,  Jing Kong,  D. S. Lambrecht,  WanZhen Liang,  C. Ochsenfeld,  
 V. A. Rassolov,  L. V. Slipchenko,  J. E. Subotnik,  T. Van Voorhis,  
 J. M. Herbert,  A. I. Krylov,  P. M. W. Gill,  M. Head-Gordon

 Contributors to earlier versions of Q-Chem not listed above: 
 R. D. Adamson,  B. Austin,  J. Baker,  G. J. O. Beran,  K. Brandhorst,  
 S. T. Brown,  E. F. C. Byrd,  A. K. Chakraborty,  C.-L. Cheng,  
 Siu Hung Chien,  D. M. Chipman,  D. L. Crittenden,  H. Dachsel,  
 R. A. DiStasio Jr.,  R. J. Doerksen,  A. D. Dutoi,  L. Fusti-Molnar,  
 W. A. Goddard III,  A. Golubeva-Zadorozhnaya,  S. R. Gwaltney,  G. Hawkins,  
 A. Heyden,  S. Hirata,  G. Kedziora,  F. J. Keil,  C. Kelley,  Jihan Kim,  
 R. A. King,  R. Z. Khaliullin,  P. P. Korambath,  W. Kurlancheek,  
 A. M. Lee,  M. S. Lee,  S. V. Levchenko,  Ching Yeh Lin,  D. Liotard,  
 R. C. Lochan,  I. Lotan,  P. E. Maslen,  N. Nair,  D. P. O'Neill,  
 D. Neuhauser,  E. Neuscamman,  C. M. Oana,  R. Olson,  B. Peters,  
 R. Peverati,  P. A. Pieniazek,  Y. M. Rhee,  J. Ritchie,  M. A. Rohrdanz,  
 E. Rosta,  N. J. Russ,  H. F. Schaefer III,  N. E. Schultz,  N. Shenvi,  
 A. C. Simmonett,  A. Sodt,  D. Stuck,  K. S. Thanthiriwatte,  V. Vanovschi,  
 Tao Wang,  A. Warshel,  C. F. Williams,  Q. Wu,  X. Xu,  W. Zhang

 Please cite Q-Chem as follows:
 Y. Shao et al., Mol. Phys. 113, 184-215 (2015)
 DOI: 10.1080/00268976.2014.952696

 Q-Chem 5.0.1 for Intel X86 EM64T Linux

 Parts of Q-Chem use Armadillo 5.200.1 (Boston Tea Smuggler).
 http://arma.sourceforge.net/

 Q-Chem begins on Sun Oct 15 23:13:07 2017  

Host: r0174.ten.osc.edu
0

     Scratch files written to /tmp/pbstmp.1310590/01//
Processing $rem in /users/PAS0291/osu6415/.qchemrc.
molden_format             true

Checking the input file for inconsistencies... 	...done.

--------------------------------------------------------------
User input:
--------------------------------------------------------------
$molecule
0 1
C -0.07850091 -0.74686341 -0.10333393
C -0.91540690 0.38511052 0.01563641
C 1.41943681 -0.66733658 -0.24706507
C -0.35941400 1.77158101 -0.04377370
O 2.01475683 -0.64270901 0.96089822
O 2.01412027 -0.74948031 -1.29232729
O 0.98545618 1.78388162 -0.14587185
O -1.00950865 2.79269427 -0.02396326
C 1.60910247 3.07079114 -0.27553595
C 3.45247606 -0.60767769 0.94793197
C -0.60364226 -2.04841694 -0.10001189
C -1.98215460 -2.19699601 0.04209662
C -2.81255444 -1.09379090 0.17055051
C -2.31586320 0.21073304 0.15399557
H 1.19818009 3.60807522 -1.13093418
H 3.85390788 -1.47848384 0.42719668
H -3.88078014 -1.24310661 0.28264969
H 1.45506725 3.66091156 0.62938801
H 2.66641649 2.86377733 -0.42533118
H 3.75271442 -0.61145579 1.99335049
H 3.80217959 0.29893343 0.45110355
H -2.40982498 -3.19425579 0.05268932
C -3.31128787 1.33901100 0.28488598
C 0.28072207 -3.26428967 -0.24888981
H 0.78971385 -3.26635827 -1.21596420
H -0.30999910 -4.17853127 -0.17270798
H 1.05104870 -3.29698229 0.52713832
H -3.30067262 1.98941235 -0.59100443
H -3.09177314 1.97920196 1.14104386
H -4.31515270 0.92596045 0.40440843
$end

$rem
sym_ignore      true
jobtype         ts
method          b3lyp
basis           6-311++G(d,p)
dft_d           d3_op
mem_total       62000
MEM_STATIC      4000
ao2mo_disk      350000
max_scf_cycles  200
geom_opt_max_cycles 1000
geom_opt_tol_displacement 1
GEOM_OPT_TOL_GRADIENT       1
GEOM_OPT_TOL_ENERGY         1
$end

--------------------------------------------------------------
 Adding empirical dispersion correction 
 ----------------------------------------------------------------
 Doing -D3(op) with
 s6 =   1.00000
 s8 =   0.78311
 a1 =   0.30000
 a2 =   4.25000
 n  =  10.00000
 -D3 energy without 3body term =     -0.0330800582 hartrees
 ----------------------------------------------------------------
             Standard Nuclear Orientation (Angstroms)
    I     Atom           X                Y                Z
 ----------------------------------------------------------------
    1      C      -0.0785009100    -0.7468634100    -0.1033339300
    2      C      -0.9154069000     0.3851105200     0.0156364100
    3      C       1.4194368100    -0.6673365800    -0.2470650700
    4      C      -0.3594140000     1.7715810100    -0.0437737000
    5      O       2.0147568300    -0.6427090100     0.9608982200
    6      O       2.0141202700    -0.7494803100    -1.2923272900
    7      O       0.9854561800     1.7838816200    -0.1458718500
    8      O      -1.0095086500     2.7926942700    -0.0239632600
    9      C       1.6091024700     3.0707911400    -0.2755359500
   10      C       3.4524760600    -0.6076776900     0.9479319700
   11      C      -0.6036422600    -2.0484169400    -0.1000118900
   12      C      -1.9821546000    -2.1969960100     0.0420966200
   13      C      -2.8125544400    -1.0937909000     0.1705505100
   14      C      -2.3158632000     0.2107330400     0.1539955700
   15      H       1.1981800900     3.6080752200    -1.1309341800
   16      H       3.8539078800    -1.4784838400     0.4271966800
   17      H      -3.8807801400    -1.2431066100     0.2826496900
   18      H       1.4550672500     3.6609115600     0.6293880100
   19      H       2.6664164900     2.8637773300    -0.4253311800
   20      H       3.7527144200    -0.6114557900     1.9933504900
   21      H       3.8021795900     0.2989334300     0.4511035500
   22      H      -2.4098249800    -3.1942557900     0.0526893200
   23      C      -3.3112878700     1.3390110000     0.2848859800
   24      C       0.2807220700    -3.2642896700    -0.2488898100
   25      H       0.7897138500    -3.2663582700    -1.2159642000
   26      H      -0.3099991000    -4.1785312700    -0.1727079800
   27      H       1.0510487000    -3.2969822900     0.5271383200
   28      H      -3.3006726200     1.9894123500    -0.5910044300
   29      H      -3.0917731400     1.9792019600     1.1410438600
   30      H      -4.3151527000     0.9259604500     0.4044084300
 ----------------------------------------------------------------
 Nuclear Repulsion Energy =  1142.5056251077 hartrees
 There are       59 alpha and       59 beta electrons
 Requested basis set is 6-311++G(d,p)
 There are 166 shells and 450 basis functions

 Total QAlloc Memory Limit  62000 MB
 Mega-Array Size      3911 MB
 MEM_STATIC part      4000 MB
 A cutoff of  1.0D-11 yielded  10990 shell pairs
 There are     83201 function pairs (     88935 Cartesian)
 
 -------------------------------------------------------
 OpenMP Integral Computing Module                       
 Release: version 1.0, May 2013, Q-Chem Inc. Pittsburgh 
 -------------------------------------------------------
 Integral Job Info:
 Integral job number is                      11
 Integral operator is                         1
 short-range coefficients                     0
 long-range coefficients              100000000
 Omega coefficients                           0
 if combine SR and LR in K                    0
 Integral screening is                        0
 Integral computing path is                   2
 max size of driver memory is            800000
 size of driver memory is                593474
 size of scratch memory is              2361544
 max col of scratch BK array               1296
 max len of scratch array in speh3          155
 max len of scratch index in speh4           18
 max int batch size is                      520
 min int batch size is                       52
 fixed nKL is                                52
 max L of basis functions is                  2
 order of int derivative is                   0
 number of shells is                        166
 number of basis is                         466
 number of cartesian basis is               466
 number of contracted shell pairs         10990
 number of primitive shell pairs          24851
 maxK2 (contraction) of shell pair           36
 max number of K2 of shell pair               1
 max number of CS2 of shell pair           2073
 max number of PS2 of shell pair           3840
 mem total for path MDJ                  161608
 -------------------------------------------------------
 Smallest overlap matrix eigenvalue = 2.72E-08

 Q-Chem warning in module /fs/scratch/osu6415/qchem-kaunlao-vdw/stvman/mkSTV.C, line 281:

 Overlap eigenvalue is smaller than square root of threshold

 Linear dependence detected in AO basis
 Number of orthogonalized atomic orbitals = 446
 Maximum deviation from orthogonality = 8.514E-10

 Scale SEOQF with 1.000000e-01/1.000000e-01/1.000000e-01

 Standard Electronic Orientation quadrupole field applied
 Nucleus-field energy     =     0.0000000423 hartrees
 Guess from superposition of atomic densities
 Warning:  Energy on first SCF cycle will be non-variational
 A restricted hybrid HF-DFT SCF calculation will be
 performed using Pulay DIIS extrapolation
 Exchange:     0.2000 Hartree-Fock + 0.0800 Slater + 0.7200 B88
 Correlation:  0.1900 VWN1RPA + 0.8100 LYP
 Using SG-1 standard quadrature grid
 Dispersion:   Grimme D3
 SCF converges when DIIS error is below 1.0E-08
 using 20 threads for integral computing
 -------------------------------------------------------
 OpenMP Integral computing Module                
 Release: version 1.0, May 2013, Q-Chem Inc. Pittsburgh 
 -------------------------------------------------------
 -------------------------------------------------------
 OpenMP BLAS3 based DFT computing Module                
 Release: version 1.0, May 2013, Q-Chem Inc. Pittsburgh 
 -------------------------------------------------------
 ---------------------------------------
  Cycle       Energy         DIIS Error
 ---------------------------------------
    1    -770.1914463549      3.04E-02
    2    -766.5440921350      3.94E-03
    3    -766.0190357783      6.69E-03
    4    -766.8121339170      1.69E-03
    5    -766.8697478356      3.85E-04
    6    -766.8719213933      1.75E-04
    7    -766.8724969490      3.34E-05
    8    -766.8725152117      1.68E-05
    9    -766.8725222384      3.82E-06
   10    -766.8725225692      1.13E-06
   11    -766.8725225977      3.10E-07
   12    -766.8725225999      1.09E-07
   13    -766.8725225995      4.40E-08
   14    -766.8725225995      1.25E-08
   15    -766.8725225969      4.40E-09 Convergence criterion met
 ---------------------------------------
 SCF time:  CPU 843.48 s  wall 49.39 s
 SCF   energy in the final basis set = -766.87252260
 Total energy in the final basis set = -766.87252260
 
 --------------------------------------------------------------
 
                    Orbital Energies (a.u.)
 --------------------------------------------------------------
 
 Alpha MOs
 -- Occupied --
-19.174 -19.174 -19.116 -19.115 -10.311 -10.310 -10.231 -10.230
-10.207 -10.207 -10.203 -10.200 -10.189 -10.184 -10.175 -10.164
 -1.120  -1.113  -1.029  -1.027  -0.884  -0.808  -0.794  -0.747
 -0.733  -0.725  -0.675  -0.648  -0.617  -0.578  -0.566  -0.536
 -0.516  -0.513  -0.495  -0.483  -0.482  -0.477  -0.467  -0.441
 -0.436  -0.427  -0.424  -0.412  -0.410  -0.402  -0.400  -0.385
 -0.379  -0.371  -0.360  -0.358  -0.354  -0.322  -0.309  -0.294
 -0.285  -0.269  -0.252
 -- Virtual --
 -0.062  -0.025  -0.011  -0.006  -0.000   0.003   0.012   0.016
  0.024   0.032   0.034   0.038   0.039   0.042   0.048   0.049
  0.053   0.059   0.070   0.074   0.076   0.083   0.086   0.092
  0.098   0.099   0.107   0.110   0.112   0.115   0.118   0.120
  0.123   0.126   0.130   0.136   0.138   0.143   0.144   0.145
  0.148   0.150   0.151   0.157   0.158   0.160   0.166   0.173
  0.176   0.178   0.180   0.187   0.189   0.191   0.195   0.196
  0.201   0.209   0.210   0.216   0.220   0.222   0.233   0.236
  0.244   0.249   0.250   0.257   0.258   0.261   0.270   0.272
  0.278   0.289   0.293   0.298   0.302   0.305   0.308   0.310
  0.318   0.320   0.321   0.329   0.332   0.341   0.346   0.351
  0.358   0.359   0.364   0.370   0.377   0.380   0.388   0.398
  0.405   0.410   0.411   0.421   0.423   0.435   0.448   0.452
  0.465   0.468   0.475   0.491   0.500   0.506   0.523   0.532
  0.542   0.546   0.566   0.567   0.570   0.575   0.587   0.593
  0.597   0.599   0.613   0.614   0.627   0.631   0.640   0.649
  0.652   0.658   0.660   0.663   0.669   0.673   0.681   0.685
  0.695   0.705   0.709   0.720   0.726   0.727   0.736   0.749
  0.754   0.761   0.766   0.774   0.782   0.804   0.812   0.824
  0.840   0.860   0.890   0.905   0.923   0.925   0.941   0.958
  0.961   0.966   0.983   0.992   0.999   1.005   1.029   1.037
  1.054   1.063   1.069   1.070   1.090   1.092   1.108   1.122
  1.128   1.159   1.166   1.175   1.209   1.228   1.242   1.277
  1.282   1.293   1.303   1.336   1.346   1.359   1.370   1.376
  1.383   1.401   1.407   1.427   1.437   1.443   1.452   1.461
  1.471   1.476   1.484   1.492   1.511   1.521   1.533   1.542
  1.556   1.563   1.568   1.569   1.577   1.587   1.590   1.609
  1.621   1.634   1.645   1.654   1.662   1.676   1.695   1.704
  1.714   1.715   1.728   1.742   1.743   1.762   1.780   1.781
  1.799   1.805   1.823   1.842   1.853   1.861   1.881   1.884
  1.905   1.913   1.922   1.945   1.963   1.969   1.983   2.012
  2.019   2.037   2.057   2.081   2.098   2.104   2.109   2.117
  2.137   2.151   2.171   2.205   2.209   2.240   2.250   2.256
  2.298   2.318   2.325   2.333   2.409   2.419   2.445   2.463
  2.481   2.486   2.496   2.508   2.513   2.523   2.540   2.550
  2.551   2.562   2.566   2.572   2.590   2.601   2.611   2.619
  2.647   2.669   2.686   2.696   2.705   2.711   2.744   2.748
  2.763   2.789   2.808   2.814   2.834   2.852   2.862   2.873
  2.881   2.894   2.907   2.922   2.937   2.949   2.972   2.993
  3.026   3.043   3.075   3.087   3.096   3.101   3.121   3.131
  3.165   3.199   3.225   3.227   3.245   3.265   3.274   3.284
  3.321   3.376   3.391   3.422   3.434   3.525   3.589   3.602
  3.633   3.669   3.722   3.773   3.779   3.790   3.794   3.808
  3.824   3.853   3.874   3.904   3.956   4.056   4.079   4.105
  4.125   4.178   4.238   4.308   4.389   4.390   4.861   4.999
  5.060   5.077   5.194   5.246   5.280   5.411   5.457   5.627
  5.680   5.871   5.916  23.546  23.858  23.862  23.907  23.927
 23.929  23.944  23.954  23.998  24.048  24.081  24.170  49.908
 49.935  50.011  50.063
 --------------------------------------------------------------
 
          Ground-State Mulliken Net Atomic Charges

     Atom                 Charge (a.u.)
  ----------------------------------------
      1 C                     0.163672
      2 C                     0.168890
      3 C                    -0.981059
      4 C                    -0.082261
      5 O                     0.114664
      6 O                    -0.098524
      7 O                    -0.126621
      8 O                    -0.240163
      9 C                    -0.196967
     10 C                    -0.173419
     11 C                     0.707695
     12 C                    -0.656346
     13 C                    -0.337626
     14 C                     0.408785
     15 H                     0.186136
     16 H                     0.171091
     17 H                     0.134117
     18 H                     0.191620
     19 H                     0.148777
     20 H                     0.154999
     21 H                     0.163599
     22 H                     0.121787
     23 C                    -0.506990
     24 C                    -0.451425
     25 H                     0.192017
     26 H                     0.171535
     27 H                     0.157963
     28 H                     0.180202
     29 H                     0.175773
     30 H                     0.138079
  ----------------------------------------
  Sum of atomic charges =     0.000000

 -----------------------------------------------------------------
                    Cartesian Multipole Moments
 -----------------------------------------------------------------
    Charge (ESU x 10^10)
                 0.0000
    Dipole Moment (Debye)
         X       0.8855      Y      -1.1632      Z       1.5788
       Tot       2.1517
    Quadrupole Moments (Debye-Ang)
        XX     -82.5855     XY       8.3452     YY     -89.1005
        XZ       4.9506     YZ      -1.7128     ZZ     -99.5794
    Octopole Moments (Debye-Ang^2)
       XXX      34.0812    XXY       2.6545    XYY      29.2806
       YYY     -12.1858    XXZ      19.0607    XYZ      -5.3477
       YYZ      -5.2638    XZZ       6.6148    YZZ      13.8377
       ZZZ      -0.1489
    Hexadecapole Moments (Debye-Ang^3)
      XXXX   -2146.5626   XXXY      26.9425   XXYY    -695.8321
      XYYY     116.3556   YYYY   -2002.8543   XXXZ      43.2634
      XXYZ     -18.2756   XYYZ      -5.2170   YYYZ      -2.7311
      XXZZ    -454.2115   XYZZ      -3.3286   YYZZ    -384.7648
      XZZZ      17.0968   YZZZ      -1.4906   ZZZZ    -274.3587
 -----------------------------------------------------------------
 Calculating analytic gradient of the SCF energy
 Gradient of SCF Energy
            1           2           3           4           5           6
    1  -0.0001249   0.0000970  -0.0000296  -0.0000264   0.0000560   0.0000340
    2  -0.0002493  -0.0000574   0.0009780   0.0000264   0.0000369  -0.0007100
    3  -0.0011770   0.0007444   0.0001198   0.0003653  -0.0000054   0.0001180
            7           8           9          10          11          12
    1   0.0000235   0.0000252   0.0000177  -0.0000800  -0.0000015  -0.0000019
    2   0.0000392  -0.0000119  -0.0000450  -0.0000328  -0.0000085   0.0000091
    3   0.0000370  -0.0003547  -0.0000135   0.0000341  -0.0000254   0.0000738
           13          14          15          16          17          18
    1   0.0000053  -0.0000098  -0.0000084   0.0000115  -0.0000094   0.0000122
    2   0.0000063  -0.0000168   0.0000136   0.0000026   0.0000062   0.0000035
    3   0.0000509   0.0000485   0.0000126  -0.0000296  -0.0000144   0.0000069
           19          20          21          22          23          24
    1   0.0000011   0.0000183   0.0000159  -0.0000042   0.0000229   0.0000085
    2   0.0000015  -0.0000183   0.0000023   0.0000018   0.0000548  -0.0000031
    3  -0.0000104  -0.0000131  -0.0000058   0.0000075  -0.0000285  -0.0000031
           25          26          27          28          29          30
    1   0.0000244  -0.0000179  -0.0000432   0.0000081  -0.0000158  -0.0000086
    2   0.0000236   0.0000016  -0.0000271  -0.0000011  -0.0000308   0.0000046
    3   0.0000172  -0.0000556   0.0000317   0.0000244   0.0000427   0.0000016
 Max gradient component =       1.177E-03
 RMS gradient           =       2.064E-04
 Gradient time:  CPU 271.91 s  wall 21.62 s
 Geometry Optimization Parameters
   NAtoms,    NIC,     NZ,  NCons,   NDum,   NFix, NCnnct, MaxDiis
       30     194       0       0       0       0       0       0


** GEOMETRY OPTIMIZATION IN DELOCALIZED INTERNAL COORDINATES **
   Searching for a Transition State

   Optimization Cycle:   1

                       Coordinates (Angstroms)
     ATOM                X               Y               Z
      1  C        -0.0785009100   -0.7468634100   -0.1033339300
      2  C        -0.9154069000    0.3851105200    0.0156364100
      3  C         1.4194368100   -0.6673365800   -0.2470650700
      4  C        -0.3594140000    1.7715810100   -0.0437737000
      5  O         2.0147568300   -0.6427090100    0.9608982200
      6  O         2.0141202700   -0.7494803100   -1.2923272900
      7  O         0.9854561800    1.7838816200   -0.1458718500
      8  O        -1.0095086500    2.7926942700   -0.0239632600
      9  C         1.6091024700    3.0707911400   -0.2755359500
     10  C         3.4524760600   -0.6076776900    0.9479319700
     11  C        -0.6036422600   -2.0484169400   -0.1000118900
     12  C        -1.9821546000   -2.1969960100    0.0420966200
     13  C        -2.8125544400   -1.0937909000    0.1705505100
     14  C        -2.3158632000    0.2107330400    0.1539955700
     15  H         1.1981800900    3.6080752200   -1.1309341800
     16  H         3.8539078800   -1.4784838400    0.4271966800
     17  H        -3.8807801400   -1.2431066100    0.2826496900
     18  H         1.4550672500    3.6609115600    0.6293880100
     19  H         2.6664164900    2.8637773300   -0.4253311800
     20  H         3.7527144200   -0.6114557900    1.9933504900
     21  H         3.8021795900    0.2989334300    0.4511035500
     22  H        -2.4098249800   -3.1942557900    0.0526893200
     23  C        -3.3112878700    1.3390110000    0.2848859800
     24  C         0.2807220700   -3.2642896700   -0.2488898100
     25  H         0.7897138500   -3.2663582700   -1.2159642000
     26  H        -0.3099991000   -4.1785312700   -0.1727079800
     27  H         1.0510487000   -3.2969822900    0.5271383200
     28  H        -3.3006726200    1.9894123500   -0.5910044300
     29  H        -3.0917731400    1.9792019600    1.1410438600
     30  H        -4.3151527000    0.9259604500    0.4044084300
   Point Group: c1    Number of degrees of freedom:    84


   Energy is   -766.872522597


 Attempting to Generate Delocalized Internal Coordinates

 84 Hessian modes will be used to form the next step
  Hessian Eigenvalues:
     0.007746    0.007816    0.008264    0.009843    0.010592    0.010893
     0.013681    0.013813    0.015569    0.016445    0.017449    0.017552
     0.020728    0.022123    0.022419    0.022667    0.023395    0.023452
     0.023754    0.071667    0.071938    0.072637    0.073138    0.101370
     0.101466    0.105950    0.106279    0.159998    0.160000    0.160000
     0.160000    0.160000    0.160000    0.160000    0.160000    0.160000
     0.160000    0.160000    0.160000    0.160000    0.160000    0.224686
     0.244798    0.248953    0.249853    0.249956    0.249981    0.249998
     0.249999    0.250000    0.250000    0.250000    0.250000    0.250000
     0.312671    0.313201    0.316623    0.329100    0.343619    0.344859
     0.345733    0.346555    0.346575    0.346670    0.346797    0.346809
     0.346953    0.347524    0.350736    0.350816    0.353797    0.354655
     0.398327    0.401495    0.406067    0.413500    0.439008    0.456844
     0.458591    0.473014    0.552783    0.556824    0.996460    1.021599
**WARNING** Hessian does not have the Desired Local Structure

 Transition State Search - Taking P-RFO Step
 Searching for Lamda that Maximizes Along the Lowest mode
 Value Taken    Lamda =   0.00774796
 Searching for Lamda that Minimizes Along All other modes
 Value Taken    Lamda =  -0.00010158
 Calculated Step too Large.  Step scaled by  0.004790
 Step Taken.  Stepsize is  0.300000

                             Maximum     Tolerance    Cnvgd?
         Gradient           0.000354      0.000001      NO
         Displacement       0.173522      0.000001      NO
         Energy change     *********      0.000000      NO


 New Cartesian Coordinates Obtained by Inverse Iteration

 Displacement from previous Coordinates is:  0.404923
 Adding empirical dispersion correction 
 ----------------------------------------------------------------
 Doing -D3(op) with
 s6 =   1.00000
 s8 =   0.78311
 a1 =   0.30000
 a2 =   4.25000
 n  =  10.00000
 -D3 energy without 3body term =     -0.0330569649 hartrees
 ----------------------------------------------------------------
             Standard Nuclear Orientation (Angstroms)
    I     Atom           X                Y                Z
 ----------------------------------------------------------------
    1      C      -0.0787384292    -0.7471293457    -0.1022605716
    2      C      -0.9155639897     0.3849280834     0.0164809459
    3      C       1.4189489619    -0.6676542202    -0.2486036916
    4      C      -0.3598096221     1.7713686188    -0.0457841574
    5      O       2.0162965744    -0.6414071425     0.9583239728
    6      O       2.0118834651    -0.7509441390    -1.2947685060
    7      O       0.9848856013     1.7836584583    -0.1501614637
    8      O      -1.0099672616     2.7924466410    -0.0262217374
    9      C       1.6081879634     3.0704506676    -0.2826144521
   10      C       3.4539865074    -0.6061629520     0.9428934549
   11      C      -0.6037436245    -2.0487281581    -0.0962662909
   12      C      -1.9820052825    -2.1972440365     0.0483182543
   13      C      -2.8123034498    -1.0939421133     0.1765983771
   14      C      -2.3157722198     0.2106064879     0.1573956592
   15      H       1.1957817866     3.6065345864    -1.1380515594
   16      H       3.8546819511    -1.4775676251     0.4225925315
   17      H      -3.8803278218    -1.2432060955     0.2906670968
   18      H       1.4556102954     3.6617829452     0.6217651121
   19      H       2.6652699359     2.8633345981    -0.4338987993
   20      H       3.7559834727    -0.6085622061     1.9878093909
   21      H       3.8027066857     0.2998707546     0.4443237725
   22      H      -2.4095575800    -3.1945299754     0.0610063596
   23      C      -3.3110940249     1.3389688340     0.2883401918
   24      C       0.2804961122    -3.2647202876    -0.2449087720
   25      H       0.8809578895    -3.2073314179    -1.1562056645
   26      H      -0.3226067642    -4.1728807629    -0.2907817654
   27      H       0.9715158078    -3.3631121676     0.5974108818
   28      H      -3.3019962205     1.9881319329    -0.5884855530
   29      H      -3.0902259918     1.9803927855     1.1432262043
   30      H      -4.3147172780     0.9259877717     0.4101096886
 ----------------------------------------------------------------
 Nuclear Repulsion Energy =  1142.5023506810 hartrees
 There are       59 alpha and       59 beta electrons
 Applying Cartesian multipole field
    Component          Value
    ---------          -----
     (2,0,0)        1.00000E-11
     (0,2,0)        2.00000E-11
     (0,0,2)       -3.00000E-11
 Nucleus-field energy     =     0.0000000423 hartrees
 Requested basis set is 6-311++G(d,p)
 There are 166 shells and 450 basis functions
 A cutoff of  1.0D-11 yielded  10989 shell pairs
 There are     83205 function pairs (     88938 Cartesian)
 Smallest overlap matrix eigenvalue = 2.71E-08

 Q-Chem warning in module /fs/scratch/osu6415/qchem-kaunlao-vdw/stvman/mkSTV.C, line 281:

 Overlap eigenvalue is smaller than square root of threshold

 Linear dependence detected in AO basis
 Number of orthogonalized atomic orbitals = 446
 Maximum deviation from orthogonality = 6.361E-10
 Guess MOs from SCF MO coefficient file
 Reading MOs from coefficient file
 Reading MOs from coefficient file
 A restricted hybrid HF-DFT SCF calculation will be
 performed using Pulay DIIS extrapolation
 Exchange:     0.2000 Hartree-Fock + 0.0800 Slater + 0.7200 B88
 Correlation:  0.1900 VWN1RPA + 0.8100 LYP
 Using SG-1 standard quadrature grid
 Dispersion:   Grimme D3
 SCF converges when DIIS error is below 1.0E-08
 Geometry optimization detected.  Setting ReadMinima to 0
 Setting SaveMinima to 0
 using 20 threads for integral computing
 -------------------------------------------------------
 OpenMP Integral computing Module                
 Release: version 1.0, May 2013, Q-Chem Inc. Pittsburgh 
 -------------------------------------------------------
 -------------------------------------------------------
 OpenMP BLAS3 based DFT computing Module                
 Release: version 1.0, May 2013, Q-Chem Inc. Pittsburgh 
 -------------------------------------------------------
 ---------------------------------------
  Cycle       Energy         DIIS Error
 ---------------------------------------
    1    -766.8658731607      2.81E-04
    2    -766.8723734246      4.63E-05
    3    -766.8723453575      6.37E-05
    4    -766.8724495912      1.35E-05
    5    -766.8724535436      5.09E-06
    6    -766.8724541964      1.40E-06
    7    -766.8724542340      6.42E-07
    8    -766.8724542415      2.48E-07
    9    -766.8724542425      5.18E-08
   10    -766.8724542428      1.68E-08
   11    -766.8724542444      6.97E-09 Convergence criterion met
 ---------------------------------------
 SCF time:  CPU 619.80 s  wall 34.68 s
 SCF   energy in the final basis set = -766.87245424
 Total energy in the final basis set = -766.87245424
 
 --------------------------------------------------------------
 
                    Orbital Energies (a.u.)
 --------------------------------------------------------------
 
 Alpha MOs
 -- Occupied --
-19.174 -19.174 -19.116 -19.115 -10.311 -10.310 -10.231 -10.230
-10.207 -10.207 -10.203 -10.200 -10.189 -10.184 -10.174 -10.164
 -1.120  -1.113  -1.029  -1.028  -0.884  -0.808  -0.794  -0.747
 -0.733  -0.725  -0.675  -0.648  -0.617  -0.578  -0.566  -0.536
 -0.516  -0.512  -0.495  -0.483  -0.482  -0.477  -0.467  -0.441
 -0.436  -0.427  -0.424  -0.412  -0.410  -0.402  -0.400  -0.385
 -0.379  -0.371  -0.360  -0.359  -0.354  -0.322  -0.309  -0.294
 -0.285  -0.269  -0.252
 -- Virtual --
 -0.062  -0.025  -0.011  -0.006  -0.000   0.003   0.012   0.016
  0.024   0.032   0.034   0.038   0.039   0.042   0.048   0.050
  0.053   0.060   0.069   0.073   0.076   0.083   0.086   0.093
  0.097   0.100   0.108   0.110   0.112   0.115   0.118   0.120
  0.123   0.126   0.131   0.136   0.138   0.143   0.144   0.146
  0.148   0.150   0.151   0.157   0.158   0.160   0.167   0.173
  0.176   0.177   0.180   0.186   0.189   0.191   0.195   0.196
  0.200   0.209   0.210   0.216   0.219   0.223   0.233   0.236
  0.244   0.249   0.250   0.256   0.258   0.261   0.270   0.271
  0.278   0.289   0.293   0.298   0.300   0.305   0.307   0.310
  0.318   0.320   0.322   0.329   0.332   0.338   0.347   0.351
  0.357   0.359   0.364   0.369   0.377   0.381   0.389   0.398
  0.405   0.410   0.411   0.421   0.423   0.434   0.448   0.450
  0.466   0.469   0.476   0.493   0.499   0.506   0.523   0.532
  0.543   0.546   0.565   0.566   0.570   0.575   0.588   0.592
  0.597   0.599   0.613   0.615   0.627   0.631   0.639   0.649
  0.653   0.658   0.661   0.665   0.668   0.673   0.678   0.686
  0.696   0.705   0.710   0.720   0.723   0.727   0.736   0.749
  0.755   0.763   0.767   0.772   0.782   0.804   0.809   0.824
  0.841   0.860   0.889   0.906   0.922   0.924   0.942   0.955
  0.964   0.967   0.984   0.992   0.998   1.006   1.030   1.037
  1.055   1.063   1.068   1.071   1.091   1.092   1.110   1.122
  1.130   1.159   1.163   1.175   1.206   1.231   1.242   1.278
  1.283   1.293   1.304   1.336   1.346   1.359   1.371   1.376
  1.382   1.400   1.401   1.425   1.437   1.442   1.452   1.463
  1.471   1.475   1.487   1.497   1.510   1.520   1.533   1.542
  1.556   1.563   1.568   1.569   1.577   1.587   1.588   1.608
  1.622   1.633   1.645   1.656   1.663   1.675   1.697   1.703
  1.714   1.715   1.728   1.741   1.744   1.765   1.780   1.781
  1.800   1.804   1.824   1.844   1.852   1.860   1.878   1.884
  1.907   1.912   1.924   1.944   1.962   1.970   1.984   2.012
  2.019   2.037   2.056   2.083   2.095   2.104   2.110   2.119
  2.140   2.149   2.173   2.205   2.209   2.240   2.250   2.258
  2.299   2.318   2.325   2.331   2.408   2.419   2.445   2.463
  2.481   2.486   2.495   2.508   2.513   2.524   2.540   2.548
  2.552   2.562   2.566   2.571   2.587   2.601   2.610   2.619
  2.648   2.668   2.687   2.696   2.705   2.712   2.745   2.750
  2.763   2.789   2.809   2.814   2.834   2.852   2.862   2.874
  2.880   2.897   2.906   2.923   2.935   2.951   2.970   2.993
  3.030   3.043   3.077   3.087   3.096   3.104   3.120   3.130
  3.163   3.199   3.225   3.227   3.248   3.263   3.272   3.286
  3.323   3.376   3.391   3.423   3.434   3.525   3.589   3.602
  3.632   3.669   3.724   3.773   3.779   3.790   3.792   3.813
  3.823   3.855   3.874   3.903   3.955   4.056   4.080   4.106
  4.125   4.178   4.238   4.308   4.389   4.390   4.860   4.998
  5.060   5.076   5.196   5.246   5.280   5.410   5.457   5.627
  5.679   5.871   5.916  23.546  23.858  23.862  23.907  23.927
 23.929  23.944  23.954  23.998  24.048  24.081  24.170  49.908
 49.936  50.010  50.063
 --------------------------------------------------------------
 
          Ground-State Mulliken Net Atomic Charges

     Atom                 Charge (a.u.)
  ----------------------------------------
      1 C                     0.163405
      2 C                     0.165519
      3 C                    -0.976660
      4 C                    -0.079539
      5 O                     0.115465
      6 O                    -0.100472
      7 O                    -0.126439
      8 O                    -0.240333
      9 C                    -0.197445
     10 C                    -0.171003
     11 C                     0.692262
     12 C                    -0.650483
     13 C                    -0.345284
     14 C                     0.417616
     15 H                     0.186226
     16 H                     0.170824
     17 H                     0.133309
     18 H                     0.191441
     19 H                     0.149036
     20 H                     0.154941
     21 H                     0.162777
     22 H                     0.123025
     23 C                    -0.503655
     24 C                    -0.449488
     25 H                     0.189287
     26 H                     0.172001
     27 H                     0.159164
     28 H                     0.180169
     29 H                     0.175919
     30 H                     0.138415
  ----------------------------------------
  Sum of atomic charges =     0.000000

 -----------------------------------------------------------------
                    Cartesian Multipole Moments
 -----------------------------------------------------------------
    Charge (ESU x 10^10)
                 0.0000
    Dipole Moment (Debye)
         X       0.8922      Y      -1.1603      Z       1.5875
       Tot       2.1593
    Quadrupole Moments (Debye-Ang)
        XX     -82.5622     XY       8.3370     YY     -89.1155
        XZ       4.9076     YZ      -1.7577     ZZ     -99.5977
    Octopole Moments (Debye-Ang^2)
       XXX      34.1907    XXY       2.6114    XYY      29.2896
       YYY     -12.0922    XXZ      18.9106    XYZ      -5.4369
       YYZ      -5.2857    XZZ       6.6211    YZZ      13.8987
       ZZZ       0.0373
    Hexadecapole Moments (Debye-Ang^3)
      XXXX   -2146.3614   XXXY      26.9192   XXYY    -695.7256
      XYYY     116.3080   YYYY   -2003.2727   XXXZ      44.2730
      XXYZ     -17.5904   XYYZ      -4.2394   YYYZ      -0.9843
      XXZZ    -454.1133   XYZZ      -3.3488   YYZZ    -384.7794
      XZZZ      18.9834   YZZZ      -1.0939   ZZZZ    -274.7573
 -----------------------------------------------------------------
 Calculating analytic gradient of the SCF energy
 Gradient of SCF Energy
            1           2           3           4           5           6
    1  -0.0001403   0.0000929  -0.0000415  -0.0000150   0.0001216  -0.0001268
    2  -0.0002173  -0.0000612   0.0008502   0.0000298   0.0000889  -0.0008334
    3  -0.0012474   0.0006451  -0.0000962   0.0003916   0.0001449   0.0002473
            7           8           9          10          11          12
    1   0.0000201   0.0000205   0.0000159  -0.0000966   0.0001043   0.0000063
    2   0.0000411  -0.0000128  -0.0000482  -0.0000174   0.0000098  -0.0000126
    3   0.0000365  -0.0003598  -0.0000149   0.0000416   0.0003352  -0.0000111
           13          14          15          16          17          18
    1  -0.0000176  -0.0000216  -0.0000103   0.0000360  -0.0000035   0.0000147
    2   0.0000283  -0.0000268   0.0000123  -0.0000008   0.0000053   0.0000070
    3  -0.0001208   0.0000161   0.0000142  -0.0000437   0.0000191   0.0000072
           19          20          21          22          23          24
    1   0.0000014   0.0000205   0.0000203  -0.0000044   0.0000240  -0.0001346
    2   0.0000019  -0.0000166  -0.0000056  -0.0000073   0.0000546   0.0000653
    3  -0.0000098  -0.0000118  -0.0000079   0.0000969   0.0000204   0.0005853
           25          26          27          28          29          30
    1   0.0003168  -0.0000752  -0.0001158   0.0000187  -0.0000206  -0.0000103
    2   0.0002621   0.0000182  -0.0001870  -0.0000072  -0.0000239   0.0000032
    3  -0.0002366  -0.0002143  -0.0002951   0.0000220   0.0000430   0.0000029
 Max gradient component =       1.247E-03
 RMS gradient           =       2.320E-04
 Gradient time:  CPU 274.41 s  wall 20.98 s
 Geometry Optimization Parameters
   NAtoms,    NIC,     NZ,  NCons,   NDum,   NFix, NCnnct, MaxDiis
       30     194       0       0       0       0       0       0

 Cartesian Hessian Update
 Hessian Updated using Powell/Murtagh-Sargent Update
  Mixing factors:     0.000007 Powell
                      0.999993 Murtagh-Sargent


** GEOMETRY OPTIMIZATION IN DELOCALIZED INTERNAL COORDINATES **
   Searching for a Transition State

   Optimization Cycle:   2

                       Coordinates (Angstroms)
     ATOM                X               Y               Z
      1  C        -0.0787384292   -0.7471293457   -0.1022605716
      2  C        -0.9155639897    0.3849280834    0.0164809459
      3  C         1.4189489619   -0.6676542202   -0.2486036916
      4  C        -0.3598096221    1.7713686188   -0.0457841574
      5  O         2.0162965744   -0.6414071425    0.9583239728
      6  O         2.0118834651   -0.7509441390   -1.2947685060
      7  O         0.9848856013    1.7836584583   -0.1501614637
      8  O        -1.0099672616    2.7924466410   -0.0262217374
      9  C         1.6081879634    3.0704506676   -0.2826144521
     10  C         3.4539865074   -0.6061629520    0.9428934549
     11  C        -0.6037436245   -2.0487281581   -0.0962662909
     12  C        -1.9820052825   -2.1972440365    0.0483182543
     13  C        -2.8123034498   -1.0939421133    0.1765983771
     14  C        -2.3157722198    0.2106064879    0.1573956592
     15  H         1.1957817866    3.6065345864   -1.1380515594
     16  H         3.8546819511   -1.4775676251    0.4225925315
     17  H        -3.8803278218   -1.2432060955    0.2906670968
     18  H         1.4556102954    3.6617829452    0.6217651121
     19  H         2.6652699359    2.8633345981   -0.4338987993
     20  H         3.7559834727   -0.6085622061    1.9878093909
     21  H         3.8027066857    0.2998707546    0.4443237725
     22  H        -2.4095575800   -3.1945299754    0.0610063596
     23  C        -3.3110940249    1.3389688340    0.2883401918
     24  C         0.2804961122   -3.2647202876   -0.2449087720
     25  H         0.8809578895   -3.2073314179   -1.1562056645
     26  H        -0.3226067642   -4.1728807629   -0.2907817654
     27  H         0.9715158078   -3.3631121676    0.5974108818
     28  H        -3.3019962205    1.9881319329   -0.5884855530
     29  H        -3.0902259918    1.9803927855    1.1432262043
     30  H        -4.3147172780    0.9259877717    0.4101096886
   Point Group: c1    Number of degrees of freedom:    84


   Energy is   -766.872454244

 Hessian Updated using Powell/Murtagh-Sargent Update
  Mixing factors:     0.223699 Powell
                      0.776301 Murtagh-Sargent

 83 Hessian modes will be used to form the next step
  Hessian Eigenvalues:
     0.000619    0.007816    0.008273    0.009843    0.010592    0.010893
     0.013681    0.013812    0.015557    0.016414    0.017432    0.017529
     0.020724    0.022106    0.022418    0.022666    0.023384    0.023451
     0.023753    0.071667    0.071914    0.072589    0.073138    0.101370
     0.101466    0.105949    0.106279    0.159688    0.159998    0.160000
     0.160000    0.160000    0.160000    0.160000    0.160000    0.160000
     0.160000    0.160000    0.160000    0.160000    0.224680    0.244791
     0.248917    0.249693    0.249854    0.249956    0.249981    0.249998
     0.250000    0.250000    0.250000    0.250000    0.250000    0.312657
     0.313201    0.316609    0.329100    0.343514    0.344691    0.345733
     0.346555    0.346575    0.346670    0.346796    0.346808    0.346953
     0.347524    0.350736    0.350816    0.353797    0.354655    0.398327
     0.401495    0.406067    0.413466    0.438986    0.456835    0.458587
     0.473014    0.552783    0.556791    0.996460    1.021558
**WARNING** Hessian does not have the Desired Local Structure

 Transition State Search - Taking P-RFO Step
 Searching for Lamda that Maximizes Along the Lowest mode
 Value Taken    Lamda =   0.00071102
 Searching for Lamda that Minimizes Along All other modes
 Value Taken    Lamda =  -0.00015513
 Calculated Step too Large.  Step scaled by  0.107782
 Step Taken.  Stepsize is  0.300000

                             Maximum     Tolerance    Cnvgd?
         Gradient           0.000401      0.000001      NO
         Displacement       0.174962      0.000001      NO
         Energy change      0.000068      0.000000      NO


 New Cartesian Coordinates Obtained by Inverse Iteration

 Displacement from previous Coordinates is:  0.409134
 Adding empirical dispersion correction 
 ----------------------------------------------------------------
 Doing -D3(op) with
 s6 =   1.00000
 s8 =   0.78311
 a1 =   0.30000
 a2 =   4.25000
 n  =  10.00000
 -D3 energy without 3body term =     -0.0330281858 hartrees
 ----------------------------------------------------------------
             Standard Nuclear Orientation (Angstroms)
    I     Atom           X                Y                Z
 ----------------------------------------------------------------
    1      C      -0.0787039520    -0.7450215352    -0.1080849424
    2      C      -0.9163765112     0.3862726475     0.0122906211
    3      C       1.4188993838    -0.6623362305    -0.2555178314
    4      C      -0.3618901060     1.7731212731    -0.0519129950
    5      O       2.0176561311    -0.6544174488     0.9507735381
    6      O       2.0109010739    -0.7243011943    -1.3038145123
    7      O       0.9826608439     1.7864046113    -0.1580923470
    8      O      -1.0124969688     2.7938037253    -0.0272652207
    9      C       1.6052012217     3.0738700467    -0.2875929099
   10      C       3.4552564115    -0.6168888302     0.9342262944
   11      C      -0.6025001099    -2.0474053780    -0.0974978419
   12      C      -1.9799695958    -2.1967052577     0.0539372030
   13      C      -2.8109594819    -1.0940124879     0.1826608598
   14      C      -2.3159138294     0.2109718150     0.1581124001
   15      H       1.1916714064     3.6122193933    -1.1410570173
   16      H       3.8563245057    -1.4795573109     0.3999087641
   17      H      -3.8784509458    -1.2441052474     0.3005909633
   18      H       1.4532829041     3.6625006523     0.6186587999
   19      H       2.6622259597     2.8676763085    -0.4405353990
   20      H       3.7584509420    -0.6353175971     1.9786334974
   21      H       3.8021387388     0.2973461401     0.4495350154
   22      H      -2.4064020909    -3.1943809569     0.0713410187
   23      C      -3.3119541100     1.3386890154     0.2891589823
   24      C       0.2830105146    -3.2643439165    -0.2321949334
   25      H       0.9720360366    -3.1633242724    -1.0735529276
   26      H      -0.3193728216    -4.1601242475    -0.3909112599
   27      H       0.8841318724    -3.4204954923     0.6689171584
   28      H      -3.3066111640     1.9854202946    -0.5895003105
   29      H      -3.0887624806     1.9827408878     1.1414556902
   30      H      -4.3147203285     0.9250411124     0.4155785519
 ----------------------------------------------------------------
 Nuclear Repulsion Energy =  1142.4466140728 hartrees
 There are       59 alpha and       59 beta electrons
 Applying Cartesian multipole field
    Component          Value
    ---------          -----
     (2,0,0)        1.00000E-11
     (0,2,0)        2.00000E-11
     (0,0,2)       -3.00000E-11
 Nucleus-field energy     =     0.0000000423 hartrees
 Requested basis set is 6-311++G(d,p)
 There are 166 shells and 450 basis functions
 A cutoff of  1.0D-11 yielded  10992 shell pairs
 There are     83274 function pairs (     89016 Cartesian)
 Smallest overlap matrix eigenvalue = 2.71E-08

 Q-Chem warning in module /fs/scratch/osu6415/qchem-kaunlao-vdw/stvman/mkSTV.C, line 281:

 Overlap eigenvalue is smaller than square root of threshold

 Linear dependence detected in AO basis
 Number of orthogonalized atomic orbitals = 446
 Maximum deviation from orthogonality = 4.093E-10
 Guess MOs from SCF MO coefficient file
 Reading MOs from coefficient file
 Reading MOs from coefficient file
 A restricted hybrid HF-DFT SCF calculation will be
 performed using Pulay DIIS extrapolation
 Exchange:     0.2000 Hartree-Fock + 0.0800 Slater + 0.7200 B88
 Correlation:  0.1900 VWN1RPA + 0.8100 LYP
 Using SG-1 standard quadrature grid
 Dispersion:   Grimme D3
 SCF converges when DIIS error is below 1.0E-08
 Geometry optimization detected.  Setting ReadMinima to 0
 Setting SaveMinima to 0
 using 20 threads for integral computing
 -------------------------------------------------------
 OpenMP Integral computing Module                
 Release: version 1.0, May 2013, Q-Chem Inc. Pittsburgh 
 -------------------------------------------------------
 -------------------------------------------------------
 OpenMP BLAS3 based DFT computing Module                
 Release: version 1.0, May 2013, Q-Chem Inc. Pittsburgh 
 -------------------------------------------------------
 ---------------------------------------
  Cycle       Energy         DIIS Error
 ---------------------------------------
    1    -766.8655135655      3.53E-04
    2    -766.8722772267      4.84E-05
    3    -766.8722398497      6.79E-05
    4    -766.8723586034      1.59E-05
    5    -766.8723639599      6.41E-06
    6    -766.8723648355      2.43E-06
    7    -766.8723649303      1.06E-06
    8    -766.8723649518      2.79E-07
    9    -766.8723649533      6.34E-08
   10    -766.8723649533      2.34E-08
   11    -766.8723649552      1.13E-08
   12    -766.8723649526      4.16E-09 Convergence criterion met
 ---------------------------------------
 SCF time:  CPU 661.72 s  wall 39.80 s
 SCF   energy in the final basis set = -766.87236495
 Total energy in the final basis set = -766.87236495
 
 --------------------------------------------------------------
 
                    Orbital Energies (a.u.)
 --------------------------------------------------------------
 
 Alpha MOs
 -- Occupied --
-19.174 -19.174 -19.116 -19.115 -10.311 -10.310 -10.231 -10.230
-10.207 -10.207 -10.203 -10.200 -10.189 -10.184 -10.174 -10.164
 -1.120  -1.113  -1.029  -1.027  -0.884  -0.808  -0.794  -0.747
 -0.733  -0.725  -0.675  -0.648  -0.617  -0.578  -0.566  -0.535
 -0.516  -0.513  -0.494  -0.483  -0.482  -0.477  -0.467  -0.441
 -0.436  -0.427  -0.424  -0.413  -0.410  -0.402  -0.399  -0.385
 -0.379  -0.371  -0.360  -0.359  -0.354  -0.322  -0.309  -0.294
 -0.285  -0.269  -0.252
 -- Virtual --
 -0.062  -0.025  -0.011  -0.006  -0.001   0.003   0.012   0.016
  0.024   0.032   0.034   0.038   0.039   0.041   0.047   0.051
  0.053   0.060   0.069   0.072   0.076   0.083   0.086   0.093
  0.096   0.100   0.108   0.111   0.112   0.115   0.118   0.120
  0.123   0.126   0.130   0.135   0.138   0.143   0.145   0.146
  0.148   0.150   0.151   0.157   0.158   0.160   0.167   0.173
  0.175   0.176   0.179   0.186   0.189   0.191   0.195   0.197
  0.200   0.210   0.210   0.216   0.219   0.223   0.234   0.235
  0.245   0.249   0.251   0.255   0.258   0.261   0.270   0.271
  0.280   0.289   0.293   0.296   0.298   0.303   0.306   0.310
  0.317   0.320   0.322   0.328   0.332   0.336   0.348   0.351
  0.356   0.359   0.364   0.368   0.376   0.381   0.389   0.399
  0.405   0.408   0.411   0.420   0.424   0.433   0.448   0.449
  0.467   0.471   0.479   0.497   0.499   0.506   0.523   0.532
  0.545   0.546   0.563   0.566   0.570   0.575   0.587   0.591
  0.597   0.599   0.613   0.615   0.626   0.630   0.640   0.648
  0.654   0.658   0.660   0.666   0.667   0.672   0.677   0.688
  0.696   0.705   0.711   0.719   0.724   0.727   0.736   0.749
  0.756   0.762   0.766   0.770   0.782   0.802   0.809   0.825
  0.841   0.861   0.887   0.906   0.922   0.924   0.940   0.952
  0.964   0.970   0.984   0.993   0.999   1.009   1.031   1.038
  1.054   1.064   1.068   1.072   1.092   1.093   1.111   1.120
  1.129   1.148   1.163   1.176   1.202   1.232   1.242   1.277
  1.285   1.292   1.303   1.336   1.346   1.359   1.370   1.377
  1.378   1.395   1.402   1.424   1.438   1.441   1.453   1.463
  1.470   1.475   1.486   1.499   1.512   1.523   1.536   1.542
  1.555   1.563   1.568   1.570   1.576   1.585   1.589   1.608
  1.622   1.634   1.645   1.656   1.664   1.677   1.694   1.701
  1.713   1.714   1.728   1.737   1.742   1.767   1.779   1.783
  1.798   1.806   1.824   1.846   1.847   1.860   1.880   1.885
  1.907   1.914   1.926   1.943   1.960   1.971   1.985   2.013
  2.020   2.035   2.056   2.081   2.094   2.104   2.111   2.121
  2.139   2.153   2.174   2.204   2.209   2.237   2.250   2.260
  2.302   2.317   2.326   2.331   2.403   2.422   2.445   2.463
  2.481   2.486   2.495   2.505   2.513   2.524   2.540   2.547
  2.555   2.562   2.566   2.574   2.584   2.602   2.613   2.619
  2.647   2.668   2.688   2.697   2.704   2.714   2.742   2.752
  2.763   2.788   2.808   2.815   2.835   2.851   2.862   2.874
  2.880   2.899   2.906   2.921   2.935   2.953   2.970   2.991
  3.029   3.045   3.073   3.086   3.096   3.101   3.120   3.128
  3.162   3.201   3.223   3.226   3.247   3.261   3.272   3.284
  3.323   3.376   3.392   3.420   3.434   3.526   3.589   3.601
  3.632   3.669   3.725   3.773   3.779   3.790   3.794   3.815
  3.822   3.856   3.875   3.902   3.954   4.056   4.079   4.106
  4.124   4.178   4.238   4.308   4.389   4.390   4.859   4.999
  5.060   5.075   5.199   5.246   5.280   5.410   5.458   5.628
  5.679   5.870   5.916  23.546  23.857  23.862  23.907  23.927
 23.929  23.944  23.954  23.998  24.048  24.081  24.170  49.909
 49.937  50.010  50.063
 --------------------------------------------------------------
 
          Ground-State Mulliken Net Atomic Charges

     Atom                 Charge (a.u.)
  ----------------------------------------
      1 C                     0.144424
      2 C                     0.165840
      3 C                    -0.976913
      4 C                    -0.079299
      5 O                     0.115537
      6 O                    -0.099525
      7 O                    -0.126768
      8 O                    -0.240651
      9 C                    -0.198103
     10 C                    -0.169238
     11 C                     0.662192
     12 C                    -0.610365
     13 C                    -0.354544
     14 C                     0.445907
     15 H                     0.186254
     16 H                     0.171157
     17 H                     0.131497
     18 H                     0.191051
     19 H                     0.149845
     20 H                     0.154978
     21 H                     0.160808
     22 H                     0.127893
     23 C                    -0.505791
     24 C                    -0.461241
     25 H                     0.186496
     26 H                     0.169635
     27 H                     0.163848
     28 H                     0.180116
     29 H                     0.176075
     30 H                     0.138888
  ----------------------------------------
  Sum of atomic charges =     0.000000

 -----------------------------------------------------------------
                    Cartesian Multipole Moments
 -----------------------------------------------------------------
    Charge (ESU x 10^10)
                 0.0000
    Dipole Moment (Debye)
         X       0.8969      Y      -1.1953      Z       1.6150
       Tot       2.2003
    Quadrupole Moments (Debye-Ang)
        XX     -82.5468     XY       8.2409     YY     -89.0435
        XZ       4.8927     YZ      -1.7703     ZZ     -99.6490
    Octopole Moments (Debye-Ang^2)
       XXX      34.3788    XXY       2.1739    XYY      29.5016
       YYY     -12.4449    XXZ      18.9889    XYZ      -5.3116
       YYZ      -5.2015    XZZ       6.4826    YZZ      13.6770
       ZZZ       0.9014
    Hexadecapole Moments (Debye-Ang^3)
      XXXX   -2145.8686   XXXY      26.8271   XXYY    -695.5752
      XYYY     117.3313   YYYY   -2004.1685   XXXZ      45.5088
      XXYZ     -16.2290   XYYZ      -3.5162   YYYZ       1.9418
      XXZZ    -454.1983   XYZZ      -3.1698   YYZZ    -384.4013
      XZZZ      21.4391   YZZZ       0.7750   ZZZZ    -275.1910
 -----------------------------------------------------------------
 Calculating analytic gradient of the SCF energy
 Gradient of SCF Energy
            1           2           3           4           5           6
    1  -0.0001335   0.0001560  -0.0000108  -0.0001020   0.0002535  -0.0001915
    2   0.0002506  -0.0001488   0.0003443  -0.0000146   0.0000781  -0.0004675
    3  -0.0015134   0.0009253   0.0005210  -0.0002098   0.0001378   0.0000977
            7           8           9          10          11          12
    1   0.0001120   0.0000440   0.0000052  -0.0001641  -0.0000804   0.0000911
    2  -0.0000201  -0.0000137  -0.0000227  -0.0000204  -0.0003001  -0.0000334
    3  -0.0000486  -0.0000806  -0.0000220   0.0000420  -0.0000904   0.0001701
           13          14          15          16          17          18
    1  -0.0000308  -0.0001101  -0.0000113   0.0000393  -0.0000046   0.0000200
    2   0.0001652  -0.0001010   0.0000237  -0.0000061   0.0000120  -0.0000078
    3  -0.0000949  -0.0000009   0.0000138  -0.0000436   0.0000065   0.0000037
           19          20          21          22          23          24
    1   0.0000055   0.0000213   0.0000283   0.0000150   0.0000114  -0.0002232
    2   0.0000103  -0.0000214   0.0000089   0.0000244   0.0000618  -0.0000163
    3   0.0000078  -0.0000101  -0.0000135   0.0001335  -0.0000299   0.0005879
           25          26          27          28          29          30
    1   0.0003593  -0.0000182  -0.0000868   0.0000120  -0.0000016  -0.0000049
    2   0.0003842   0.0001083  -0.0002598  -0.0000112  -0.0000134   0.0000065
    3  -0.0000924  -0.0001920  -0.0003141   0.0000318   0.0000544   0.0000231
 Max gradient component =       1.513E-03
 RMS gradient           =       2.420E-04
 Gradient time:  CPU 272.81 s  wall 21.38 s
 Geometry Optimization Parameters
   NAtoms,    NIC,     NZ,  NCons,   NDum,   NFix, NCnnct, MaxDiis
       30     194       0       0       0       0       0       0

 Cartesian Hessian Update
 Hessian Updated using Powell/Murtagh-Sargent Update
  Mixing factors:     0.901667 Powell
                      0.098333 Murtagh-Sargent


** GEOMETRY OPTIMIZATION IN DELOCALIZED INTERNAL COORDINATES **
   Searching for a Transition State

   Optimization Cycle:   3

                       Coordinates (Angstroms)
     ATOM                X               Y               Z
      1  C        -0.0787039520   -0.7450215352   -0.1080849424
      2  C        -0.9163765112    0.3862726475    0.0122906211
      3  C         1.4188993838   -0.6623362305   -0.2555178314
      4  C        -0.3618901060    1.7731212731   -0.0519129950
      5  O         2.0176561311   -0.6544174488    0.9507735381
      6  O         2.0109010739   -0.7243011943   -1.3038145123
      7  O         0.9826608439    1.7864046113   -0.1580923470
      8  O        -1.0124969688    2.7938037253   -0.0272652207
      9  C         1.6052012217    3.0738700467   -0.2875929099
     10  C         3.4552564115   -0.6168888302    0.9342262944
     11  C        -0.6025001099   -2.0474053780   -0.0974978419
     12  C        -1.9799695958   -2.1967052577    0.0539372030
     13  C        -2.8109594819   -1.0940124879    0.1826608598
     14  C        -2.3159138294    0.2109718150    0.1581124001
     15  H         1.1916714064    3.6122193933   -1.1410570173
     16  H         3.8563245057   -1.4795573109    0.3999087641
     17  H        -3.8784509458   -1.2441052474    0.3005909633
     18  H         1.4532829041    3.6625006523    0.6186587999
     19  H         2.6622259597    2.8676763085   -0.4405353990
     20  H         3.7584509420   -0.6353175971    1.9786334974
     21  H         3.8021387388    0.2973461401    0.4495350154
     22  H        -2.4064020909   -3.1943809569    0.0713410187
     23  C        -3.3119541100    1.3386890154    0.2891589823
     24  C         0.2830105146   -3.2643439165   -0.2321949334
     25  H         0.9720360366   -3.1633242724   -1.0735529276
     26  H        -0.3193728216   -4.1601242475   -0.3909112599
     27  H         0.8841318724   -3.4204954923    0.6689171584
     28  H        -3.3066111640    1.9854202946   -0.5895003105
     29  H        -3.0887624806    1.9827408878    1.1414556902
     30  H        -4.3147203285    0.9250411124    0.4155785519
   Point Group: c1    Number of degrees of freedom:    84


   Energy is   -766.872364953

 Hessian Updated using Powell/Murtagh-Sargent Update
  Mixing factors:     0.999996 Powell
                      0.000004 Murtagh-Sargent

 74 Hessian modes will be used to form the next step
  Hessian Eigenvalues:
     0.000093    0.007817    0.008415    0.009979    0.010592    0.010893
     0.013734    0.013851    0.015562    0.016419    0.017477    0.017545
     0.020782    0.022127    0.022419    0.022666    0.023385    0.023451
     0.023753    0.071667    0.071915    0.072589    0.073138    0.101370
     0.101466    0.105949    0.106279    0.159690    0.159998    0.160000
     0.160000    0.160000    0.224680    0.244791    0.248918    0.249693
     0.249855    0.249956    0.249981    0.249999    0.250000    0.250000
     0.250000    0.250004    0.312657    0.313201    0.316609    0.329100
     0.343514    0.344691    0.345733    0.346555    0.346575    0.346670
     0.346796    0.346808    0.346953    0.347524    0.350736    0.350816
     0.353797    0.354655    0.398327    0.401495    0.406067    0.413466
     0.438987    0.456835    0.458587    0.473015    0.552783    0.556791
     0.996460    1.021558
**WARNING** Magnitude of eigenvalue   1 too small.  Replaced by     0.000100
**WARNING** Hessian does not have the Desired Local Structure

 Transition State Search - Taking P-RFO Step
 Searching for Lamda that Maximizes Along the Lowest mode
 Value Taken    Lamda =   0.00048753
 Searching for Lamda that Minimizes Along All other modes
 Value Taken    Lamda =  -0.00007356
 Calculated Step too Large.  Step scaled by  0.266883
 Step Taken.  Stepsize is  0.300000

                             Maximum     Tolerance    Cnvgd?
         Gradient           0.000453      0.000001      NO
         Displacement       0.171923      0.000001      NO
         Energy change      0.000089      0.000000      NO


 New Cartesian Coordinates Obtained by Inverse Iteration

 Displacement from previous Coordinates is:  0.449933
 Adding empirical dispersion correction 
 ----------------------------------------------------------------
 Doing -D3(op) with
 s6 =   1.00000
 s8 =   0.78311
 a1 =   0.30000
 a2 =   4.25000
 n  =  10.00000
 -D3 energy without 3body term =     -0.0330086477 hartrees
 ----------------------------------------------------------------
             Standard Nuclear Orientation (Angstroms)
    I     Atom           X                Y                Z
 ----------------------------------------------------------------
    1      C      -0.0793884289    -0.7436821308    -0.1117393037
    2      C      -0.9182793176     0.3874232059     0.0055882288
    3      C       1.4168960603    -0.6578364864    -0.2727126159
    4      C      -0.3647586788     1.7749156379    -0.0543207740
    5      O       2.0243970107    -0.6524646193     0.9289309352
    6      O       2.0015242809    -0.7238414392    -1.3250041031
    7      O       0.9811775298     1.7896859680    -0.1392965003
    8      O      -1.0172624066     2.7946645735    -0.0462297748
    9      C       1.6043634089     3.0771725193    -0.2650515079
   10      C       3.4620579503    -0.6207355376     0.9019331540
   11      C      -0.6017380793    -2.0466276948    -0.0904814561
   12      C      -1.9789017686    -2.1963267847     0.0638536395
   13      C      -2.8110263226    -1.0940197235     0.1862952446
   14      C      -2.3173881835     0.2113795505     0.1536177725
   15      H       1.2042501284     3.6106795947    -1.1278757874
   16      H       3.8554482919    -1.4856658576     0.3656709516
   17      H      -3.8782914681    -1.2446425537     0.3056255525
   18      H       1.4371270190     3.6702145218     0.6356324125
   19      H       2.6639120845     2.8712638843    -0.3998713294
   20      H       3.7726675097    -0.6393931407     1.9441480594
   21      H       3.8090538076     0.2915825988     0.4138049103
   22      H      -2.4043193415    -3.1943706799     0.0868733285
   23      C      -3.3145366026     1.3386246014     0.2800294812
   24      C       0.2840612009    -3.2656185570    -0.2070955659
   25      H       1.0552853041    -3.1303343142    -0.9674722205
   26      H      -0.3062799680    -4.1434635848    -0.4746551484
   27      H       0.7875509433    -3.4779443742     0.7417807915
   28      H      -3.3105324056     1.9812190590    -0.6017090962
   29      H      -3.0915287852     1.9869955531     1.1290410881
   30      H      -4.3167773231     0.9244867302     0.4089385433
 ----------------------------------------------------------------
 Nuclear Repulsion Energy =  1142.3993683699 hartrees
 There are       59 alpha and       59 beta electrons
 Applying Cartesian multipole field
    Component          Value
    ---------          -----
     (2,0,0)        1.00000E-11
     (0,2,0)        2.00000E-11
     (0,0,2)       -3.00000E-11
 Nucleus-field energy     =     0.0000000424 hartrees
 Requested basis set is 6-311++G(d,p)
 There are 166 shells and 450 basis functions
 A cutoff of  1.0D-11 yielded  10988 shell pairs
 There are     83209 function pairs (     88943 Cartesian)
 Smallest overlap matrix eigenvalue = 2.63E-08

 Q-Chem warning in module /fs/scratch/osu6415/qchem-kaunlao-vdw/stvman/mkSTV.C, line 281:

 Overlap eigenvalue is smaller than square root of threshold

 Linear dependence detected in AO basis
 Number of orthogonalized atomic orbitals = 446
 Maximum deviation from orthogonality = 1.784E-10
 Guess MOs from SCF MO coefficient file
 Reading MOs from coefficient file
 Reading MOs from coefficient file
 A restricted hybrid HF-DFT SCF calculation will be
 performed using Pulay DIIS extrapolation
 Exchange:     0.2000 Hartree-Fock + 0.0800 Slater + 0.7200 B88
 Correlation:  0.1900 VWN1RPA + 0.8100 LYP
 Using SG-1 standard quadrature grid
 Dispersion:   Grimme D3
 SCF converges when DIIS error is below 1.0E-08
 Geometry optimization detected.  Setting ReadMinima to 0
 Setting SaveMinima to 0
 using 20 threads for integral computing
 -------------------------------------------------------
 OpenMP Integral computing Module                
 Release: version 1.0, May 2013, Q-Chem Inc. Pittsburgh 
 -------------------------------------------------------
 -------------------------------------------------------
 OpenMP BLAS3 based DFT computing Module                
 Release: version 1.0, May 2013, Q-Chem Inc. Pittsburgh 
 -------------------------------------------------------
 ---------------------------------------
  Cycle       Energy         DIIS Error
 ---------------------------------------
    1    -766.8695007998      3.75E-04
    2    -766.8721424006      4.85E-05
    3    -766.8721210293      6.65E-05
    4    -766.8722189926      1.62E-05
    5    -766.8722233285      7.59E-06
    6    -766.8722243921      2.37E-06
    7    -766.8722244782      1.03E-06
    8    -766.8722244975      2.94E-07
    9    -766.8722244998      7.84E-08
   10    -766.8722244993      3.88E-08
   11    -766.8722244990      1.10E-08
   12    -766.8722244986      4.42E-09 Convergence criterion met
 ---------------------------------------
 SCF time:  CPU 671.64 s  wall 38.57 s
 SCF   energy in the final basis set = -766.87222450
 Total energy in the final basis set = -766.87222450
 
 --------------------------------------------------------------
 
                    Orbital Energies (a.u.)
 --------------------------------------------------------------
 
 Alpha MOs
 -- Occupied --
-19.174 -19.174 -19.116 -19.115 -10.311 -10.310 -10.231 -10.230
-10.207 -10.207 -10.203 -10.200 -10.189 -10.184 -10.174 -10.164
 -1.120  -1.113  -1.029  -1.027  -0.884  -0.808  -0.794  -0.747
 -0.733  -0.725  -0.675  -0.648  -0.617  -0.578  -0.566  -0.535
 -0.516  -0.513  -0.494  -0.483  -0.482  -0.477  -0.467  -0.441
 -0.436  -0.427  -0.424  -0.413  -0.410  -0.402  -0.399  -0.385
 -0.379  -0.371  -0.361  -0.359  -0.354  -0.322  -0.309  -0.294
 -0.285  -0.269  -0.252
 -- Virtual --
 -0.062  -0.025  -0.011  -0.006  -0.001   0.003   0.012   0.016
  0.024   0.031   0.034   0.038   0.039   0.041   0.046   0.051
  0.053   0.060   0.069   0.072   0.076   0.084   0.087   0.093
  0.096   0.100   0.107   0.111   0.113   0.115   0.118   0.119
  0.124   0.127   0.130   0.134   0.138   0.143   0.145   0.146
  0.147   0.150   0.152   0.157   0.159   0.161   0.167   0.172
  0.173   0.176   0.180   0.185   0.189   0.191   0.196   0.197
  0.200   0.210   0.211   0.217   0.219   0.224   0.233   0.234
  0.245   0.249   0.251   0.254   0.259   0.261   0.270   0.272
  0.281   0.289   0.291   0.295   0.299   0.302   0.306   0.310
  0.315   0.320   0.322   0.327   0.333   0.334   0.348   0.353
  0.354   0.359   0.362   0.368   0.377   0.383   0.389   0.398
  0.403   0.407   0.411   0.420   0.425   0.432   0.448   0.449
  0.468   0.472   0.480   0.497   0.504   0.508   0.522   0.531
  0.545   0.547   0.560   0.567   0.570   0.575   0.583   0.592
  0.597   0.598   0.612   0.616   0.625   0.631   0.640   0.647
  0.654   0.658   0.660   0.664   0.668   0.671   0.677   0.689
  0.697   0.704   0.710   0.717   0.726   0.728   0.736   0.748
  0.757   0.759   0.765   0.771   0.782   0.800   0.812   0.825
  0.841   0.861   0.885   0.905   0.921   0.924   0.938   0.949
  0.965   0.972   0.986   0.994   0.998   1.013   1.031   1.040
  1.053   1.064   1.067   1.074   1.091   1.093   1.110   1.111
  1.128   1.139   1.160   1.177   1.198   1.231   1.242   1.273
  1.285   1.293   1.300   1.337   1.346   1.358   1.370   1.374
  1.380   1.397   1.406   1.424   1.438   1.442   1.453   1.462
  1.469   1.475   1.486   1.500   1.511   1.526   1.539   1.542
  1.553   1.564   1.567   1.571   1.574   1.583   1.591   1.607
  1.623   1.635   1.645   1.655   1.663   1.679   1.688   1.700
  1.713   1.714   1.726   1.731   1.739   1.768   1.779   1.784
  1.795   1.808   1.824   1.844   1.848   1.861   1.883   1.888
  1.908   1.917   1.930   1.943   1.960   1.973   1.984   2.014
  2.019   2.032   2.055   2.074   2.096   2.104   2.112   2.122
  2.137   2.157   2.177   2.201   2.209   2.233   2.247   2.260
  2.303   2.316   2.327   2.334   2.400   2.424   2.445   2.463
  2.480   2.486   2.494   2.501   2.513   2.524   2.538   2.546
  2.557   2.562   2.567   2.577   2.585   2.603   2.616   2.624
  2.647   2.668   2.689   2.697   2.703   2.715   2.733   2.757
  2.762   2.786   2.809   2.815   2.835   2.852   2.861   2.874
  2.880   2.902   2.904   2.918   2.936   2.955   2.973   2.990
  3.022   3.046   3.064   3.085   3.095   3.099   3.120   3.128
  3.160   3.202   3.220   3.226   3.245   3.261   3.270   3.282
  3.323   3.377   3.392   3.416   3.434   3.526   3.588   3.601
  3.632   3.668   3.724   3.773   3.779   3.790   3.795   3.815
  3.820   3.856   3.875   3.899   3.952   4.056   4.079   4.106
  4.123   4.177   4.237   4.308   4.389   4.391   4.858   5.002
  5.060   5.076   5.199   5.246   5.280   5.411   5.458   5.627
  5.679   5.870   5.916  23.545  23.856  23.861  23.907  23.927
 23.929  23.944  23.954  23.997  24.048  24.081  24.170  49.910
 49.938  50.010  50.063
 --------------------------------------------------------------
 
          Ground-State Mulliken Net Atomic Charges

     Atom                 Charge (a.u.)
  ----------------------------------------
      1 C                     0.114022
      2 C                     0.143786
      3 C                    -0.997820
      4 C                    -0.070554
      5 O                     0.119461
      6 O                    -0.095700
      7 O                    -0.127240
      8 O                    -0.240544
      9 C                    -0.199463
     10 C                    -0.171293
     11 C                     0.651291
     12 C                    -0.562634
     13 C                    -0.362472
     14 C                     0.485960
     15 H                     0.186910
     16 H                     0.171003
     17 H                     0.128875
     18 H                     0.190609
     19 H                     0.147920
     20 H                     0.154947
     21 H                     0.161071
     22 H                     0.135068
     23 C                    -0.507516
     24 C                    -0.473990
     25 H                     0.186675
     26 H                     0.165316
     27 H                     0.170790
     28 H                     0.180400
     29 H                     0.175775
     30 H                     0.139349
  ----------------------------------------
  Sum of atomic charges =     0.000000

 -----------------------------------------------------------------
                    Cartesian Multipole Moments
 -----------------------------------------------------------------
    Charge (ESU x 10^10)
                 0.0000
    Dipole Moment (Debye)
         X       0.9061      Y      -1.1995      Z       1.6724
       Tot       2.2487
    Quadrupole Moments (Debye-Ang)
        XX     -82.4742     XY       8.2502     YY     -88.9905
        XZ       4.7968     YZ      -1.7160     ZZ     -99.7852
    Octopole Moments (Debye-Ang^2)
       XXX      34.9479    XXY       1.9675    XYY      29.6458
       YYY     -12.6178    XXZ      18.8700    XYZ      -5.3289
       YYZ      -4.2917    XZZ       6.1190    YZZ      13.5793
       ZZZ       2.0558
    Hexadecapole Moments (Debye-Ang^3)
      XXXX   -2146.7970   XXXY      26.9911   XXYY    -696.5683
      XYYY     118.2267   YYYY   -2005.6565   XXXZ      46.2483
      XXYZ     -15.2685   XYYZ      -2.8056   YYYZ       4.6620
      XXZZ    -455.0642   XYZZ      -2.5249   YYZZ    -383.7752
      XZZZ      23.8489   YZZZ       0.7862   ZZZZ    -272.9270
 -----------------------------------------------------------------
 Calculating analytic gradient of the SCF energy
 Gradient of SCF Energy
            1           2           3           4           5           6
    1   0.0000991   0.0002908  -0.0000395   0.0000333  -0.0000294   0.0000252
    2  -0.0000634  -0.0001039   0.0013660   0.0000529   0.0001344  -0.0012876
    3  -0.0010590   0.0004145  -0.0002690   0.0008740   0.0000385   0.0002393
            7           8           9          10          11          12
    1  -0.0000365  -0.0000039   0.0000335  -0.0000503  -0.0005868   0.0002047
    2   0.0000877  -0.0000142  -0.0000391  -0.0000679  -0.0005187  -0.0000380
    3  -0.0001913  -0.0003641   0.0000730  -0.0000152   0.0000977   0.0001766
           13          14          15          16          17          18
    1  -0.0000306  -0.0002243   0.0000113   0.0000018  -0.0000023  -0.0000075
    2   0.0002948  -0.0002089   0.0000044   0.0000049   0.0000067   0.0000217
    3   0.0000041  -0.0001272   0.0000151  -0.0000387   0.0000258   0.0000158
           19          20          21          22          23          24
    1   0.0000014   0.0000116  -0.0000193  -0.0000010   0.0000514  -0.0002429
    2  -0.0000268  -0.0000191   0.0000067   0.0000444   0.0000450  -0.0002152
    3  -0.0000318  -0.0000077  -0.0000040   0.0000691   0.0000815   0.0001987
           25          26          27          28          29          30
    1   0.0005153  -0.0000026   0.0000168  -0.0000072  -0.0000051  -0.0000070
    2   0.0005556   0.0001535  -0.0001721   0.0000344  -0.0000366  -0.0000015
    3   0.0000957  -0.0001920  -0.0001104   0.0000001   0.0000088  -0.0000179
 Max gradient component =       1.366E-03
 RMS gradient           =       2.943E-04
 Gradient time:  CPU 271.13 s  wall 21.68 s
 Geometry Optimization Parameters
   NAtoms,    NIC,     NZ,  NCons,   NDum,   NFix, NCnnct, MaxDiis
       30     194       0       0       0       0       0       0

 Cartesian Hessian Update
 Hessian Updated using Powell/Murtagh-Sargent Update
  Mixing factors:     0.777246 Powell
                      0.222754 Murtagh-Sargent


** GEOMETRY OPTIMIZATION IN DELOCALIZED INTERNAL COORDINATES **
   Searching for a Transition State

   Optimization Cycle:   4

                       Coordinates (Angstroms)
     ATOM                X               Y               Z
      1  C        -0.0793884289   -0.7436821308   -0.1117393037
      2  C        -0.9182793176    0.3874232059    0.0055882288
      3  C         1.4168960603   -0.6578364864   -0.2727126159
      4  C        -0.3647586788    1.7749156379   -0.0543207740
      5  O         2.0243970107   -0.6524646193    0.9289309352
      6  O         2.0015242809   -0.7238414392   -1.3250041031
      7  O         0.9811775298    1.7896859680   -0.1392965003
      8  O        -1.0172624066    2.7946645735   -0.0462297748
      9  C         1.6043634089    3.0771725193   -0.2650515079
     10  C         3.4620579503   -0.6207355376    0.9019331540
     11  C        -0.6017380793   -2.0466276948   -0.0904814561
     12  C        -1.9789017686   -2.1963267847    0.0638536395
     13  C        -2.8110263226   -1.0940197235    0.1862952446
     14  C        -2.3173881835    0.2113795505    0.1536177725
     15  H         1.2042501284    3.6106795947   -1.1278757874
     16  H         3.8554482919   -1.4856658576    0.3656709516
     17  H        -3.8782914681   -1.2446425537    0.3056255525
     18  H         1.4371270190    3.6702145218    0.6356324125
     19  H         2.6639120845    2.8712638843   -0.3998713294
     20  H         3.7726675097   -0.6393931407    1.9441480594
     21  H         3.8090538076    0.2915825988    0.4138049103
     22  H        -2.4043193415   -3.1943706799    0.0868733285
     23  C        -3.3145366026    1.3386246014    0.2800294812
     24  C         0.2840612009   -3.2656185570   -0.2070955659
     25  H         1.0552853041   -3.1303343142   -0.9674722205
     26  H        -0.3062799680   -4.1434635848   -0.4746551484
     27  H         0.7875509433   -3.4779443742    0.7417807915
     28  H        -3.3105324056    1.9812190590   -0.6017090962
     29  H        -3.0915287852    1.9869955531    1.1290410881
     30  H        -4.3167773231    0.9244867302    0.4089385433
   Point Group: c1    Number of degrees of freedom:    84


   Energy is   -766.872224499

 Hessian Updated using Powell/Murtagh-Sargent Update
  Mixing factors:     0.984127 Powell
                      0.015873 Murtagh-Sargent

 76 Hessian modes will be used to form the next step
  Hessian Eigenvalues:
    -0.000642    0.007817    0.009064    0.010063    0.010592    0.010893
     0.013799    0.014298    0.015563    0.016415    0.017534    0.017696
     0.021077    0.022279    0.022435    0.022671    0.023389    0.023451
     0.023754    0.071667    0.071938    0.072592    0.073138    0.101370
     0.101466    0.105949    0.106280    0.159691    0.159998    0.160000
     0.160000    0.160000    0.160016    0.224685    0.244803    0.248922
     0.249790    0.249866    0.249956    0.249981    0.250000    0.250000
     0.250000    0.250000    0.250004    0.250250    0.312658    0.313201
     0.316609    0.329101    0.343519    0.344695    0.345733    0.346555
     0.346575    0.346670    0.346796    0.346809    0.346954    0.347524
     0.350736    0.350816    0.353797    0.354655    0.398327    0.401495
     0.406073    0.413466    0.438988    0.456836    0.458587    0.473021
     0.552785    0.556799    0.996460    1.021558

 Transition State Search - Taking P-RFO Step
 Searching for Lamda that Maximizes Along the Lowest mode
 Value Taken    Lamda =   0.00001009
 Searching for Lamda that Minimizes Along All other modes
 Value Taken    Lamda =  -0.00028970
 Step Taken.  Stepsize is  0.199256

                             Maximum     Tolerance    Cnvgd?
         Gradient           0.001022      0.000001      NO
         Displacement       0.067266      0.000001      NO
         Energy change      0.000140      0.000000      NO


 New Cartesian Coordinates Obtained by Inverse Iteration

 Displacement from previous Coordinates is:  0.366207
 Adding empirical dispersion correction 
 ----------------------------------------------------------------
 Doing -D3(op) with
 s6 =   1.00000
 s8 =   0.78311
 a1 =   0.30000
 a2 =   4.25000
 n  =  10.00000
 -D3 energy without 3body term =     -0.0330140332 hartrees
 ----------------------------------------------------------------
             Standard Nuclear Orientation (Angstroms)
    I     Atom           X                Y                Z
 ----------------------------------------------------------------
    1      C      -0.0779853454    -0.7424358121    -0.1068897047
    2      C      -0.9187840281     0.3880862980     0.0046169993
    3      C       1.4180617363    -0.6509505554    -0.2689550925
    4      C      -0.3668927042     1.7755688059    -0.0664591752
    5      O       2.0321960340    -0.7098264651     0.9278769332
    6      O       1.9966673724    -0.6046494264    -1.3257193431
    7      O       0.9795194697     1.7913159200    -0.1433520983
[...]
    -0.00005937     -0.00015313     -0.00001701
    -0.00080573     -0.00004833      0.00026610
     0.00011720     -0.00007589     -0.00001235
    -0.00018167      0.00030379      0.00003115
     0.00261497     -0.00065374     -0.00027394
    -0.00034662     -0.00062448      0.00001296
    -0.00087153      0.00116302     -0.00188640
     0.00422971     -0.00999520     -0.00598970
    -0.02693513     -0.00105079      0.00236931
    -0.00037833      0.00132244      0.00219965
     0.00202631     -0.00044586     -0.00030750
     0.00240098     -0.00010778      0.00842340
     0.00369728      0.01069230     -0.00567633
     0.00025446      0.00169538      0.00004446
    -0.04263168      0.02743019      0.00393620
     0.00031521     -0.00017483     -0.00011053
    -0.00215335      0.00021146      0.00485124
     0.00137068      0.00211380     -0.00036096
    -0.00314750     -0.00000848     -0.00295049
    -0.02580477     -0.30141882      0.41696006
    -0.10651254     -0.28954052     -0.40090123
     0.62960932      0.27342287     -0.06136583
vibration 73
    -0.00007081      0.00003044     -0.00012070
     0.00003462     -0.00001925     -0.00000905
     0.00087069      0.00001433      0.00296316
    -0.00026505     -0.00007063      0.00002630
    -0.00282018     -0.00012647     -0.00098857
     0.00047497     -0.00002265     -0.00088764
     0.00020707      0.00029586     -0.00005761
     0.00002415     -0.00001474      0.00000022
     0.00108209      0.00415819      0.00027897
    -0.04162119     -0.00240422      0.01446834
    -0.00000978      0.00002309      0.00001520
     0.00001940     -0.00006102      0.00000421
    -0.00008750      0.00004352      0.00000907
    -0.00001327      0.00000010      0.00001078
     0.02243939     -0.02878107      0.04635186
     0.21532450     -0.50466688     -0.30308758
     0.00073604      0.00006401     -0.00007796
     0.00968713     -0.03348149     -0.05599296
    -0.04625310      0.00959039      0.00652091
     0.11964652     -0.00532716      0.41350220
     0.18903412      0.53982972     -0.28650251
     0.00014072      0.00040867     -0.00000457
     0.00081505     -0.00052846     -0.00006997
    -0.00015073     -0.00036575     -0.00054177
    -0.00264692      0.00012396      0.00555693
     0.00236849      0.00383467     -0.00087813
     0.00173230      0.00040901      0.00168048
     0.00047285      0.00581994     -0.00803015
     0.00201980      0.00553412      0.00765117
    -0.01206656     -0.00522047      0.00117143
vibration 74
     0.00000826      0.00004657     -0.00000547
    -0.00029795     -0.00011707      0.00002533
    -0.00001943      0.00021839      0.00027314
     0.00289080     -0.00047886     -0.00026655
    -0.00020791     -0.00005489     -0.00005509
     0.00008735     -0.00005128     -0.00011111
    -0.00203397     -0.00199751      0.00030927
    -0.00050002      0.00077101      0.00003485
    -0.00854359     -0.04313227     -0.00226028
    -0.00429836      0.00001097      0.00151417
    -0.00003397      0.00001059      0.00000282
    -0.00000620     -0.00007640     -0.00000246
    -0.00011295     -0.00000589      0.00001111
     0.00009491     -0.00007037     -0.00001096
    -0.22560758      0.29324929     -0.47015135
     0.02257220     -0.05236049     -0.03158896
     0.00090786      0.00001971     -0.00008694
    -0.09629462      0.33413486      0.55694628
     0.43270447     -0.08797628     -0.06230047
     0.01196520     -0.00058118      0.04124290
     0.01863349      0.05306409     -0.02830619
     0.00024256      0.00063364     -0.00000984
     0.00006223     -0.00034870     -0.00000636
    -0.00026056      0.00006783      0.00000815
     0.00116952     -0.00008140     -0.00262993
    -0.00060680     -0.00086355      0.00012747
     0.00256697      0.00009297      0.00235834
     0.00016977      0.00259042     -0.00357597
     0.00086419      0.00251579      0.00350241
    -0.00193654     -0.00087566      0.00018998
vibration 75
     0.00002642      0.00000648      0.00023009
     0.00001051      0.00002143     -0.00004892
    -0.00005091      0.00015294     -0.00046846
    -0.00004016     -0.00002267     -0.00001249
     0.00003322     -0.00019413      0.00010665
     0.00000854      0.00013295      0.00015491
     0.00001769      0.00000111      0.00000202
     0.00000401      0.00000500     -0.00000057
     0.00001799     -0.00001751      0.00004783
     0.00032990      0.00033278      0.00002302
     0.00003198     -0.00027196     -0.00050389
    -0.00001940      0.00013372     -0.00025665
    -0.00002992     -0.00007169     -0.00000594
     0.00000829      0.00002428     -0.00000586
    -0.00021373      0.00029085     -0.00044514
    -0.00035813      0.00140968      0.00068863
     0.00073589      0.00012504      0.00001678
     0.00002829     -0.00008390     -0.00015165
    -0.00007914      0.00003060      0.00000719
    -0.00103771      0.00011852     -0.00364862
    -0.00191981     -0.00512806      0.00279594
    -0.00015742     -0.00103667     -0.00018366
     0.00010658      0.00003332      0.00030260
    -0.02020184     -0.00394366     -0.08948724
    -0.30188243      0.01879601      0.63167046
     0.00817123      0.01853061     -0.02210380
     0.53286588      0.01135580      0.46478962
     0.00005958      0.00150521     -0.00190323
    -0.00048851     -0.00153165     -0.00200879
    -0.00085122     -0.00037539      0.00012517
vibration 76
    -0.00000507     -0.00000039     -0.00006862
     0.00003951      0.00000026      0.00040032
    -0.00000556      0.00000132     -0.00002378
    -0.00000918      0.00001160      0.00001758
     0.00000281     -0.00000463      0.00000657
     0.00000008      0.00000039      0.00000737
    -0.00000486     -0.00000366     -0.00011655
     0.00004536     -0.00000980      0.00033198
     0.00011624      0.00000252      0.00109580
    -0.00000190      0.00002115      0.00001799
    -0.00000742      0.00000459     -0.00001195
     0.00000003      0.00003275     -0.00001420
    -0.00012614     -0.00002101     -0.00030309
    -0.00010031      0.00014730     -0.00064642
    -0.00317369      0.00424844     -0.00642305
     0.00008934     -0.00020150     -0.00012427
     0.00107467      0.00013675     -0.00040879
     0.00121724     -0.00416849     -0.00662975
     0.00061260     -0.00010948      0.00010043
    -0.00004002      0.00000003     -0.00015013
    -0.00003574     -0.00009666      0.00005579
    -0.00009677     -0.00036244      0.00023418
    -0.00785812      0.00145031     -0.09092872
    -0.00062014     -0.00047326     -0.00016959
     0.00002005     -0.00013351     -0.00045351
     0.00364849      0.00571537     -0.00100849
     0.00375575      0.00000678      0.00347774
    -0.02937551     -0.43308346      0.55894688
     0.13937325      0.42027087      0.54228522
    -0.01562129     -0.00595774     -0.01437590
vibration 77
    -0.00010818     -0.00002544      0.00004975
    -0.00017501      0.00020190      0.00003682
    -0.00007814      0.00026497      0.00021031
    -0.00013891      0.00000849      0.00000840
    -0.00001522     -0.00005852     -0.00002728
     0.00009303     -0.00011013     -0.00013244
     0.00005712     -0.00002514     -0.00000414
     0.00004957     -0.00002741     -0.00000918
     0.00008911      0.00001048     -0.00002597
     0.00018316     -0.00079413     -0.00024400
    -0.00140598      0.00015751      0.00021663
     0.00186300      0.00450367     -0.00012794
    -0.00074334     -0.00029569      0.00004971
     0.00012100      0.00011697     -0.00000686
     0.00013209     -0.00018241      0.00025155
    -0.00288194      0.00691532      0.00435909
     0.01199421      0.00143268     -0.00110050
     0.00001975     -0.00008226     -0.00010753
    -0.00117313      0.00028389      0.00016086
     0.00019576     -0.00023801      0.00061710
     0.00104710      0.00299916     -0.00183024
    -0.01804052     -0.04920533      0.00118073
     0.00321453      0.00359295      0.00049701
    -0.06845386     -0.05914751      0.01812947
     0.13197232     -0.02297553     -0.32516069
     0.46630778      0.72669192     -0.11880369
     0.22713491     -0.00672673      0.22537852
     0.00010800     -0.01123511      0.01664892
    -0.00568054     -0.01825421     -0.02594433
    -0.03259159     -0.01383531      0.00332862
vibration 78
     0.00011682     -0.00018558     -0.00001466
    -0.00007922     -0.00022381      0.00001461
    -0.00003050     -0.00003412      0.00000922
     0.00069943     -0.00053337     -0.00005280
     0.00000202      0.00000628     -0.00000592
     0.00000905      0.00001038     -0.00001055
    -0.00030368      0.00006108      0.00002139
    -0.00056323      0.00018029      0.00006624
    -0.00017816      0.00031022      0.00006929
     0.00000812      0.00055006     -0.00003951
    -0.00004925      0.00007120      0.00000655
    -0.00022223     -0.00041803      0.00001051
     0.00525935      0.00082233     -0.00051399
    -0.00038495     -0.00130162      0.00006831
     0.00093231     -0.00128796      0.00186683
     0.00129755     -0.00290953     -0.00190369
    -0.05574196     -0.00439868      0.00515925
     0.00048074     -0.00167865     -0.00256751
     0.00125901     -0.00020164     -0.00017905
     0.00008275      0.00009940      0.00024014
    -0.00131111     -0.00376042      0.00208460
     0.00369652      0.00815497     -0.00011864
    -0.06199103     -0.06850294      0.00438228
    -0.00356778     -0.00317367      0.00087236
     0.00641779     -0.00119154     -0.01600786
     0.02498703      0.03907378     -0.00638540
     0.01192678     -0.00039787      0.01180199
     0.00230067      0.27390205     -0.39453948
     0.08540650      0.27997031      0.40620653
     0.65124799      0.27519256     -0.06408442
vibration 79
     0.00003361     -0.00026536     -0.00000204
     0.00005383      0.00006056      0.00000954
     0.00000813      0.00015963     -0.00000441
    -0.00018189     -0.00007936      0.00000432
    -0.00003805      0.00031616     -0.00001301
    -0.00005887      0.00015053     -0.00003388
     0.00007740      0.00005679     -0.00000242
     0.00004179      0.00000735     -0.00000371
     0.00131621     -0.00065141      0.00225795
     0.00333575     -0.09474048     -0.00096399
    -0.00002656     -0.00000557     -0.00001034
    -0.00001754     -0.00005808     -0.00000581
     0.00003581      0.00002577      0.00000052
    -0.00002493     -0.00002355     -0.00000086
    -0.00891122      0.01195798     -0.01861846
    -0.24522686      0.55690533      0.35735172
    -0.00044709     -0.00000811      0.00004871
     0.00213907     -0.00609874     -0.00963077
    -0.00875045      0.00221333      0.00136793
    -0.00398824     -0.01873290     -0.01563073
     0.21030663      0.58196157     -0.32953897
     0.00028724      0.00072877     -0.00000262
    -0.00038367     -0.00042892      0.00002628
     0.00051120      0.00050239     -0.00040556
    -0.00189795      0.00030773      0.00456222
    -0.00415726     -0.00616717      0.00089527
     0.00021475      0.00039480     -0.00046026
    -0.00002398      0.00172854     -0.00250014
     0.00050758      0.00178805      0.00261626
     0.00410932      0.00174467     -0.00040149
vibration 80
     0.00000351     -0.00000428      0.00002108
    -0.00000407      0.00000685     -0.00022036
     0.00001116     -0.00000959     -0.00022204
    -0.00008580     -0.00001414      0.00018065
     0.00002535      0.00003004      0.00006750
    -0.00003767     -0.00001325      0.00009397
     0.00006662      0.00005583      0.00037759
     0.00000500     -0.00004189      0.00016739
    -0.00819112     -0.00110312     -0.09456035
     0.00007193     -0.00233553      0.00029918
    -0.00000054     -0.00000026      0.00000481
    -0.00000074      0.00000238     -0.00000735
     0.00000584      0.00000089      0.00000267
     0.00000014      0.00000532      0.00000158
     0.28083820     -0.35975823      0.54761647
    -0.00548459      0.01261455      0.00812840
    -0.00005510     -0.00000003     -0.00001116
    -0.11346256      0.35954540      0.57858869
    -0.06996854      0.01334068     -0.00841054
    -0.00085663     -0.00055326     -0.00293868
     0.00559686      0.01539684     -0.00887141
    -0.00000660     -0.00000918     -0.00000728
    -0.00013420     -0.00002719     -0.00106877
     0.00000604      0.00001679     -0.00006721
    -0.00023367      0.00003577      0.00049499
    -0.00015063     -0.00022015      0.00002190
     0.00029189      0.00000601      0.00022845
    -0.00037191     -0.00485580      0.00624503
     0.00169752      0.00506629      0.00658399
     0.00026360      0.00012313     -0.00016355
vibration 81
    -0.00002014     -0.00002714      0.00005772
     0.00006451     -0.00006039     -0.00001431
     0.00051220     -0.00001262     -0.00035786
    -0.00000045      0.00103525      0.00003883
     0.00007243      0.00001416      0.00024397
    -0.00018914      0.00000862      0.00019421
     0.00023465     -0.00013737     -0.00003699
     0.00009190     -0.00042072      0.00000116
    -0.06857527      0.03168857      0.00503875
    -0.00350263     -0.00070950     -0.05653656
    -0.00000629     -0.00000324     -0.00000192
    -0.00008340     -0.00022086     -0.00000164
    -0.00002788      0.00000607      0.00000276
    -0.00000473      0.00001255     -0.00000489
     0.09750750     -0.13326741      0.22613886
    -0.06544510      0.15651305      0.08409541
     0.00028895      0.00002642     -0.00002498
     0.02059618     -0.10450374     -0.18748376
     0.69265855     -0.14175796     -0.09828929
     0.15095470     -0.00651451      0.52083964
    -0.04804616     -0.14188194      0.06491529
     0.00101810      0.00239066     -0.00004086
     0.00016172      0.00015117     -0.00004167
     0.00000991      0.00004612     -0.00008850
    -0.00019308      0.00005682      0.00062297
    -0.00042389     -0.00060129      0.00010468
     0.00057287      0.00001688      0.00033393
     0.00009463     -0.00063587      0.00100887
    -0.00003582     -0.00037693     -0.00071381
    -0.00187206     -0.00086558      0.00017940
vibration 82
    -0.00000232      0.00000950      0.00006566
    -0.00005208      0.00004645      0.00000575
     0.00096780     -0.00001199     -0.00047839
     0.00006597     -0.00081010     -0.00004070
     0.00000210      0.00001616      0.00027580
    -0.00035282      0.00001152      0.00030371
    -0.00019065      0.00011373      0.00005418
    -0.00009377      0.00034674      0.00000456
     0.05135004     -0.02379604     -0.00416593
    -0.00438849      0.00121098     -0.07553546
    -0.00000744     -0.00001068     -0.00000399
    -0.00012766     -0.00031398      0.00000022
     0.00012276      0.00004371     -0.00001020
     0.00000267     -0.00002183     -0.00000471
    -0.07213661      0.09869896     -0.16754550
    -0.08327492      0.19865403      0.10608441
    -0.00169389     -0.00023924      0.00015544
    -0.01606188      0.08010341      0.14321647
    -0.51909784      0.10596055      0.07353100
     0.20077740     -0.00830850      0.69322626
    -0.07058776     -0.20488293      0.09576759
     0.00153863      0.00366396     -0.00005948
    -0.00007949     -0.00008861     -0.00000044
     0.00012296      0.00009839     -0.00009581
    -0.00043204      0.00017239      0.00131079
    -0.00092499     -0.00127813      0.00022238
    -0.00006908      0.00010110     -0.00036009
    -0.00007215      0.00032526     -0.00053539
     0.00004737      0.00038959      0.00062624
     0.00084384      0.00041852     -0.00008461
vibration 83
    -0.00003158      0.00058386      0.00003107
    -0.00036782      0.00027929      0.00002914
     0.00020010     -0.00005751     -0.00001050
    -0.00001634     -0.00020955      0.00000007
    -0.00006271      0.00000873     -0.00002489
    -0.00006680      0.00001733      0.00002937
     0.00003287      0.00002593     -0.00000273
    -0.00002603      0.00005322      0.00000301
    -0.00006750      0.00002387      0.00000502
     0.00005588      0.00002013      0.00040254
     0.00224135     -0.00097431     -0.00025448
    -0.02884678     -0.06349046      0.00123793
     0.04727105      0.00885969     -0.00450486
     0.00049773     -0.00131754     -0.00005672
     0.00011970     -0.00011653      0.00022132
     0.00036560     -0.00103706     -0.00052742
    -0.56456006     -0.08000012      0.05406283
     0.00004373     -0.00008301     -0.00018268
     0.00072269     -0.00009733     -0.00010310
    -0.00122148      0.00004397     -0.00401068
     0.00021394      0.00075932     -0.00030864
     0.32057045      0.74653662     -0.01249326
     0.00324623      0.00221236     -0.00028542
    -0.00276416     -0.00313763      0.00068589
     0.00297228      0.00003810     -0.00818805
     0.02328698      0.04078134     -0.00614358
     0.00620810      0.00073886      0.00623502
    -0.00028406     -0.00654870      0.00954508
    -0.00227269     -0.00651700     -0.00958309
    -0.03923950     -0.01500797      0.00379092
vibration 84
     0.00017571      0.00041245     -0.00000181
     0.00060398     -0.00006412     -0.00004792
     0.00013747     -0.00005112     -0.00002210
     0.00000137      0.00026588     -0.00000023
    -0.00006166      0.00000344     -0.00002448
    -0.00005469      0.00001086      0.00003902
    -0.00008084     -0.00007650      0.00001005
     0.00003886     -0.00011256     -0.00000154
     0.00008617      0.00006424     -0.00000511
     0.00006114      0.00001351      0.00014962
     0.00248279     -0.00031549     -0.00025042
    -0.01819257     -0.04826515      0.00056944
    -0.07120441     -0.00816321      0.00687550
     0.00007519      0.00290184      0.00002769
     0.00014787     -0.00028404      0.00031851
     0.00000810     -0.00016307     -0.00006420
     0.80257267      0.10693594     -0.07699690
     0.00005525     -0.00033560     -0.00039033
    -0.00115361      0.00016057      0.00016635
    -0.00055697      0.00001634     -0.00173488
    -0.00005397     -0.00004306      0.00005546
     0.22147680      0.52804009     -0.00838610
    -0.00341667     -0.00204541      0.00033147
    -0.00130422     -0.00164598      0.00036542
     0.00049084      0.00058264     -0.00265773
     0.01156147      0.02082577     -0.00308381
     0.00102924      0.00096044      0.00163820
     0.00088983      0.00413623     -0.00707144
     0.00227888      0.00389570      0.00666093
     0.04125817      0.01545232     -0.00397332
[INT]
    1.686375
    0.209344
    1.884973
    0.245067
    4.758231
    0.480480
    1.407301
    0.873210
    0.593409
    0.514070
    0.211107
    0.292028
    3.085699
    0.280864
    7.634019
    1.465108
    1.617734
   10.194417
    8.877283
    6.502264
    0.134841
    1.305593
    8.616542
    7.119750
    5.468029
    0.194327
   13.040714
   15.111361
    1.244987
   16.839052
   13.981992
   11.808928
    5.779375
    7.543807
    0.347949
   15.772307
    5.306474
    8.942380
   16.525466
   39.140336
    3.922725
   82.426623
    0.869200
    0.814335
   83.917006
   23.549469
   26.999344
  243.673183
   67.752008
  212.437004
  227.287021
   74.198917
   25.088850
    3.279560
   21.458084
   18.188997
   29.278216
    5.737318
    5.920411
   11.135518
   17.929617
    5.370192
    0.779303
    8.282133
    7.615621
   16.834755
   24.522279
    1.463633
  318.453442
  240.678477
   22.236059
   27.125118
   31.105467
   41.163944
    8.684192
    7.440343
   14.196494
   20.122740
   19.428151
   16.252981
   15.577676
   10.515519
    8.271471
   20.704702

======= END OF MOLDEN-FORMATTED INPUT FILE =======


        *************************************************************
        *                                                           *
        *  Thank you very much for using Q-Chem.  Have a nice day.  *
        *                                                           *
        *************************************************************


