r0178.ten.osc.edu 10.25.155
Q-Chem Developer Version! Running on 10.25.155.*
                  Welcome to Q-Chem
     A Quantum Leap Into The Future Of Chemistry


 Q-Chem 5.0, Q-Chem, Inc., Pleasanton, CA (2017)

 Yihan Shao,  Zhengting Gan,  E. Epifanovsky,  A. T. B. Gilbert,  M. Wormit,  
 J. Kussmann,  A. W. Lange,  A. Behn,  Jia Deng,  Xintian Feng,  D. Ghosh,  
 M. Goldey,  P. R. Horn,  L. D. Jacobson,  I. Kaliman,  T. Kus,  A. Landau,  
 Jie Liu,  E. I. Proynov,  R. M. Richard,  R. P. Steele,  E. J. Sundstrom,  
 H. L. Woodcock III,  P. M. Zimmerman,  D. Zuev,  B. Albrecht,  E. Alguire,  
 S. A. Baeppler,  Z. Benda,  Y. A. Bernard,  E. J. Berquist,  K. B. Bravaya,  
 D. Casanova,  Chun-Min Chang,  Yunqing Chen,  A. Chien,  K. D. Closser,  
 M. P. Coons,  S. Dasgupta,  M. Diedenhofen,  Hainam Do,  R. G. Edgar,  
 Po-Tung Fang,  S. Fatehi,  Qingguo Feng,  Qinghui Ge,  A. Ghysels,  
 J. Gomes,  J. Gonthier,  A. Gunina,  M. W. D. Hanson-Heine,  
 P. H. P. Harbach,  A. W. Hauser,  J. E. Herr,  E. G. Hohenstein,  
 Z. C. Holden,  Kerwin Hui,  T.-C. Jagau,  Hyunjun Ji,  B. Kaduk,  
 K. Khistyaev,  Jaehoon Kim,  P. Klunzinger,  K. Koh,  D. Kosenkov,  
 T. Kowalczyk,  C. M. Krauter,  A. Kunitsa,  Ka Un Lao,  A. Laurent,  
 K. V. Lawler,  Joonho Lee,  D. Lefrancois,  S. Lehtola,  D. S. Levine,  
 Yi-Pei Li,  You-Sheng Lin,  Fenglai Liu,  E. Livshits,  A. Luenser,  
 P. Manohar,  E. Mansoor,  S. F. Manzer,  Shan-Ping Mao,  Yuezhi Mao,  
 N. Mardirossian,  A. V. Marenich,  L. A. Martinez-Martinez,  S. A. Maurer,  
 N. J. Mayhall,  S. C. McKenzie,  J.-M. Mewes,  A. F. Morrison,  K. Nanda,  
 T. S. Nguyen-Beck,  R. Olivares-Amaya,  J. A. Parkhill,  T. M. Perrine,  
 F. Plasser,  S. Prager,  A. Prociuk,  D. R. Rehn,  F. Rob,  M. Schneider,  
 N. Sergueev,  S. M. Sharada,  S. Sharma,  D. W. Small,  T. Stauch,  
 T. Stein,  Yu-Chuan Su,  A. J. W. Thom,  T. Tsuchimochi,  L. Vogt,  
 O. Vydrov,  M. A. Watson,  J. Wenzel,  M. de Wergifosse,  T. A. Wesolowski,  
 A. White,  J. Witte,  A. Yamada,  Jun Yang,  K. Yao,  S. Yeganeh,  
 S. R. Yost,  Zhi-Qiang You,  A. Zech,  Igor Ying Zhang,  Xing Zhang,  
 Yan Zhao,  Ying Zhu,  B. R. Brooks,  G. K. L. Chan,  C. J. Cramer,  
 M. S. Gordon,  W. J. Hehre,  A. Klamt,  M. W. Schmidt,  C. D. Sherrill,  
 D. G. Truhlar,  A. Aspuru-Guzik,  R. Baer,  A. T. Bell,  N. A. Besley,  
 Jeng-Da Chai,  A. Dreuw,  B. D. Dunietz,  T. R. Furlani,  Chao-Ping Hsu,  
 Yousung Jung,  Jing Kong,  D. S. Lambrecht,  WanZhen Liang,  C. Ochsenfeld,  
 V. A. Rassolov,  L. V. Slipchenko,  J. E. Subotnik,  T. Van Voorhis,  
 J. M. Herbert,  A. I. Krylov,  P. M. W. Gill,  M. Head-Gordon

 Contributors to earlier versions of Q-Chem not listed above: 
 R. D. Adamson,  B. Austin,  J. Baker,  G. J. O. Beran,  K. Brandhorst,  
 S. T. Brown,  E. F. C. Byrd,  A. K. Chakraborty,  C.-L. Cheng,  
 Siu Hung Chien,  D. M. Chipman,  D. L. Crittenden,  H. Dachsel,  
 R. A. DiStasio Jr.,  R. J. Doerksen,  A. D. Dutoi,  L. Fusti-Molnar,  
 W. A. Goddard III,  A. Golubeva-Zadorozhnaya,  S. R. Gwaltney,  G. Hawkins,  
 A. Heyden,  S. Hirata,  G. Kedziora,  F. J. Keil,  C. Kelley,  Jihan Kim,  
 R. A. King,  R. Z. Khaliullin,  P. P. Korambath,  W. Kurlancheek,  
 A. M. Lee,  M. S. Lee,  S. V. Levchenko,  Ching Yeh Lin,  D. Liotard,  
 R. C. Lochan,  I. Lotan,  P. E. Maslen,  N. Nair,  D. P. O'Neill,  
 D. Neuhauser,  E. Neuscamman,  C. M. Oana,  R. Olson,  B. Peters,  
 R. Peverati,  P. A. Pieniazek,  Y. M. Rhee,  J. Ritchie,  M. A. Rohrdanz,  
 E. Rosta,  N. J. Russ,  H. F. Schaefer III,  N. E. Schultz,  N. Shenvi,  
 A. C. Simmonett,  A. Sodt,  D. Stuck,  K. S. Thanthiriwatte,  V. Vanovschi,  
 Tao Wang,  A. Warshel,  C. F. Williams,  Q. Wu,  X. Xu,  W. Zhang

 Please cite Q-Chem as follows:
 Y. Shao et al., Mol. Phys. 113, 184-215 (2015)
 DOI: 10.1080/00268976.2014.952696

 Q-Chem 5.0.1 for Intel X86 EM64T Linux

 Parts of Q-Chem use Armadillo 5.200.1 (Boston Tea Smuggler).
 http://arma.sourceforge.net/

 Q-Chem begins on Sat Oct 14 21:27:54 2017  

Host: r0178.ten.osc.edu
0

     Scratch files written to /tmp/pbstmp.1310499/02//
Processing $rem in /users/PAS0291/osu6415/.qchemrc.
molden_format             true

Checking the input file for inconsistencies... 	...done.

--------------------------------------------------------------
User input:
--------------------------------------------------------------
$molecule
0 1
C -0.54471367 -0.68991726 -0.06626207
C -0.55485096 0.71257879 0.06077630
C 0.74744976 -1.44665703 -0.08093946
C 0.73143626 1.47729190 0.07028362
O 1.54337138 -1.07345559 0.94471805
O 1.03628479 -2.31935749 -0.86309044
O 1.53286376 1.08551033 -0.94468701
O 1.01783547 2.35861830 0.84340325
C 2.82940031 1.70387131 -1.00253956
C 2.82880993 -1.71524764 1.00930436
C -1.74551169 -1.41905368 -0.13173018
C -2.94011863 -0.69996807 -0.06147034
C -2.95067667 0.68253670 0.06563983
C -1.76734948 1.42081732 0.13097013
H 2.73303410 2.78412826 -1.11957691
H 2.71151331 -2.79399297 1.12228632
H -3.89989245 1.20560342 0.11142001
H 3.39198635 1.49174067 -0.09139902
H 3.31961989 1.26554297 -1.86896596
H 3.32087816 -1.28897125 1.88057560
H 3.40145158 -1.51181819 0.10256129
H -3.88079993 -1.23886770 -0.10337154
C -1.83186010 2.92401867 0.25616748
C -1.79021059 -2.92458083 -0.25638458
H -1.41323052 -3.25319390 -1.22674062
H -2.81604056 -3.27960666 -0.14263577
H -1.17631300 -3.41560740 0.50300011
H -1.22834759 3.42147662 -0.50719957
H -1.45215155 3.25611490 1.22423866
H -2.86276471 3.26606838 0.14934708
$end

$rem
sym_ignore      true
jobtype         opt
method          b3lyp
basis           6-311++G(d,p)
dft_d           d3_op
mem_total       62000
MEM_STATIC      4000
ao2mo_disk      350000
max_scf_cycles  200
geom_opt_max_cycles 1000
geom_opt_tol_displacement 1
GEOM_OPT_TOL_GRADIENT       1
GEOM_OPT_TOL_ENERGY         1
$end

--------------------------------------------------------------
 Adding empirical dispersion correction 
 ----------------------------------------------------------------
 Doing -D3(op) with
 s6 =   1.00000
 s8 =   0.78311
 a1 =   0.30000
 a2 =   4.25000
 n  =  10.00000
 -D3 energy without 3body term =     -0.0335585918 hartrees
 ----------------------------------------------------------------
             Standard Nuclear Orientation (Angstroms)
    I     Atom           X                Y                Z
 ----------------------------------------------------------------
    1      C      -0.5447136700    -0.6899172600    -0.0662620700
    2      C      -0.5548509600     0.7125787900     0.0607763000
    3      C       0.7474497600    -1.4466570300    -0.0809394600
    4      C       0.7314362600     1.4772919000     0.0702836200
    5      O       1.5433713800    -1.0734555900     0.9447180500
    6      O       1.0362847900    -2.3193574900    -0.8630904400
    7      O       1.5328637600     1.0855103300    -0.9446870100
    8      O       1.0178354700     2.3586183000     0.8434032500
    9      C       2.8294003100     1.7038713100    -1.0025395600
   10      C       2.8288099300    -1.7152476400     1.0093043600
   11      C      -1.7455116900    -1.4190536800    -0.1317301800
   12      C      -2.9401186300    -0.6999680700    -0.0614703400
   13      C      -2.9506766700     0.6825367000     0.0656398300
   14      C      -1.7673494800     1.4208173200     0.1309701300
   15      H       2.7330341000     2.7841282600    -1.1195769100
   16      H       2.7115133100    -2.7939929700     1.1222863200
   17      H      -3.8998924500     1.2056034200     0.1114200100
   18      H       3.3919863500     1.4917406700    -0.0913990200
   19      H       3.3196198900     1.2655429700    -1.8689659600
   20      H       3.3208781600    -1.2889712500     1.8805756000
   21      H       3.4014515800    -1.5118181900     0.1025612900
   22      H      -3.8807999300    -1.2388677000    -0.1033715400
   23      C      -1.8318601000     2.9240186700     0.2561674800
   24      C      -1.7902105900    -2.9245808300    -0.2563845800
   25      H      -1.4132305200    -3.2531939000    -1.2267406200
   26      H      -2.8160405600    -3.2796066600    -0.1426357700
   27      H      -1.1763130000    -3.4156074000     0.5030001100
   28      H      -1.2283475900     3.4214766200    -0.5071995700
   29      H      -1.4521515500     3.2561149000     1.2242386600
   30      H      -2.8627647100     3.2660683800     0.1493470800
 ----------------------------------------------------------------
 Nuclear Repulsion Energy =  1146.5703991962 hartrees
 There are       59 alpha and       59 beta electrons
 Requested basis set is 6-311++G(d,p)
 There are 166 shells and 450 basis functions

 Total QAlloc Memory Limit  62000 MB
 Mega-Array Size      3911 MB
 MEM_STATIC part      4000 MB
 A cutoff of  1.0D-11 yielded  11024 shell pairs
 There are     83459 function pairs (     89182 Cartesian)
 
 -------------------------------------------------------
 OpenMP Integral Computing Module                       
 Release: version 1.0, May 2013, Q-Chem Inc. Pittsburgh 
 -------------------------------------------------------
 Integral Job Info:
 Integral job number is                      11
 Integral operator is                         1
 short-range coefficients                     0
 long-range coefficients              100000000
 Omega coefficients                           0
 if combine SR and LR in K                    0
 Integral screening is                        0
 Integral computing path is                   2
 max size of driver memory is            800000
 size of driver memory is                593474
 size of scratch memory is              2361544
 max col of scratch BK array               1296
 max len of scratch array in speh3          155
 max len of scratch index in speh4           18
 max int batch size is                      520
 min int batch size is                       52
 fixed nKL is                                52
 max L of basis functions is                  2
 order of int derivative is                   0
 number of shells is                        166
 number of basis is                         466
 number of cartesian basis is               466
 number of contracted shell pairs         11024
 number of primitive shell pairs          24910
 maxK2 (contraction) of shell pair           36
 max number of K2 of shell pair               1
 max number of CS2 of shell pair           2076
 max number of PS2 of shell pair           3834
 mem total for path MDJ                  162856
 -------------------------------------------------------
 Smallest overlap matrix eigenvalue = 3.16E-08

 Q-Chem warning in module /fs/scratch/osu6415/qchem-kaunlao-vdw/stvman/mkSTV.C, line 281:

 Overlap eigenvalue is smaller than square root of threshold

 Linear dependence detected in AO basis
 Number of orthogonalized atomic orbitals = 447
 Maximum deviation from orthogonality = 6.138E-10

 Scale SEOQF with 1.000000e-01/1.000000e-01/1.000000e-01

 Standard Electronic Orientation quadrupole field applied
 Nucleus-field energy     =     0.0000000390 hartrees
 Guess from superposition of atomic densities
 Warning:  Energy on first SCF cycle will be non-variational
 A restricted hybrid HF-DFT SCF calculation will be
 performed using Pulay DIIS extrapolation
 Exchange:     0.2000 Hartree-Fock + 0.0800 Slater + 0.7200 B88
 Correlation:  0.1900 VWN1RPA + 0.8100 LYP
 Using SG-1 standard quadrature grid
 Dispersion:   Grimme D3
 SCF converges when DIIS error is below 1.0E-08
 using 20 threads for integral computing
 -------------------------------------------------------
 OpenMP Integral computing Module                
 Release: version 1.0, May 2013, Q-Chem Inc. Pittsburgh 
 -------------------------------------------------------
 -------------------------------------------------------
 OpenMP BLAS3 based DFT computing Module                
 Release: version 1.0, May 2013, Q-Chem Inc. Pittsburgh 
 -------------------------------------------------------
 ---------------------------------------
  Cycle       Energy         DIIS Error
 ---------------------------------------
    1    -770.1910082967      3.04E-02
    2    -766.5492214567      3.92E-03
    3    -766.0275063279      6.66E-03
    4    -766.8162459549      1.68E-03
    5    -766.8736545266      3.75E-04
    6    -766.8757423685      1.69E-04
    7    -766.8762676722      2.81E-05
    8    -766.8762813085      1.02E-05
    9    -766.8762835651      2.44E-06
   10    -766.8762836525      1.38E-06
   11    -766.8762837045      2.73E-07
   12    -766.8762837057      1.08E-07
   13    -766.8762837051      5.08E-08
   14    -766.8762837052      1.37E-08
   15    -766.8762837057      4.15E-09 Convergence criterion met
 ---------------------------------------
 SCF time:  CPU 820.84 s  wall 45.57 s
 SCF   energy in the final basis set = -766.87628371
 Total energy in the final basis set = -766.87628371
 
 --------------------------------------------------------------
 
                    Orbital Energies (a.u.)
 --------------------------------------------------------------
 
 Alpha MOs
 -- Occupied --
-19.176 -19.176 -19.119 -19.119 -10.311 -10.311 -10.232 -10.232
-10.205 -10.205 -10.201 -10.201 -10.187 -10.186 -10.170 -10.170
 -1.121  -1.114  -1.031  -1.030  -0.885  -0.807  -0.796  -0.747
 -0.734  -0.725  -0.675  -0.649  -0.620  -0.577  -0.565  -0.537
 -0.517  -0.515  -0.491  -0.489  -0.480  -0.477  -0.469  -0.442
 -0.434  -0.429  -0.420  -0.416  -0.411  -0.405  -0.396  -0.387
 -0.380  -0.373  -0.362  -0.359  -0.357  -0.321  -0.313  -0.293
 -0.292  -0.266  -0.253
 -- Virtual --
 -0.059  -0.034  -0.011  -0.005   0.001   0.012   0.012   0.015
  0.022   0.025   0.031   0.035   0.037   0.043   0.046   0.053
  0.056   0.056   0.067   0.073   0.074   0.081   0.088   0.093
  0.094   0.101   0.107   0.110   0.111   0.113   0.116   0.120
  0.121   0.123   0.133   0.134   0.137   0.138   0.141   0.144
  0.147   0.148   0.152   0.155   0.162   0.163   0.163   0.168
  0.172   0.175   0.180   0.182   0.187   0.189   0.198   0.200
  0.203   0.204   0.208   0.217   0.221   0.222   0.230   0.242
  0.242   0.246   0.248   0.255   0.259   0.260   0.263   0.270
  0.277   0.280   0.288   0.295   0.298   0.304   0.305   0.307
  0.318   0.320   0.323   0.325   0.328   0.331   0.345   0.348
  0.353   0.356   0.358   0.368   0.369   0.373   0.379   0.393
  0.397   0.400   0.404   0.412   0.418   0.426   0.426   0.436
  0.467   0.468   0.482   0.495   0.500   0.506   0.508   0.522
  0.532   0.541   0.549   0.554   0.563   0.572   0.574   0.584
  0.585   0.594   0.595   0.613   0.620   0.629   0.637   0.640
  0.641   0.653   0.657   0.657   0.673   0.674   0.677   0.680
  0.683   0.689   0.689   0.698   0.709   0.720   0.726   0.728
  0.741   0.755   0.756   0.761   0.773   0.784   0.794   0.806
  0.818   0.829   0.848   0.862   0.865   0.879   0.895   0.926
  0.943   0.955   0.963   0.973   0.977   0.994   1.015   1.020
  1.051   1.057   1.062   1.075   1.090   1.094   1.098   1.132
  1.133   1.156   1.189   1.200   1.206   1.211   1.220   1.237
  1.258   1.276   1.292   1.294   1.320   1.326   1.343   1.367
  1.372   1.381   1.388   1.393   1.414   1.421   1.446   1.449
  1.468   1.468   1.475   1.482   1.505   1.515   1.521   1.536
  1.538   1.550   1.554   1.572   1.575   1.589   1.592   1.596
  1.604   1.613   1.621   1.632   1.641   1.650   1.672   1.690
  1.702   1.710   1.714   1.720   1.729   1.741   1.763   1.770
  1.773   1.789   1.796   1.798   1.827   1.830   1.831   1.873
  1.877   1.886   1.895   1.906   1.942   1.951   1.981   1.992
  2.004   2.009   2.036   2.049   2.083   2.089   2.100   2.115
  2.123   2.128   2.143   2.164   2.175   2.192   2.202   2.235
  2.271   2.298   2.323   2.327   2.330   2.406   2.414   2.449
  2.454   2.480   2.483   2.491   2.504   2.505   2.522   2.530
  2.561   2.562   2.572   2.583   2.592   2.594   2.605   2.610
  2.627   2.649   2.656   2.672   2.685   2.699   2.721   2.728
  2.757   2.766   2.782   2.797   2.806   2.833   2.840   2.857
  2.867   2.887   2.888   2.905   2.916   2.934   2.946   2.971
  3.002   3.029   3.031   3.043   3.057   3.074   3.101   3.112
  3.136   3.179   3.200   3.216   3.229   3.231   3.260   3.266
  3.285   3.322   3.382   3.385   3.441   3.444   3.520   3.583
  3.598   3.620   3.670   3.707   3.765   3.778   3.781   3.794
  3.796   3.823   3.853   3.856   3.893   3.941   4.037   4.065
  4.075   4.122   4.148   4.233   4.324   4.335   4.388   4.864
  5.039   5.108   5.153   5.193   5.251   5.260   5.391   5.419
  5.615   5.626   5.856   5.886  23.543  23.849  23.858  23.908
 23.929  23.932  23.942  23.951  23.999  24.058  24.067  24.167
 49.883  49.913  50.013  50.032
 --------------------------------------------------------------
 
          Ground-State Mulliken Net Atomic Charges

     Atom                 Charge (a.u.)
  ----------------------------------------
      1 C                     0.362948
      2 C                     0.348503
      3 C                    -0.476861
      4 C                    -0.449060
      5 O                     0.053180
      6 O                    -0.172033
      7 O                     0.050978
      8 O                    -0.175580
      9 C                    -0.227014
     10 C                    -0.229069
     11 C                     0.484340
     12 C                    -0.676173
     13 C                    -0.674086
     14 C                     0.477247
     15 H                     0.170717
     16 H                     0.170179
     17 H                     0.124570
     18 H                     0.176411
     19 H                     0.169178
     20 H                     0.168757
     21 H                     0.177173
     22 H                     0.124546
     23 C                    -0.511600
     24 C                    -0.507772
     25 H                     0.204028
     26 H                     0.141303
     27 H                     0.175474
     28 H                     0.175495
     29 H                     0.203069
     30 H                     0.141153
  ----------------------------------------
  Sum of atomic charges =    -0.000000

 -----------------------------------------------------------------
                    Cartesian Multipole Moments
 -----------------------------------------------------------------
    Charge (ESU x 10^10)
                -0.0000
    Dipole Moment (Debye)
         X       0.0590      Y      -0.0524      Z       0.0233
       Tot       0.0823
    Quadrupole Moments (Debye-Ang)
        XX     -76.1105     XY      -0.0587     YY     -95.6474
        XZ       0.0375     YZ      -8.8898     ZZ     -99.3736
    Octopole Moments (Debye-Ang^2)
       XXX      45.9182    XXY      -0.3094    XYY      -5.0211
       YYY      -2.1918    XXZ       0.2833    XYZ     -19.0718
       YYZ       0.0101    XZZ      17.9106    YZZ      -0.2581
       ZZZ       0.4794
    Hexadecapole Moments (Debye-Ang^3)
      XXXX   -2036.0829   XXXY       3.2652   XXYY    -656.1554
      XYYY       2.3723   YYYY   -2004.4145   XXXZ       0.4020
      XXYZ     -32.7118   XYYZ       0.3792   YYYZ     -67.5932
      XXZZ    -434.5924   XYZZ       1.1172   YYZZ    -395.2798
      XZZZ       0.9776   YZZZ     -10.9665   ZZZZ    -333.5375
 -----------------------------------------------------------------
 Calculating analytic gradient of the SCF energy
 Gradient of SCF Energy
            1           2           3           4           5           6
    1  -0.0000929  -0.0000531   0.0002181   0.0000673  -0.0000288  -0.0001616
    2  -0.0001205   0.0000208   0.0004501  -0.0001662   0.0000004  -0.0003170
    3  -0.0004708   0.0005094  -0.0001695   0.0000132  -0.0000225   0.0002332
            7           8           9          10          11          12
    1  -0.0000381  -0.0000397   0.0000483   0.0000427   0.0000081   0.0000030
    2   0.0000055   0.0001116   0.0000320  -0.0000453   0.0000084  -0.0000069
    3  -0.0000037  -0.0000583   0.0000161  -0.0000204   0.0000155  -0.0000277
           13          14          15          16          17          18
    1   0.0000044   0.0000229  -0.0000000  -0.0000081   0.0000090   0.0000013
    2   0.0000153   0.0000090  -0.0000105   0.0000003   0.0000065  -0.0000176
    3   0.0000397  -0.0000725  -0.0000040  -0.0000037  -0.0000152  -0.0000088
           19          20          21          22          23          24
    1  -0.0000082  -0.0000088  -0.0000029   0.0000039  -0.0000302  -0.0000463
    2  -0.0000123  -0.0000022   0.0000067   0.0000079  -0.0000231   0.0000264
    3  -0.0000053  -0.0000021   0.0000015   0.0000256  -0.0000020   0.0000153
           25          26          27          28          29          30
    1   0.0000027   0.0000066   0.0000161   0.0000296   0.0000150   0.0000194
    2  -0.0000045   0.0000055  -0.0000077   0.0000137   0.0000094   0.0000043
    3  -0.0000056   0.0000007  -0.0000125   0.0000180   0.0000123   0.0000042
 Max gradient component =       5.094E-04
 RMS gradient           =       1.078E-04
 Gradient time:  CPU 275.72 s  wall 21.37 s
 Geometry Optimization Parameters
   NAtoms,    NIC,     NZ,  NCons,   NDum,   NFix, NCnnct, MaxDiis
       30     194       0       0       0       0       0       0


** GEOMETRY OPTIMIZATION IN DELOCALIZED INTERNAL COORDINATES **
   Searching for a Minimum

   Optimization Cycle:   1

                       Coordinates (Angstroms)
     ATOM                X               Y               Z
      1  C        -0.5447136700   -0.6899172600   -0.0662620700
      2  C        -0.5548509600    0.7125787900    0.0607763000
      3  C         0.7474497600   -1.4466570300   -0.0809394600
      4  C         0.7314362600    1.4772919000    0.0702836200
      5  O         1.5433713800   -1.0734555900    0.9447180500
      6  O         1.0362847900   -2.3193574900   -0.8630904400
      7  O         1.5328637600    1.0855103300   -0.9446870100
      8  O         1.0178354700    2.3586183000    0.8434032500
      9  C         2.8294003100    1.7038713100   -1.0025395600
     10  C         2.8288099300   -1.7152476400    1.0093043600
     11  C        -1.7455116900   -1.4190536800   -0.1317301800
     12  C        -2.9401186300   -0.6999680700   -0.0614703400
     13  C        -2.9506766700    0.6825367000    0.0656398300
     14  C        -1.7673494800    1.4208173200    0.1309701300
     15  H         2.7330341000    2.7841282600   -1.1195769100
     16  H         2.7115133100   -2.7939929700    1.1222863200
     17  H        -3.8998924500    1.2056034200    0.1114200100
     18  H         3.3919863500    1.4917406700   -0.0913990200
     19  H         3.3196198900    1.2655429700   -1.8689659600
     20  H         3.3208781600   -1.2889712500    1.8805756000
     21  H         3.4014515800   -1.5118181900    0.1025612900
     22  H        -3.8807999300   -1.2388677000   -0.1033715400
     23  C        -1.8318601000    2.9240186700    0.2561674800
     24  C        -1.7902105900   -2.9245808300   -0.2563845800
     25  H        -1.4132305200   -3.2531939000   -1.2267406200
     26  H        -2.8160405600   -3.2796066600   -0.1426357700
     27  H        -1.1763130000   -3.4156074000    0.5030001100
     28  H        -1.2283475900    3.4214766200   -0.5071995700
     29  H        -1.4521515500    3.2561149000    1.2242386600
     30  H        -2.8627647100    3.2660683800    0.1493470800
   Point Group: c1    Number of degrees of freedom:    84


   Energy is   -766.876283706


 Attempting to Generate Delocalized Internal Coordinates

 84 Hessian modes will be used to form the next step
  Hessian Eigenvalues:
     0.007679    0.007884    0.009507    0.009646    0.010592    0.010670
     0.013713    0.013729    0.015774    0.016592    0.017972    0.018161
     0.021503    0.022091    0.022150    0.022188    0.023233    0.023282
     0.023538    0.071623    0.071941    0.072728    0.072835    0.101369
     0.101381    0.106001    0.106060    0.159998    0.159999    0.160000
     0.160000    0.160000    0.160000    0.160000    0.160000    0.160000
     0.160000    0.160000    0.160000    0.160000    0.160000    0.224689
     0.244814    0.249720    0.249812    0.249838    0.249887    0.249891
     0.249980    0.249982    0.250000    0.250000    0.250000    0.250000
     0.312162    0.313721    0.326392    0.327509    0.344686    0.344801
     0.346231    0.346237    0.346264    0.346339    0.346432    0.346504
     0.347008    0.347154    0.350771    0.350870    0.354064    0.354252
     0.398333    0.399150    0.413188    0.417479    0.444990    0.455935
     0.457904    0.470593    0.547510    0.548450    1.013944    1.014576

 Minimum Search - Taking Simple RFO Step
 Searching for Lamda that Minimizes Along All modes
 Value Taken    Lamda =  -0.00002798
 Step Taken.  Stepsize is  0.050291

                             Maximum     Tolerance    Cnvgd?
         Gradient           0.000217      0.000001      NO
         Displacement       0.019874      0.000001      NO
         Energy change     *********      0.000000      NO


 New Cartesian Coordinates Obtained by Inverse Iteration

 Displacement from previous Coordinates is:  0.081022
 Adding empirical dispersion correction 
 ----------------------------------------------------------------
 Doing -D3(op) with
 s6 =   1.00000
 s8 =   0.78311
 a1 =   0.30000
 a2 =   4.25000
 n  =  10.00000
 -D3 energy without 3body term =     -0.0335699498 hartrees
 ----------------------------------------------------------------
             Standard Nuclear Orientation (Angstroms)
    I     Atom           X                Y                Z
 ----------------------------------------------------------------
    1      C      -0.5452179760    -0.6898991909    -0.0624458202
    2      C      -0.5554407479     0.7129346335     0.0604599059
    3      C       0.7471018732    -1.4463397382    -0.0793266307
    4      C       0.7308944016     1.4775837751     0.0695438702
    5      O       1.5392687121    -1.0826878620     0.9526758123
    6      O       1.0465857029    -2.2989642845    -0.8793796614
    7      O       1.5318810215     1.0858384462    -0.9458096288
    8      O       1.0202014377     2.3546706410     0.8463643897
    9      C       2.8295155759     1.7018975756    -1.0024328627
   10      C       2.8287650447    -1.7168994294     1.0097942787
   11      C      -1.7459793088    -1.4190369416    -0.1292458327
   12      C      -2.9406505631    -0.6999241820    -0.0601691800
   13      C      -2.9513109109     0.6826503346     0.0660328512
   14      C      -1.7680370643     1.4211111046     0.1305054636
   15      H       2.7351364580     2.7824600824    -1.1183356657
   16      H       2.7183946214    -2.7978360361     1.1079121007
   17      H      -3.9005802569     1.2056849951     0.1113143632
   18      H       3.3912949996     1.4878760246    -0.0912316441
   19      H       3.3194370539     1.2636833133    -1.8690850839
   20      H       3.3173571840    -1.2994232286     1.8872609197
   21      H       3.4008694220    -1.4974941908     0.1064380861
   22      H      -3.8813092717    -1.2388452592    -0.1025551572
   23      C      -1.8327877799     2.9245303909     0.2530846124
   24      C      -1.7906560552    -2.9246454383    -0.2530433674
   25      H      -1.4121019966    -3.2539507286    -1.2225322465
   26      H      -2.8167772583    -3.2793751394    -0.1408258128
   27      H      -1.1782837451    -3.4152371112     0.5078352604
   28      H      -1.2305362494     3.4207040594    -0.5120953034
   29      H      -1.4519673511     3.2585212213     1.2200439917
   30      H      -2.8639640234     3.2660350432     0.1469470518
 ----------------------------------------------------------------
 Nuclear Repulsion Energy =  1146.4710702304 hartrees
 There are       59 alpha and       59 beta electrons
 Applying Cartesian multipole field
    Component          Value
    ---------          -----
     (2,0,0)        1.00000E-11
     (0,2,0)        2.00000E-11
     (0,0,2)       -3.00000E-11
 Nucleus-field energy     =     0.0000000389 hartrees
 Requested basis set is 6-311++G(d,p)
 There are 166 shells and 450 basis functions
 A cutoff of  1.0D-11 yielded  11022 shell pairs
 There are     83445 function pairs (     89175 Cartesian)
 Smallest overlap matrix eigenvalue = 3.19E-08

 Q-Chem warning in module /fs/scratch/osu6415/qchem-kaunlao-vdw/stvman/mkSTV.C, line 281:

 Overlap eigenvalue is smaller than square root of threshold

 Linear dependence detected in AO basis
 Number of orthogonalized atomic orbitals = 447
 Maximum deviation from orthogonality = 4.894E-10
 Guess MOs from SCF MO coefficient file
 Reading MOs from coefficient file
 Reading MOs from coefficient file
 A restricted hybrid HF-DFT SCF calculation will be
 performed using Pulay DIIS extrapolation
 Exchange:     0.2000 Hartree-Fock + 0.0800 Slater + 0.7200 B88
 Correlation:  0.1900 VWN1RPA + 0.8100 LYP
 Using SG-1 standard quadrature grid
 Dispersion:   Grimme D3
 SCF converges when DIIS error is below 1.0E-08
 Geometry optimization detected.  Setting ReadMinima to 0
 Setting SaveMinima to 0
 using 20 threads for integral computing
 -------------------------------------------------------
 OpenMP Integral computing Module                
 Release: version 1.0, May 2013, Q-Chem Inc. Pittsburgh 
 -------------------------------------------------------
 -------------------------------------------------------
 OpenMP BLAS3 based DFT computing Module                
 Release: version 1.0, May 2013, Q-Chem Inc. Pittsburgh 
 -------------------------------------------------------
 ---------------------------------------
  Cycle       Energy         DIIS Error
 ---------------------------------------
    1    -766.8756078180      2.30E-04
    2    -766.8762750120      1.38E-05
    3    -766.8762799248      1.45E-05
    4    -766.8762829413      8.11E-06
    5    -766.8762841164      1.88E-06
    6    -766.8762841638      1.12E-06
    7    -766.8762841866      3.70E-07
    8    -766.8762841896      9.70E-08
    9    -766.8762841895      4.17E-08
   10    -766.8762841903      1.44E-08
   11    -766.8762841913      5.55E-09 Convergence criterion met
 ---------------------------------------
 SCF time:  CPU 601.10 s  wall 34.81 s
 SCF   energy in the final basis set = -766.87628419
 Total energy in the final basis set = -766.87628419
 
 --------------------------------------------------------------
 
                    Orbital Energies (a.u.)
 --------------------------------------------------------------
 
 Alpha MOs
 -- Occupied --
-19.176 -19.176 -19.119 -19.119 -10.311 -10.311 -10.232 -10.232
-10.205 -10.205 -10.201 -10.201 -10.187 -10.186 -10.171 -10.170
 -1.121  -1.114  -1.031  -1.030  -0.885  -0.807  -0.796  -0.747
 -0.734  -0.725  -0.675  -0.649  -0.620  -0.577  -0.565  -0.537
 -0.517  -0.515  -0.491  -0.489  -0.480  -0.477  -0.469  -0.442
 -0.434  -0.429  -0.421  -0.416  -0.411  -0.406  -0.396  -0.387
 -0.380  -0.373  -0.362  -0.359  -0.357  -0.321  -0.313  -0.293
 -0.293  -0.266  -0.253
 -- Virtual --
 -0.058  -0.034  -0.011  -0.005   0.001   0.011   0.012   0.015
  0.022   0.025   0.031   0.035   0.037   0.043   0.046   0.053
  0.055   0.056   0.067   0.073   0.074   0.081   0.088   0.093
  0.094   0.101   0.107   0.109   0.111   0.113   0.116   0.120
  0.121   0.123   0.133   0.134   0.137   0.138   0.141   0.144
  0.148   0.148   0.152   0.155   0.161   0.163   0.163   0.168
  0.172   0.175   0.180   0.182   0.187   0.189   0.197   0.199
  0.203   0.204   0.208   0.217   0.221   0.222   0.230   0.242
  0.242   0.246   0.248   0.255   0.259   0.260   0.263   0.270
  0.277   0.280   0.288   0.295   0.298   0.304   0.305   0.308
  0.317   0.320   0.324   0.325   0.328   0.331   0.345   0.348
  0.354   0.356   0.358   0.368   0.369   0.373   0.379   0.393
  0.398   0.400   0.405   0.412   0.418   0.426   0.426   0.437
  0.466   0.468   0.482   0.495   0.500   0.505   0.508   0.522
  0.532   0.539   0.549   0.554   0.563   0.573   0.574   0.583
  0.585   0.594   0.595   0.613   0.620   0.628   0.637   0.640
  0.641   0.653   0.657   0.657   0.673   0.674   0.677   0.680
  0.683   0.689   0.689   0.698   0.709   0.720   0.726   0.728
  0.741   0.755   0.756   0.761   0.772   0.784   0.793   0.805
  0.817   0.829   0.850   0.862   0.865   0.880   0.894   0.925
  0.943   0.955   0.963   0.973   0.977   0.995   1.015   1.020
  1.051   1.057   1.061   1.074   1.090   1.094   1.099   1.132
  1.134   1.157   1.187   1.200   1.209   1.211   1.221   1.237
  1.256   1.278   1.291   1.294   1.319   1.327   1.344   1.367
  1.372   1.382   1.387   1.392   1.414   1.420   1.445   1.448
  1.467   1.468   1.474   1.482   1.505   1.515   1.521   1.536
  1.539   1.550   1.555   1.572   1.574   1.590   1.592   1.596
  1.603   1.614   1.621   1.632   1.642   1.650   1.673   1.689
  1.701   1.708   1.713   1.720   1.728   1.742   1.764   1.770
  1.772   1.789   1.796   1.799   1.826   1.830   1.831   1.873
  1.877   1.886   1.893   1.906   1.944   1.949   1.982   1.992
  2.005   2.009   2.035   2.049   2.083   2.089   2.100   2.115
  2.123   2.128   2.143   2.164   2.175   2.192   2.202   2.235
  2.271   2.298   2.323   2.326   2.330   2.406   2.414   2.449
  2.453   2.480   2.483   2.491   2.503   2.506   2.522   2.529
  2.561   2.562   2.572   2.582   2.591   2.594   2.604   2.610
  2.627   2.649   2.656   2.672   2.685   2.700   2.722   2.728
  2.757   2.767   2.782   2.796   2.806   2.833   2.840   2.856
  2.867   2.887   2.889   2.904   2.916   2.935   2.946   2.971
  3.002   3.028   3.031   3.043   3.056   3.073   3.101   3.112
  3.136   3.179   3.199   3.215   3.228   3.231   3.259   3.265
  3.285   3.322   3.382   3.384   3.441   3.445   3.519   3.583
  3.598   3.619   3.671   3.707   3.765   3.778   3.780   3.794
  3.796   3.822   3.853   3.856   3.893   3.942   4.037   4.065
  4.074   4.121   4.147   4.233   4.323   4.333   4.388   4.864
  5.041   5.107   5.154   5.193   5.250   5.259   5.391   5.418
  5.614   5.626   5.856   5.885  23.542  23.849  23.858  23.908
 23.929  23.932  23.942  23.951  23.999  24.059  24.067  24.167
 49.883  49.914  50.011  50.031
 --------------------------------------------------------------
 
          Ground-State Mulliken Net Atomic Charges

     Atom                 Charge (a.u.)
  ----------------------------------------
      1 C                     0.377095
      2 C                     0.368113
      3 C                    -0.487355
      4 C                    -0.454302
      5 O                     0.056955
      6 O                    -0.169886
      7 O                     0.049694
      8 O                    -0.174408
      9 C                    -0.227359
     10 C                    -0.228427
     11 C                     0.470856
     12 C                    -0.668861
     13 C                    -0.670194
     14 C                     0.462223
     15 H                     0.170699
     16 H                     0.170243
     17 H                     0.124345
     18 H                     0.176388
     19 H                     0.169699
     20 H                     0.168838
     21 H                     0.176660
     22 H                     0.124267
     23 C                    -0.514337
     24 C                    -0.512030
     25 H                     0.203647
     26 H                     0.142442
     27 H                     0.175152
     28 H                     0.175426
     29 H                     0.202855
     30 H                     0.141564
  ----------------------------------------
  Sum of atomic charges =    -0.000000

 -----------------------------------------------------------------
                    Cartesian Multipole Moments
 -----------------------------------------------------------------
    Charge (ESU x 10^10)
                -0.0000
    Dipole Moment (Debye)
         X       0.0502      Y      -0.0726      Z       0.0348
       Tot       0.0949
    Quadrupole Moments (Debye-Ang)
        XX     -76.1279     XY      -0.0499     YY     -95.4342
        XZ       0.0758     YZ      -8.9227     ZZ     -99.4928
    Octopole Moments (Debye-Ang^2)
       XXX      45.8693    XXY      -0.3536    XYY      -4.9760
       YYY      -2.8485    XXZ       0.3218    XYZ     -19.1637
       YYZ      -0.0457    XZZ      17.7898    YZZ      -0.1336
       ZZZ       0.4907
    Hexadecapole Moments (Debye-Ang^3)
      XXXX   -2037.1125   XXXY       3.8703   XXYY    -655.6163
      XYYY       2.3593   YYYY   -1998.6104   XXXZ       0.9030
      XXYZ     -32.8160   XYYZ       0.5715   YYYZ     -66.7040
      XXZZ    -435.1410   XYZZ       1.4495   YYZZ    -395.4041
      XZZZ       1.4770   YZZZ     -10.6493   ZZZZ    -335.1522
 -----------------------------------------------------------------
 Calculating analytic gradient of the SCF energy
 Gradient of SCF Energy
            1           2           3           4           5           6
    1   0.0004133  -0.0000389  -0.0010791  -0.0002920   0.0004309   0.0005062
    2   0.0003671  -0.0000349  -0.0010970   0.0003799   0.0002578   0.0003765
    3  -0.0004089   0.0002942   0.0012674  -0.0004537  -0.0002081  -0.0004666
            7           8           9          10          11          12
    1   0.0001033   0.0001359  -0.0000128  -0.0000281   0.0001012  -0.0000169
    2  -0.0000040  -0.0001445  -0.0000058   0.0000084  -0.0002218   0.0000578
    3  -0.0000736   0.0001382   0.0000153  -0.0000096  -0.0002209   0.0000270
           13          14          15          16          17          18
    1  -0.0000095   0.0001361  -0.0000007  -0.0000288   0.0000024  -0.0000011
    2  -0.0000598   0.0001169  -0.0000093   0.0000063   0.0000118  -0.0000154
    3   0.0000225   0.0000964  -0.0000012  -0.0000207  -0.0000178  -0.0000039
           19          20          21          22          23          24
    1   0.0000086   0.0000080   0.0000184   0.0000088  -0.0000642  -0.0002019
    2  -0.0000009   0.0000012  -0.0000025   0.0000011   0.0000181  -0.0000547
    3  -0.0000068  -0.0000036  -0.0000022   0.0000184  -0.0000107  -0.0000034
           25          26          27          28          29          30
    1  -0.0000277  -0.0000576  -0.0000128   0.0000087  -0.0000021  -0.0000074
    2  -0.0000156   0.0000494   0.0000105   0.0000030   0.0000049  -0.0000043
    3   0.0000746   0.0000142  -0.0000810   0.0000374  -0.0000106  -0.0000023
 Max gradient component =       1.267E-03
 RMS gradient           =       2.622E-04
 Gradient time:  CPU 268.81 s  wall 20.88 s
 Geometry Optimization Parameters
   NAtoms,    NIC,     NZ,  NCons,   NDum,   NFix, NCnnct, MaxDiis
       30     194       0       0       0       0       0       0

 Cartesian Hessian Update
 Hessian Updated using BFGS Update


** GEOMETRY OPTIMIZATION IN DELOCALIZED INTERNAL COORDINATES **
   Searching for a Minimum

   Optimization Cycle:   2

                       Coordinates (Angstroms)
     ATOM                X               Y               Z
      1  C        -0.5452179760   -0.6898991909   -0.0624458202
      2  C        -0.5554407479    0.7129346335    0.0604599059
      3  C         0.7471018732   -1.4463397382   -0.0793266307
      4  C         0.7308944016    1.4775837751    0.0695438702
      5  O         1.5392687121   -1.0826878620    0.9526758123
      6  O         1.0465857029   -2.2989642845   -0.8793796614
      7  O         1.5318810215    1.0858384462   -0.9458096288
      8  O         1.0202014377    2.3546706410    0.8463643897
      9  C         2.8295155759    1.7018975756   -1.0024328627
     10  C         2.8287650447   -1.7168994294    1.0097942787
     11  C        -1.7459793088   -1.4190369416   -0.1292458327
     12  C        -2.9406505631   -0.6999241820   -0.0601691800
     13  C        -2.9513109109    0.6826503346    0.0660328512
     14  C        -1.7680370643    1.4211111046    0.1305054636
     15  H         2.7351364580    2.7824600824   -1.1183356657
     16  H         2.7183946214   -2.7978360361    1.1079121007
     17  H        -3.9005802569    1.2056849951    0.1113143632
     18  H         3.3912949996    1.4878760246   -0.0912316441
     19  H         3.3194370539    1.2636833133   -1.8690850839
     20  H         3.3173571840   -1.2994232286    1.8872609197
     21  H         3.4008694220   -1.4974941908    0.1064380861
     22  H        -3.8813092717   -1.2388452592   -0.1025551572
     23  C        -1.8327877799    2.9245303909    0.2530846124
     24  C        -1.7906560552   -2.9246454383   -0.2530433674
     25  H        -1.4121019966   -3.2539507286   -1.2225322465
     26  H        -2.8167772583   -3.2793751394   -0.1408258128
     27  H        -1.1782837451   -3.4152371112    0.5078352604
     28  H        -1.2305362494    3.4207040594   -0.5120953034
     29  H        -1.4519673511    3.2585212213    1.2200439917
     30  H        -2.8639640234    3.2660350432    0.1469470518
   Point Group: c1    Number of degrees of freedom:    84


   Energy is   -766.876284191

 Hessian Updated using BFGS Update

 72 Hessian modes will be used to form the next step
  Hessian Eigenvalues:
     0.005891    0.007697    0.007911    0.009756    0.010591    0.010670
     0.013693    0.015765    0.016243    0.016911    0.018138    0.020621
     0.022078    0.022143    0.022186    0.023199    0.023282    0.023525
     0.048441    0.071625    0.071929    0.072729    0.072835    0.101370
     0.101380    0.106000    0.106059    0.159961    0.159998    0.159999
     0.160470    0.224819    0.244902    0.249716    0.249807    0.249832
     0.249866    0.249892    0.249931    0.249984    0.250000    0.263897
     0.312192    0.313729    0.326507    0.327575    0.344757    0.344839
     0.346237    0.346257    0.346324    0.346349    0.346484    0.346551
     0.347008    0.347153    0.350771    0.350872    0.354063    0.354252
     0.398369    0.399148    0.415810    0.419806    0.444983    0.456096
     0.458506    0.470586    0.547659    0.549137    1.014183    1.014559

 Minimum Search - Taking Simple RFO Step
 Searching for Lamda that Minimizes Along All modes
 Value Taken    Lamda =  -0.00003263
 Step Taken.  Stepsize is  0.034520

                             Maximum     Tolerance    Cnvgd?
         Gradient           0.000718      0.000001      NO
         Displacement       0.012644      0.000001      NO
         Energy change     -0.000000      0.000000      NO


 New Cartesian Coordinates Obtained by Inverse Iteration

 Displacement from previous Coordinates is:  0.114862
 Adding empirical dispersion correction 
 ----------------------------------------------------------------
 Doing -D3(op) with
 s6 =   1.00000
 s8 =   0.78311
 a1 =   0.30000
 a2 =   4.25000
 n  =  10.00000
 -D3 energy without 3body term =     -0.0335279960 hartrees
 ----------------------------------------------------------------
             Standard Nuclear Orientation (Angstroms)
    I     Atom           X                Y                Z
 ----------------------------------------------------------------
    1      C      -0.5429378648    -0.6860109944    -0.0625968719
    2      C      -0.5551438639     0.7168178406     0.0576386210
    3      C       0.7507168761    -1.4398561604    -0.0871432410
    4      C       0.7303444040     1.4828166177     0.0672862533
    5      O       1.5375245838    -1.0920099013     0.9542900135
    6      O       1.0467134243    -2.2915921853    -0.8893569351
    7      O       1.5326513279     1.0905892072    -0.9467896723
    8      O       1.0170139286     2.3625029471     0.8421190562
    9      C       2.8288552815     1.7095157152    -1.0044847644
   10      C       2.8229125975    -1.7342906886     1.0137056746
   11      C      -1.7423645438    -1.4172706847    -0.1262856776
   12      C      -2.9382851120    -0.7003521171    -0.0560939841
   13      C      -2.9510525496     0.6824455873     0.0679484995
   14      C      -1.7688553550     1.4229831416     0.1289899689
   15      H       2.7320198875     2.7895262280    -1.1235383717
   16      H       2.7057676166    -2.8155077600     1.1003463723
   17      H      -3.9011203623     1.2039207301     0.1145764796
   18      H       3.3906628283     1.4995041517    -0.0923649987
   19      H       3.3202912679     1.2699864979    -1.8696076879
   20      H       3.3080422352    -1.3284149033     1.8984985516
   21      H       3.4022611314    -1.5093131185     0.1163620146
   22      H      -3.8780752757    -1.2409651988    -0.0964348697
   23      C      -1.8355746703     2.9264609715     0.2497418884
   24      C      -1.7831879151    -2.9230427471    -0.2491847468
   25      H      -1.4043282750    -3.2517663384    -1.2187956132
   26      H      -2.8082128549    -3.2806259043    -0.1361483820
   27      H      -1.1690914502    -3.4114686801     0.5117549580
   28      H      -1.2366107877     3.4224397076    -0.5181531285
   29      H      -1.4522218691     3.2623741129     1.2150319499
   30      H      -2.8676116910     3.2662268060     0.1463877035
 ----------------------------------------------------------------
 Nuclear Repulsion Energy =  1146.1930206686 hartrees
 There are       59 alpha and       59 beta electrons
 Applying Cartesian multipole field
    Component          Value
    ---------          -----
     (2,0,0)        1.00000E-11
     (0,2,0)        2.00000E-11
     (0,0,2)       -3.00000E-11
 Nucleus-field energy     =     0.0000000390 hartrees
 Requested basis set is 6-311++G(d,p)
 There are 166 shells and 450 basis functions
 A cutoff of  1.0D-11 yielded  11019 shell pairs
 There are     83442 function pairs (     89172 Cartesian)
 Smallest overlap matrix eigenvalue = 3.22E-08

 Q-Chem warning in module /fs/scratch/osu6415/qchem-kaunlao-vdw/stvman/mkSTV.C, line 281:

 Overlap eigenvalue is smaller than square root of threshold

 Linear dependence detected in AO basis
 Number of orthogonalized atomic orbitals = 447
 Maximum deviation from orthogonality = 8.416E-10
 Guess MOs from SCF MO coefficient file
 Reading MOs from coefficient file
 Reading MOs from coefficient file
 A restricted hybrid HF-DFT SCF calculation will be
 performed using Pulay DIIS extrapolation
 Exchange:     0.2000 Hartree-Fock + 0.0800 Slater + 0.7200 B88
 Correlation:  0.1900 VWN1RPA + 0.8100 LYP
 Using SG-1 standard quadrature grid
 Dispersion:   Grimme D3
 SCF converges when DIIS error is below 1.0E-08
 Geometry optimization detected.  Setting ReadMinima to 0
 Setting SaveMinima to 0
 using 20 threads for integral computing
 -------------------------------------------------------
 OpenMP Integral computing Module                
 Release: version 1.0, May 2013, Q-Chem Inc. Pittsburgh 
 -------------------------------------------------------
 -------------------------------------------------------
 OpenMP BLAS3 based DFT computing Module                
 Release: version 1.0, May 2013, Q-Chem Inc. Pittsburgh 
 -------------------------------------------------------
 ---------------------------------------
  Cycle       Energy         DIIS Error
 ---------------------------------------
    1    -766.8787949199      1.66E-04
    2    -766.8762563373      2.56E-05
    3    -766.8762234072      4.56E-05
    4    -766.8762736042      8.98E-06
    5    -766.8762750870      2.81E-06
    6    -766.8762752057      1.28E-06
    7    -766.8762752396      4.07E-07
    8    -766.8762752432      1.47E-07
    9    -766.8762752437      4.08E-08
   10    -766.8762752420      1.55E-08
   11    -766.8762752409      7.07E-09 Convergence criterion met
 ---------------------------------------
 SCF time:  CPU 601.16 s  wall 33.83 s
 SCF   energy in the final basis set = -766.87627524
 Total energy in the final basis set = -766.87627524
 
 --------------------------------------------------------------
 
                    Orbital Energies (a.u.)
 --------------------------------------------------------------
 
 Alpha MOs
 -- Occupied --
-19.176 -19.176 -19.119 -19.119 -10.311 -10.311 -10.232 -10.232
-10.205 -10.205 -10.201 -10.201 -10.187 -10.186 -10.171 -10.170
 -1.121  -1.114  -1.031  -1.030  -0.885  -0.807  -0.796  -0.747
 -0.734  -0.725  -0.675  -0.649  -0.620  -0.577  -0.565  -0.537
 -0.517  -0.515  -0.491  -0.489  -0.480  -0.478  -0.469  -0.442
 -0.434  -0.429  -0.420  -0.416  -0.411  -0.406  -0.396  -0.387
 -0.380  -0.373  -0.362  -0.359  -0.357  -0.321  -0.314  -0.293
 -0.293  -0.266  -0.253
 -- Virtual --
 -0.058  -0.034  -0.011  -0.005   0.001   0.011   0.012   0.015
  0.022   0.025   0.031   0.035   0.037   0.043   0.045   0.052
  0.055   0.056   0.067   0.073   0.074   0.081   0.088   0.093
  0.095   0.101   0.107   0.109   0.111   0.113   0.116   0.120
  0.121   0.123   0.133   0.134   0.137   0.138   0.141   0.144
  0.147   0.148   0.152   0.155   0.161   0.163   0.163   0.167
  0.172   0.176   0.180   0.182   0.187   0.189   0.197   0.200
  0.203   0.204   0.208   0.216   0.221   0.222   0.230   0.242
  0.242   0.246   0.248   0.255   0.259   0.259   0.263   0.270
  0.277   0.280   0.288   0.295   0.298   0.304   0.305   0.308
  0.317   0.320   0.324   0.324   0.328   0.332   0.344   0.348
  0.354   0.355   0.358   0.368   0.369   0.373   0.379   0.393
  0.398   0.400   0.405   0.412   0.418   0.426   0.427   0.438
  0.466   0.468   0.482   0.495   0.500   0.504   0.508   0.521
  0.531   0.539   0.549   0.554   0.563   0.573   0.574   0.583
  0.585   0.594   0.595   0.613   0.620   0.628   0.637   0.640
  0.642   0.653   0.657   0.658   0.673   0.674   0.676   0.680
  0.683   0.688   0.689   0.698   0.709   0.720   0.726   0.728
  0.741   0.755   0.756   0.762   0.772   0.784   0.792   0.806
  0.816   0.829   0.850   0.862   0.865   0.880   0.894   0.926
  0.943   0.955   0.963   0.973   0.976   0.995   1.015   1.020
  1.051   1.058   1.061   1.074   1.090   1.094   1.099   1.130
  1.134   1.158   1.186   1.199   1.209   1.211   1.221   1.236
  1.257   1.278   1.291   1.294   1.319   1.327   1.344   1.367
  1.372   1.382   1.388   1.392   1.414   1.420   1.445   1.448
  1.466   1.468   1.475   1.482   1.505   1.515   1.521   1.535
  1.538   1.549   1.554   1.572   1.574   1.590   1.592   1.597
  1.603   1.614   1.621   1.633   1.642   1.650   1.672   1.689
  1.701   1.708   1.713   1.720   1.728   1.741   1.764   1.770
  1.772   1.789   1.796   1.799   1.827   1.829   1.832   1.874
  1.878   1.886   1.893   1.906   1.944   1.949   1.982   1.992
  2.005   2.010   2.035   2.049   2.083   2.090   2.101   2.115
  2.122   2.128   2.143   2.164   2.174   2.191   2.202   2.236
  2.270   2.299   2.324   2.327   2.330   2.406   2.414   2.449
  2.453   2.479   2.483   2.491   2.504   2.506   2.521   2.529
  2.561   2.562   2.571   2.582   2.591   2.594   2.604   2.610
  2.627   2.650   2.656   2.672   2.686   2.699   2.722   2.728
  2.757   2.767   2.782   2.796   2.806   2.833   2.839   2.857
  2.868   2.887   2.889   2.904   2.915   2.935   2.946   2.971
  3.002   3.027   3.030   3.043   3.056   3.073   3.100   3.112
  3.136   3.179   3.199   3.214   3.229   3.231   3.258   3.267
  3.286   3.321   3.382   3.384   3.441   3.444   3.520   3.583
  3.598   3.619   3.672   3.708   3.765   3.778   3.781   3.794
  3.796   3.822   3.852   3.856   3.893   3.942   4.038   4.064
  4.074   4.122   4.147   4.234   4.323   4.333   4.388   4.864
  5.043   5.105   5.154   5.191   5.250   5.258   5.390   5.418
  5.614   5.626   5.856   5.885  23.542  23.849  23.858  23.909
 23.930  23.931  23.942  23.951  23.999  24.059  24.067  24.167
 49.883  49.914  50.012  50.031
 --------------------------------------------------------------
 
          Ground-State Mulliken Net Atomic Charges

     Atom                 Charge (a.u.)
  ----------------------------------------
      1 C                     0.384865
      2 C                     0.374461
      3 C                    -0.499095
      4 C                    -0.450382
      5 O                     0.060572
      6 O                    -0.169050
      7 O                     0.049064
      8 O                    -0.174833
      9 C                    -0.226102
     10 C                    -0.228079
     11 C                     0.468835
     12 C                    -0.667649
     13 C                    -0.666428
     14 C                     0.451876
     15 H                     0.170681
     16 H                     0.170288
     17 H                     0.124268
     18 H                     0.176403
     19 H                     0.169716
     20 H                     0.168375
     21 H                     0.176287
     22 H                     0.124200
     23 C                    -0.517869
     24 C                    -0.511758
     25 H                     0.203731
     26 H                     0.142730
     27 H                     0.175337
     28 H                     0.175307
     29 H                     0.202735
     30 H                     0.141513
  ----------------------------------------
  Sum of atomic charges =    -0.000000

 -----------------------------------------------------------------
                    Cartesian Multipole Moments
 -----------------------------------------------------------------
    Charge (ESU x 10^10)
                -0.0000
    Dipole Moment (Debye)
         X       0.0634      Y      -0.0856      Z       0.0446
       Tot       0.1154
    Quadrupole Moments (Debye-Ang)
        XX     -76.1493     XY      -0.0719     YY     -95.3684
        XZ       0.0836     YZ      -8.9660     ZZ     -99.5112
    Octopole Moments (Debye-Ang^2)
       XXX      45.7617    XXY      -0.4807    XYY      -4.7115
       YYY      -3.6675    XXZ       0.4670    XYZ     -19.2340
       YYZ       0.0177    XZZ      17.7887    YZZ      -0.1426
       ZZZ       0.8328
    Hexadecapole Moments (Debye-Ang^3)
      XXXX   -2034.0901   XXXY       5.3792   XXYY    -655.3114
      XYYY       3.1635   YYYY   -2002.9848   XXXZ       1.3761
      XXYZ     -32.6691   XYYZ       0.9146   YYYZ     -65.6458
      XXZZ    -434.6312   XYZZ       2.0050   YYZZ    -396.4508
      XZZZ       2.6492   YZZZ      -9.5114   ZZZZ    -335.9476
 -----------------------------------------------------------------
 Calculating analytic gradient of the SCF energy
 Gradient of SCF Energy
            1           2           3           4           5           6
    1   0.0001319  -0.0000106   0.0000349   0.0000246   0.0000796  -0.0000118
    2  -0.0003754   0.0000737   0.0008719   0.0001429  -0.0004581  -0.0003614
    3   0.0004549  -0.0000661  -0.0002923  -0.0001378   0.0002717   0.0000802
            7           8           9          10          11          12
    1  -0.0000134   0.0000158  -0.0001022  -0.0001143   0.0000709  -0.0000829
    2   0.0001696  -0.0000437   0.0000034   0.0000085  -0.0000850   0.0000724
    3  -0.0002060   0.0000594   0.0000028   0.0000083  -0.0001629  -0.0000301
           13          14          15          16          17          18
    1  -0.0000622   0.0001943   0.0000243  -0.0000031  -0.0000071  -0.0000096
    2  -0.0001087   0.0000418  -0.0000033   0.0000097   0.0000107  -0.0000318
    3   0.0000307   0.0000051   0.0000024  -0.0000285   0.0000153   0.0000069
           19          20          21          22          23          24
    1   0.0000113   0.0000001  -0.0000107  -0.0000055  -0.0000052  -0.0000952
    2   0.0000007  -0.0000057   0.0000210   0.0000120   0.0000275  -0.0000167
    3  -0.0000087   0.0000140  -0.0000238  -0.0000048  -0.0000254   0.0000300
           25          26          27          28          29          30
    1  -0.0000028  -0.0000401  -0.0000053  -0.0000058   0.0000032  -0.0000028
    2  -0.0000110   0.0000319   0.0000093   0.0000037  -0.0000005  -0.0000093
    3   0.0000328   0.0000025  -0.0000719   0.0000313   0.0000066   0.0000031
 Max gradient component =       8.719E-04
 RMS gradient           =       1.462E-04
 Gradient time:  CPU 270.98 s  wall 21.09 s
 Geometry Optimization Parameters
   NAtoms,    NIC,     NZ,  NCons,   NDum,   NFix, NCnnct, MaxDiis
       30     194       0       0       0       0       0       0

 Cartesian Hessian Update
 Hessian Updated using BFGS Update


** GEOMETRY OPTIMIZATION IN DELOCALIZED INTERNAL COORDINATES **
   Searching for a Minimum

   Optimization Cycle:   3

                       Coordinates (Angstroms)
     ATOM                X               Y               Z
      1  C        -0.5429378648   -0.6860109944   -0.0625968719
      2  C        -0.5551438639    0.7168178406    0.0576386210
      3  C         0.7507168761   -1.4398561604   -0.0871432410
      4  C         0.7303444040    1.4828166177    0.0672862533
      5  O         1.5375245838   -1.0920099013    0.9542900135
      6  O         1.0467134243   -2.2915921853   -0.8893569351
      7  O         1.5326513279    1.0905892072   -0.9467896723
      8  O         1.0170139286    2.3625029471    0.8421190562
      9  C         2.8288552815    1.7095157152   -1.0044847644
     10  C         2.8229125975   -1.7342906886    1.0137056746
     11  C        -1.7423645438   -1.4172706847   -0.1262856776
     12  C        -2.9382851120   -0.7003521171   -0.0560939841
     13  C        -2.9510525496    0.6824455873    0.0679484995
     14  C        -1.7688553550    1.4229831416    0.1289899689
     15  H         2.7320198875    2.7895262280   -1.1235383717
     16  H         2.7057676166   -2.8155077600    1.1003463723
     17  H        -3.9011203623    1.2039207301    0.1145764796
     18  H         3.3906628283    1.4995041517   -0.0923649987
     19  H         3.3202912679    1.2699864979   -1.8696076879
     20  H         3.3080422352   -1.3284149033    1.8984985516
     21  H         3.4022611314   -1.5093131185    0.1163620146
     22  H        -3.8780752757   -1.2409651988   -0.0964348697
     23  C        -1.8355746703    2.9264609715    0.2497418884
     24  C        -1.7831879151   -2.9230427471   -0.2491847468
     25  H        -1.4043282750   -3.2517663384   -1.2187956132
     26  H        -2.8082128549   -3.2806259043   -0.1361483820
     27  H        -1.1690914502   -3.4114686801    0.5117549580
     28  H        -1.2366107877    3.4224397076   -0.5181531285
     29  H        -1.4522218691    3.2623741129    1.2150319499
     30  H        -2.8676116910    3.2662268060    0.1463877035
   Point Group: c1    Number of degrees of freedom:    84


   Energy is   -766.876275241

 Hessian Updated using BFGS Update

 74 Hessian modes will be used to form the next step
  Hessian Eigenvalues:
     0.006451    0.007722    0.007955    0.009948    0.010578    0.010667
     0.013572    0.015318    0.015801    0.016649    0.018163    0.020482
     0.022075    0.022138    0.022187    0.023202    0.023282    0.023531
     0.071026    0.071928    0.072642    0.072793    0.073791    0.101369
     0.101382    0.106010    0.106108    0.159670    0.159998    0.159999
     0.160002    0.160395    0.224627    0.241148    0.245396    0.249831
     0.249837    0.249887    0.249899    0.249965    0.249982    0.250000
     0.250002    0.261396    0.312178    0.313721    0.326854    0.327561
     0.344649    0.344800    0.346230    0.346240    0.346281    0.346342
     0.346431    0.346506    0.347007    0.347152    0.350771    0.350872
     0.354063    0.354254    0.398551    0.399285    0.410802    0.417183
     0.445499    0.455795    0.457736    0.470766    0.547515    0.548369
     1.013339    1.014555

 Minimum Search - Taking Simple RFO Step
 Searching for Lamda that Minimizes Along All modes
 Value Taken    Lamda =  -0.00003614
 Step Taken.  Stepsize is  0.047716

                             Maximum     Tolerance    Cnvgd?
         Gradient           0.000786      0.000001      NO
         Displacement       0.022865      0.000001      NO
         Energy change      0.000009      0.000000      NO


 New Cartesian Coordinates Obtained by Inverse Iteration

 Displacement from previous Coordinates is:  0.247283
 Adding empirical dispersion correction 
 ----------------------------------------------------------------
 Doing -D3(op) with
 s6 =   1.00000
 s8 =   0.78311
 a1 =   0.30000
 a2 =   4.25000
 n  =  10.00000
 -D3 energy without 3body term =     -0.0336363836 hartrees
 ----------------------------------------------------------------
             Standard Nuclear Orientation (Angstroms)
    I     Atom           X                Y                Z
 ----------------------------------------------------------------
    1      C      -0.5479929303    -0.6842701333    -0.0644234638
    2      C      -0.5605523619     0.7181137591     0.0548783527
    3      C       0.7467178256    -1.4360383673    -0.0971334902
    4      C       0.7259593332     1.4820369875     0.0714400195
    5      O       1.5435711423    -1.0774928667     0.9328200083
    6      O       1.0357688139    -2.2925646792    -0.8966012174
    7      O       1.5418255432     1.0729084573    -0.9248957940
    8      O       1.0044561297     2.3708131922     0.8388260583
    9      C       2.8400959026     1.6884099464    -0.9739883725
   10      C       2.8307581827    -1.7171033996     0.9849368013
   11      C      -1.7465763015    -1.4167403586    -0.1219045391
   12      C      -2.9429709117    -0.7006809694    -0.0518181197
   13      C      -2.9564019000     0.6827653269     0.0665136306
   14      C      -1.7745274673     1.4240639774     0.1244424262
   15      H       2.7470722714     2.7664689543    -1.1122772745
   16      H       2.7165376960    -2.7974811138     1.0852143528
   17      H      -3.9067004646     1.2038192096     0.1129234715
   18      H       3.3884273456     1.4926538490    -0.0505753407
   19      H       3.3429378031     1.2337583906    -1.8246065356
   20      H       3.3251237533    -1.3005049251     1.8595478572
   21      H       3.3996435540    -1.5014784759     0.0786741180
   22      H      -3.8824302551    -1.2421160244    -0.0888891142
   23      C      -1.8411343492     2.9277035214     0.2429587395
   24      C      -1.7841133374    -2.9228320941    -0.2415791873
   25      H      -1.4054704066    -3.2524889381    -1.2110358326
   26      H      -2.8079814590    -3.2829896367    -0.1266892634
   27      H      -1.1680685048    -3.4080359177     0.5199894942
   28      H      -1.2434832328     3.4223289313    -0.5268848028
   29      H      -1.4560922936     3.2651700615     1.2070407115
   30      H      -2.8732961708     3.2674262153     0.1407953661
 ----------------------------------------------------------------
 Nuclear Repulsion Energy =  1147.2109772296 hartrees
 There are       59 alpha and       59 beta electrons
 Applying Cartesian multipole field
    Component          Value
    ---------          -----
     (2,0,0)        1.00000E-11
     (0,2,0)        2.00000E-11
     (0,0,2)       -3.00000E-11
 Nucleus-field energy     =     0.0000000391 hartrees
 Requested basis set is 6-311++G(d,p)
 There are 166 shells and 450 basis functions
 A cutoff of  1.0D-11 yielded  11027 shell pairs
 There are     83506 function pairs (     89242 Cartesian)
 Smallest overlap matrix eigenvalue = 3.24E-08

 Q-Chem warning in module /fs/scratch/osu6415/qchem-kaunlao-vdw/stvman/mkSTV.C, line 281:

 Overlap eigenvalue is smaller than square root of threshold

 Linear dependence detected in AO basis
 Number of orthogonalized atomic orbitals = 447
 Maximum deviation from orthogonality = 1.777E-10
 Guess MOs from SCF MO coefficient file
 Reading MOs from coefficient file
 Reading MOs from coefficient file
 A restricted hybrid HF-DFT SCF calculation will be
 performed using Pulay DIIS extrapolation
 Exchange:     0.2000 Hartree-Fock + 0.0800 Slater + 0.7200 B88
 Correlation:  0.1900 VWN1RPA + 0.8100 LYP
 Using SG-1 standard quadrature grid
 Dispersion:   Grimme D3
 SCF converges when DIIS error is below 1.0E-08
 Geometry optimization detected.  Setting ReadMinima to 0
 Setting SaveMinima to 0
 using 20 threads for integral computing
 -------------------------------------------------------
 OpenMP Integral computing Module                
 Release: version 1.0, May 2013, Q-Chem Inc. Pittsburgh 
 -------------------------------------------------------
 -------------------------------------------------------
 OpenMP BLAS3 based DFT computing Module                
 Release: version 1.0, May 2013, Q-Chem Inc. Pittsburgh 
 -------------------------------------------------------
 ---------------------------------------
  Cycle       Energy         DIIS Error
 ---------------------------------------
    1    -766.8796185730      2.64E-04
    2    -766.8762266339      3.94E-05
    3    -766.8761416829      7.52E-05
    4    -766.8762697063      1.35E-05
    5    -766.8762730221      4.33E-06
    6    -766.8762733311      1.96E-06
    7    -766.8762734046      6.69E-07
    8    -766.8762734145      1.94E-07
    9    -766.8762734165      5.26E-08
   10    -766.8762734156      2.50E-08
   11    -766.8762734145      6.00E-09 Convergence criterion met
 ---------------------------------------
 SCF time:  CPU 615.28 s  wall 34.39 s
 SCF   energy in the final basis set = -766.87627341
 Total energy in the final basis set = -766.87627341
 
 --------------------------------------------------------------
 
                    Orbital Energies (a.u.)
 --------------------------------------------------------------
 
 Alpha MOs
 -- Occupied --
-19.176 -19.176 -19.119 -19.119 -10.311 -10.311 -10.232 -10.232
-10.205 -10.205 -10.201 -10.201 -10.187 -10.186 -10.171 -10.170
 -1.121  -1.114  -1.031  -1.030  -0.885  -0.807  -0.796  -0.746
 -0.734  -0.725  -0.675  -0.649  -0.620  -0.577  -0.565  -0.537
 -0.517  -0.515  -0.491  -0.489  -0.480  -0.477  -0.469  -0.442
 -0.434  -0.429  -0.420  -0.416  -0.411  -0.406  -0.396  -0.387
 -0.380  -0.373  -0.362  -0.359  -0.357  -0.322  -0.312  -0.293
 -0.292  -0.266  -0.253
 -- Virtual --
 -0.058  -0.034  -0.011  -0.005   0.001   0.012   0.012   0.015
  0.022   0.025   0.031   0.036   0.037   0.043   0.046   0.053
  0.055   0.056   0.067   0.073   0.074   0.081   0.088   0.093
  0.095   0.101   0.107   0.109   0.111   0.113   0.116   0.120
  0.121   0.123   0.133   0.134   0.137   0.138   0.141   0.144
  0.148   0.148   0.152   0.155   0.161   0.163   0.164   0.168
  0.172   0.176   0.180   0.182   0.187   0.189   0.197   0.200
  0.203   0.204   0.208   0.217   0.221   0.222   0.230   0.242
  0.243   0.245   0.248   0.254   0.259   0.260   0.263   0.270
  0.277   0.280   0.289   0.295   0.298   0.304   0.305   0.308
  0.318   0.320   0.324   0.325   0.328   0.332   0.345   0.347
  0.353   0.355   0.358   0.367   0.369   0.373   0.379   0.392
  0.397   0.400   0.405   0.412   0.418   0.426   0.427   0.436
  0.466   0.468   0.481   0.495   0.501   0.508   0.508   0.524
  0.531   0.541   0.550   0.554   0.564   0.573   0.575   0.584
  0.586   0.594   0.596   0.613   0.620   0.628   0.637   0.640
  0.643   0.654   0.657   0.658   0.673   0.675   0.675   0.680
  0.682   0.689   0.689   0.699   0.710   0.720   0.726   0.728
  0.742   0.755   0.756   0.761   0.773   0.785   0.792   0.805
  0.817   0.830   0.850   0.862   0.866   0.881   0.895   0.927
  0.943   0.954   0.964   0.974   0.976   0.994   1.015   1.020
  1.052   1.058   1.061   1.073   1.089   1.093   1.099   1.133
  1.135   1.156   1.186   1.200   1.206   1.217   1.221   1.235
  1.260   1.275   1.293   1.294   1.319   1.326   1.345   1.367
  1.373   1.383   1.388   1.393   1.418   1.421   1.445   1.451
  1.467   1.468   1.475   1.483   1.506   1.514   1.521   1.536
  1.538   1.551   1.555   1.572   1.576   1.589   1.592   1.596
  1.604   1.613   1.622   1.632   1.642   1.650   1.673   1.692
  1.702   1.711   1.715   1.719   1.729   1.742   1.763   1.770
  1.772   1.789   1.797   1.800   1.826   1.829   1.832   1.873
  1.878   1.886   1.895   1.908   1.944   1.951   1.981   1.994
  2.004   2.010   2.036   2.050   2.083   2.091   2.101   2.116
  2.123   2.128   2.144   2.164   2.173   2.193   2.202   2.236
  2.271   2.298   2.324   2.327   2.330   2.406   2.414   2.449
  2.454   2.480   2.483   2.491   2.504   2.504   2.523   2.531
  2.561   2.563   2.572   2.582   2.592   2.595   2.606   2.611
  2.627   2.650   2.657   2.672   2.685   2.699   2.722   2.728
  2.757   2.766   2.783   2.796   2.807   2.833   2.840   2.856
  2.868   2.887   2.889   2.904   2.917   2.934   2.948   2.970
  3.002   3.028   3.032   3.044   3.058   3.073   3.102   3.111
  3.136   3.180   3.199   3.215   3.228   3.232   3.259   3.268
  3.285   3.322   3.383   3.385   3.441   3.444   3.520   3.583
  3.598   3.619   3.669   3.709   3.766   3.779   3.780   3.795
  3.796   3.822   3.854   3.856   3.893   3.941   4.035   4.066
  4.077   4.121   4.148   4.234   4.324   4.335   4.389   4.864
  5.035   5.110   5.152   5.196   5.250   5.258   5.393   5.419
  5.615   5.626   5.856   5.887  23.542  23.849  23.860  23.909
 23.930  23.932  23.942  23.951  23.999  24.060  24.067  24.167
 49.884  49.914  50.013  50.033
 --------------------------------------------------------------
 
          Ground-State Mulliken Net Atomic Charges

     Atom                 Charge (a.u.)
  ----------------------------------------
      1 C                     0.385371
      2 C                     0.375809
      3 C                    -0.491544
      4 C                    -0.438710
      5 O                     0.058609
      6 O                    -0.171539
      7 O                     0.044579
      8 O                    -0.178010
      9 C                    -0.227571
     10 C                    -0.229684
     11 C                     0.469835
     12 C                    -0.667846
     13 C                    -0.666629
     14 C                     0.450938
     15 H                     0.170658
     16 H                     0.170161
     17 H                     0.124335
     18 H                     0.178223
     19 H                     0.169424
     20 H                     0.167855
     21 H                     0.177743
     22 H                     0.124453
     23 C                    -0.521445
     24 C                    -0.514835
     25 H                     0.203810
     26 H                     0.142422
     27 H                     0.175039
     28 H                     0.174876
     29 H                     0.202618
     30 H                     0.141057
  ----------------------------------------
  Sum of atomic charges =    -0.000000

 -----------------------------------------------------------------
                    Cartesian Multipole Moments
 -----------------------------------------------------------------
    Charge (ESU x 10^10)
                -0.0000
    Dipole Moment (Debye)
         X       0.0849      Y      -0.0942      Z       0.0566
       Tot       0.1389
    Quadrupole Moments (Debye-Ang)
        XX     -76.0324     XY      -0.0778     YY     -95.5819
        XZ       0.0937     YZ      -8.8995     ZZ     -99.5318
    Octopole Moments (Debye-Ang^2)
       XXX      46.5608    XXY      -0.5207    XYY      -4.6893
       YYY      -4.0447    XXZ       0.6041    XYZ     -18.7301
       YYZ       0.1169    XZZ      17.7454    YZZ      -0.0911
       ZZZ       1.1171
    Hexadecapole Moments (Debye-Ang^3)
      XXXX   -2041.1250   XXXY       6.0326   XXYY    -655.9603
      XYYY       3.4827   YYYY   -1998.9604   XXXZ       1.5799
      XXYZ     -32.6728   XYYZ       1.1053   YYYZ     -69.2153
      XXZZ    -435.6612   XYZZ       2.2884   YYZZ    -394.4003
      XZZZ       3.2469   YZZZ     -12.8788   ZZZZ    -328.6316
 -----------------------------------------------------------------
 Calculating analytic gradient of the SCF energy
 Gradient of SCF Energy
            1           2           3           4           5           6
    1  -0.0001221  -0.0001110   0.0000841  -0.0000304  -0.0001332  -0.0001866
    2  -0.0000867  -0.0003167   0.0005414   0.0003907   0.0006487  -0.0002723
    3   0.0004727  -0.0001860  -0.0006745   0.0001796  -0.0003198   0.0000493
            7           8           9          10          11          12
    1  -0.0001183  -0.0000295   0.0001017   0.0000697   0.0001303  -0.0000840
    2  -0.0008878  -0.0001212   0.0000904  -0.0000886   0.0000624   0.0000903
    3   0.0004780   0.0000778  -0.0000630   0.0000616   0.0002000  -0.0000220
           13          14          15          16          17          18
    1  -0.0000873   0.0001699   0.0000100   0.0000137  -0.0000043   0.0000217
    2  -0.0000856  -0.0000347   0.0000049  -0.0000025   0.0000059   0.0000323
    3  -0.0000021  -0.0002614  -0.0000002  -0.0000125   0.0000617  -0.0000160
           19          20          21          22          23          24
    1   0.0000007  -0.0000135   0.0000009  -0.0000060   0.0001032   0.0000831
    2  -0.0000039  -0.0000052  -0.0000404   0.0000129  -0.0000129   0.0000563
    3   0.0000206  -0.0000232   0.0000049  -0.0000438   0.0000049   0.0000313
           25          26          27          28          29          30
    1   0.0000306   0.0000311   0.0000220  -0.0000047   0.0000217   0.0000364
    2  -0.0000044  -0.0000052  -0.0000045   0.0000102   0.0000075   0.0000184
    3  -0.0000647  -0.0000170   0.0000057  -0.0000198   0.0000585   0.0000194
 Max gradient component =       8.878E-04
 RMS gradient           =       1.919E-04
 Gradient time:  CPU 270.53 s  wall 20.49 s
 Geometry Optimization Parameters
   NAtoms,    NIC,     NZ,  NCons,   NDum,   NFix, NCnnct, MaxDiis
       30     194       0       0       0       0       0       0

 Cartesian Hessian Update
 Hessian Updated using BFGS Update


** GEOMETRY OPTIMIZATION IN DELOCALIZED INTERNAL COORDINATES **
   Searching for a Minimum

   Optimization Cycle:   4

                       Coordinates (Angstroms)
     ATOM                X               Y               Z
      1  C        -0.5479929303   -0.6842701333   -0.0644234638
      2  C        -0.5605523619    0.7181137591    0.0548783527
      3  C         0.7467178256   -1.4360383673   -0.0971334902
      4  C         0.7259593332    1.4820369875    0.0714400195
      5  O         1.5435711423   -1.0774928667    0.9328200083
      6  O         1.0357688139   -2.2925646792   -0.8966012174
      7  O         1.5418255432    1.0729084573   -0.9248957940
      8  O         1.0044561297    2.3708131922    0.8388260583
      9  C         2.8400959026    1.6884099464   -0.9739883725
     10  C         2.8307581827   -1.7171033996    0.9849368013
     11  C        -1.7465763015   -1.4167403586   -0.1219045391
     12  C        -2.9429709117   -0.7006809694   -0.0518181197
     13  C        -2.9564019000    0.6827653269    0.0665136306
     14  C        -1.7745274673    1.4240639774    0.1244424262
     15  H         2.7470722714    2.7664689543   -1.1122772745
     16  H         2.7165376960   -2.7974811138    1.0852143528
     17  H        -3.9067004646    1.2038192096    0.1129234715
     18  H         3.3884273456    1.4926538490   -0.0505753407
     19  H         3.3429378031    1.2337583906   -1.8246065356
     20  H         3.3251237533   -1.3005049251    1.8595478572
     21  H         3.3996435540   -1.5014784759    0.0786741180
     22  H        -3.8824302551   -1.2421160244   -0.0888891142
     23  C        -1.8411343492    2.9277035214    0.2429587395
     24  C        -1.7841133374   -2.9228320941   -0.2415791873
     25  H        -1.4054704066   -3.2524889381   -1.2110358326
     26  H        -2.8079814590   -3.2829896367   -0.1266892634
     27  H        -1.1680685048   -3.4080359177    0.5199894942
     28  H        -1.2434832328    3.4223289313   -0.5268848028
     29  H        -1.4560922936    3.2651700615    1.2070407115
     30  H        -2.8732961708    3.2674262153    0.1407953661
   Point Group: c1    Number of degrees of freedom:    84


   Energy is   -766.876273415

 Hessian Updated using BFGS Update

 76 Hessian modes will be used to form the next step
  Hessian Eigenvalues:
     0.006489    0.007721    0.007956    0.010559    0.010657    0.011076
     0.014295    0.015780    0.016366    0.017917    0.018928    0.022037
     0.022134    0.022186    0.023153    0.023281    0.023520    0.040012
     0.069903    0.071722    0.071929    0.072723    0.072831    0.101362
     0.101382    0.106006    0.106073    0.159605    0.159980    0.159998
     0.159999    0.160059    0.160308    0.224693    0.244066    0.245646
     0.249830    0.249850    0.249883    0.249910    0.249941    0.249982
     0.250000    0.250000    0.252829    0.301314    0.312182    0.313721
     0.327089    0.333376    0.344632    0.344804    0.346236    0.346240
     0.346334    0.346372    0.346466    0.346584    0.347001    0.347154
     0.350779    0.350885    0.354063    0.354251    0.398455    0.399512
     0.416601    0.437170    0.447637    0.455637    0.458998    0.471383
     0.547622    0.548466    1.012355    1.014573

 Minimum Search - Taking Simple RFO Step
 Searching for Lamda that Minimizes Along All modes
 Value Taken    Lamda =  -0.00006729
 Step Taken.  Stepsize is  0.035207

                             Maximum     Tolerance    Cnvgd?
         Gradient           0.002177      0.000001      NO
         Displacement       0.015704      0.000001      NO
         Energy change      0.000002      0.000000      NO


 New Cartesian Coordinates Obtained by Inverse Iteration

 Displacement from previous Coordinates is:  0.176388
 Adding empirical dispersion correction 
 ----------------------------------------------------------------
 Doing -D3(op) with
 s6 =   1.00000
 s8 =   0.78311
 a1 =   0.30000
 a2 =   4.25000
 n  =  10.00000
 -D3 energy without 3body term =     -0.0335559304 hartrees
 ----------------------------------------------------------------
             Standard Nuclear Orientation (Angstroms)
    I     Atom           X                Y                Z
 ----------------------------------------------------------------
    1      C      -0.5450888546    -0.6869353938    -0.0648360682
    2      C      -0.5562146358     0.7156265224     0.0569091952
    3      C       0.7480679029    -1.4422357222    -0.0893604354
    4      C       0.7302803949     1.4798729617     0.0710286942
    5      O       1.5380388776    -1.0895764528     0.9479378659
    6      O       1.0437864576    -2.2927820593    -0.8927381367
    7      O       1.5366574157     1.0854184240    -0.9388957058
    8      O       1.0114591010     2.3656923602     0.8408701726
    9      C       2.8321761961     1.7060057838    -0.9948183375
   10      C       2.8251596345    -1.7289050500     1.0044926767
   11      C      -1.7447636367    -1.4176510695    -0.1255527938
   12      C      -2.9402802804    -0.7002927892    -0.0553792001
   13      C      -2.9522551503     0.6828252412     0.0662428738
   14      C      -1.7696922849     1.4225915779     0.1272512758
   15      H       2.7339441818     2.7853386580    -1.1187812337
   16      H       2.7107488871    -2.8099462860     1.0971343003
   17      H      -3.9020035474     1.2048981185     0.1122734127
   18      H       3.3913873380     1.5007768325    -0.0800263634
   19      H       3.3269929140     1.2635872421    -1.8565309420
   20      H       3.3135178079    -1.3176761307     1.8850085199
   21      H       3.3999376494    -1.5071969468     0.1034265473
   22      H      -3.8803219789    -1.2405909369    -0.0941058009
   23      C      -1.8352763310     2.9261286949     0.2475222488
   24      C      -1.7848420709    -2.9236371207    -0.2459761057
   25      H      -1.4058812976    -3.2536016793    -1.2151628590
   26      H      -2.8095034005    -3.2819304016    -0.1322211133
   27      H      -1.1704719883    -3.4103097630     0.5159976469
   28      H      -1.2360015350     3.4212191082    -0.5207547626
   29      H      -1.4514311847     3.2621300147     1.2125664504
   30      H      -2.8670236317     3.2667791417     0.1441770377
 ----------------------------------------------------------------
 Nuclear Repulsion Energy =  1146.4491599162 hartrees
 There are       59 alpha and       59 beta electrons
[...]
    -0.00059565     -0.00047843     -0.00016515
    -0.00037702      0.00022635      0.00010285
    -0.00009260     -0.00013425      0.00000268
     0.00012629      0.00025664      0.00006266
     0.00112625     -0.00137635     -0.00013914
    -0.00038415     -0.00041772     -0.00016051
    -0.00127892      0.01161535     -0.00150085
    -0.00084480     -0.00644539      0.00061821
    -0.01598155      0.00989914      0.00060327
     0.00562254     -0.00232232      0.00962692
     0.00342230     -0.00326756     -0.00612839
     0.00209728      0.00184904      0.00393718
     0.00357880      0.00157628     -0.00580408
    -0.00004905      0.00040754     -0.00002530
     0.00175877      0.05039987     -0.00500260
     0.00019827     -0.00110503      0.00010372
    -0.00408185      0.00328131      0.01065178
     0.01036459      0.00340999     -0.00107980
    -0.00871479      0.00668419     -0.01101269
    -0.36509134     -0.28539161      0.46857362
    -0.17984586     -0.14400184     -0.45745853
     0.52139235     -0.15863037      0.04960455
vibration 73
     0.00010055      0.00003528      0.00008781
    -0.00017022      0.00004682      0.00011736
    -0.00074162     -0.00048392     -0.00129872
     0.00124182     -0.00106660     -0.00203361
     0.00141860     -0.00041354      0.00054627
    -0.00010725      0.00031754      0.00034964
    -0.00236103     -0.00057246      0.00083641
     0.00018285      0.00060149      0.00055877
    -0.03188061     -0.01889121     -0.01046077
     0.01840623     -0.01151026     -0.00595944
    -0.00000673     -0.00001890     -0.00001087
     0.00000144     -0.00000625     -0.00001048
    -0.00005602      0.00003997     -0.00000899
     0.00002040     -0.00005768     -0.00001600
    -0.05519867      0.50855470     -0.06840794
     0.03868615      0.30304295     -0.02930894
     0.00055647     -0.00038880     -0.00001816
     0.28857649     -0.11639451      0.48929267
     0.16764311     -0.15500340     -0.29541147
    -0.09637544     -0.08311135     -0.17800492
    -0.17436444     -0.07539898      0.27882391
    -0.00001928     -0.00005234      0.00000861
    -0.00011127     -0.00050544      0.00005308
     0.00001961      0.00006240     -0.00001626
     0.00013794     -0.00015217     -0.00045745
    -0.00082820     -0.00029647      0.00008300
     0.00038678     -0.00036810      0.00052033
     0.00397575      0.00302620     -0.00503535
     0.00195860      0.00153173      0.00483094
    -0.00448957      0.00132627     -0.00041703
vibration 74
     0.00013538      0.00001441      0.00009264
     0.00008435     -0.00000196     -0.00003815
    -0.00112880     -0.00106196     -0.00205410
    -0.00065928      0.00075535      0.00113095
     0.00225604     -0.00054963      0.00078821
    -0.00022869      0.00060651      0.00057427
     0.00129749      0.00024126     -0.00041260
    -0.00013428     -0.00039328     -0.00032076
     0.01863094      0.01163851      0.00576980
     0.03114915     -0.02061510     -0.00950378
    -0.00001590     -0.00007252     -0.00001758
     0.00009632      0.00009167     -0.00000569
     0.00008839     -0.00008398     -0.00000415
    -0.00001377      0.00005404      0.00000693
     0.03244737     -0.30317665      0.04028549
     0.06611294      0.52462237     -0.04982968
    -0.00088148      0.00054447      0.00005065
    -0.16722092      0.06676788     -0.28340558
    -0.09857996      0.09112180      0.17366920
    -0.16445684     -0.14183243     -0.30357793
    -0.29284342     -0.12535568      0.46794291
    -0.00096731     -0.00064227     -0.00004216
     0.00014565      0.00089953     -0.00009186
     0.00021543     -0.00085933      0.00010158
    -0.00324069      0.00254980      0.00820518
     0.00751595      0.00241171     -0.00076391
    -0.00692830      0.00513343     -0.00862980
    -0.00682958     -0.00533730      0.00875051
    -0.00336675     -0.00271978     -0.00849998
     0.00841125     -0.00254279      0.00079137
vibration 75
     0.00003159      0.00005044      0.00026888
    -0.00001100      0.00008479     -0.00003075
     0.00006319      0.00007956      0.00000673
    -0.00004336      0.00000519      0.00000241
     0.00001345      0.00000737     -0.00000776
     0.00017784     -0.00001864      0.00005240
     0.00000749     -0.00001406     -0.00000150
     0.00000559     -0.00000092      0.00000174
     0.00006264     -0.00010274      0.00010058
    -0.00026390     -0.00060492      0.00032414
    -0.00054000      0.00003063     -0.00046513
     0.00164057      0.00116860     -0.00017411
    -0.00023058     -0.00006673     -0.00002259
     0.00007143      0.00003086      0.00001008
    -0.00011690      0.00106687     -0.00010068
     0.00082167      0.00619397     -0.00043075
     0.00324712     -0.00177650     -0.00005754
    -0.00060799      0.00025742     -0.00105249
     0.00002536     -0.00000786     -0.00000949
     0.00019569      0.00008972      0.00054141
     0.00236333      0.00086635     -0.00388678
    -0.01758061     -0.01141280     -0.00085323
    -0.00054632     -0.00004247      0.00164347
    -0.04279728      0.00141545     -0.08039593
    -0.22894393      0.17991156      0.52049306
     0.33291697      0.11586411     -0.05291920
     0.40471147     -0.31553434      0.49468066
     0.00725674      0.00593821     -0.00903207
    -0.00493548     -0.00402134     -0.01138010
     0.00419128     -0.00141191      0.00074155
vibration 76
     0.00001038      0.00008445     -0.00002072
    -0.00001858      0.00005277      0.00028151
     0.00004381      0.00000715     -0.00000062
    -0.00005891      0.00005861      0.00002915
    -0.00000702     -0.00001066     -0.00000157
     0.00000083     -0.00000068      0.00000423
    -0.00001141      0.00001126     -0.00002054
    -0.00017183     -0.00003056      0.00005990
     0.00025649     -0.00065245      0.00040278
    -0.00007828     -0.00013349      0.00011177
    -0.00009320      0.00002888     -0.00000860
     0.00030390     -0.00000957     -0.00003089
    -0.00165210      0.00109278     -0.00016150
     0.00053395      0.00003256     -0.00050595
    -0.00073127      0.00685774     -0.00074472
     0.00017202      0.00135928     -0.00008083
     0.01758126     -0.01086716     -0.00104694
    -0.00247364      0.00084559     -0.00428281
    -0.00008588      0.00001121      0.00034287
    -0.00002092     -0.00000984      0.00000754
     0.00074913      0.00032734     -0.00122651
    -0.00391954     -0.00229415     -0.00004982
     0.04052081      0.00336897     -0.08169675
    -0.00104112      0.00004097     -0.00138216
    -0.00361129      0.00278502      0.00797503
     0.00807090      0.00276753     -0.00118363
     0.00790409     -0.00613569      0.00973928
    -0.40299997     -0.32819119      0.50561397
     0.22968861      0.18502116      0.52007188
    -0.30843242      0.10072010     -0.04775465
vibration 77
    -0.00005413      0.00002853     -0.00005015
    -0.00005589      0.00025789      0.00008536
     0.00004851      0.00054875      0.00051698
    -0.00004318      0.00004965      0.00005836
    -0.00006458     -0.00003932     -0.00013796
    -0.00015807     -0.00038324     -0.00020342
     0.00001255     -0.00001689     -0.00001693
     0.00000493     -0.00003028     -0.00002472
     0.00026474     -0.00050171      0.00039516
    -0.00006099     -0.00033223     -0.00003886
    -0.00092912      0.00087553      0.00029792
     0.00456539      0.00260315      0.00020386
    -0.00090144      0.00030463      0.00000988
     0.00016027      0.00001224      0.00001783
    -0.00053363      0.00515214     -0.00052951
     0.00040004      0.00348558     -0.00019156
     0.01194203     -0.00661850     -0.00056923
    -0.00250548      0.00094265     -0.00433693
    -0.00002172      0.00000259      0.00020276
     0.00056521      0.00042988      0.00107784
     0.00014758      0.00009613     -0.00027406
    -0.04797593     -0.02978139     -0.00158357
     0.00377633      0.00013054      0.00216694
    -0.08216807     -0.00078696      0.04307132
     0.20698399     -0.18642879     -0.55785055
     0.71582546      0.24454889     -0.07107715
     0.06129068     -0.06024655      0.11083941
    -0.00248411     -0.00263375      0.00487251
    -0.01059439     -0.00963058     -0.02806576
    -0.03204186      0.01015382     -0.00289318
vibration 78
    -0.00006086     -0.00025750     -0.00008669
    -0.00005348     -0.00000298      0.00005440
    -0.00003559      0.00000457     -0.00000672
     0.00005537     -0.00056684     -0.00050321
     0.00000356      0.00000965      0.00000289
    -0.00001150     -0.00000750      0.00000518
    -0.00007081      0.00004789      0.00013901
    -0.00016758      0.00038169      0.00019553
    -0.00001309      0.00025199      0.00009021
     0.00030696      0.00052966     -0.00040848
     0.00007358      0.00007850      0.00000851
    -0.00050669     -0.00009918      0.00001989
     0.00477082     -0.00258417     -0.00025735
    -0.00093747     -0.00093496     -0.00029340
     0.00024265     -0.00262900      0.00023366
    -0.00064643     -0.00529045      0.00034708
    -0.04984373      0.02949320      0.00214303
    -0.00027234      0.00005341     -0.00043115
     0.00057368     -0.00048201     -0.00101040
    -0.00001412      0.00001279     -0.00020569
    -0.00287917     -0.00115480      0.00470561
     0.00783387      0.00437969      0.00030610
    -0.08341891     -0.00117871     -0.04068543
    -0.00406526     -0.00011830      0.00183404
     0.00897067     -0.00817223     -0.02454497
     0.03618393      0.01245076     -0.00364298
     0.00363085     -0.00341481      0.00612888
     0.07051208      0.07017592     -0.12517273
     0.20400845      0.18733957      0.54812727
     0.72440378     -0.23153351      0.06663839
vibration 79
    -0.00012085     -0.00015633      0.00007118
     0.00012043     -0.00013559      0.00006806
     0.00014535      0.00010853      0.00001113
    -0.00014011      0.00007753     -0.00001987
     0.00011197      0.00018064     -0.00017985
    -0.00000542      0.00008725     -0.00010541
    -0.00010201      0.00015496     -0.00017052
     0.00002610      0.00007801     -0.00009513
     0.02099459     -0.04527711      0.03894014
    -0.02604177     -0.05202851      0.03995949
     0.00001202      0.00001541     -0.00000847
    -0.00007805     -0.00004470     -0.00000763
     0.00007886     -0.00003781     -0.00000764
    -0.00001628      0.00000807     -0.00000866
    -0.04924075      0.48130830     -0.04977859
     0.06416901      0.53353097     -0.03518491
    -0.00085643      0.00051193      0.00007334
    -0.22178534      0.08065409     -0.38461848
     0.02320011     -0.02616948     -0.02563363
    -0.01599559     -0.01939230     -0.01206393
     0.25917229      0.10128954     -0.42488914
     0.00089923      0.00055826      0.00006794
    -0.00087801     -0.00008326      0.00029954
     0.00084255     -0.00006242      0.00029721
     0.00010144      0.00014286      0.00050066
    -0.00656080     -0.00220053      0.00075589
    -0.00354257      0.00295758     -0.00470195
     0.00361168      0.00312785     -0.00490547
    -0.00004363      0.00019706      0.00066552
     0.00688684     -0.00217166      0.00074288
vibration 80
     0.00002513      0.00013449     -0.00008633
     0.00003443     -0.00014285      0.00010030
     0.00009410     -0.00007104      0.00016299
     0.00009525      0.00006540     -0.00019179
    -0.00021217     -0.00016164      0.00007848
    -0.00003553     -0.00008867      0.00004122
    -0.00024245      0.00016516     -0.00010191
    -0.00001915      0.00009506     -0.00005513
     0.02385069     -0.05014995      0.04352878
     0.02377525      0.04649443     -0.03588093
     0.00003239     -0.00001786      0.00000156
    -0.00003437      0.00000006      0.00000246
    -0.00003102     -0.00000262     -0.00000318
     0.00003159      0.00002040     -0.00000350
    -0.05485796      0.53055098     -0.05520995
    -0.05756094     -0.47430680      0.03162414
     0.00019398     -0.00012339      0.00000127
    -0.25051526      0.08991825     -0.43423557
     0.02384518     -0.02747488     -0.02471162
     0.01222510      0.01567792      0.00665640
    -0.23531283     -0.09085875      0.38562672
     0.00022227      0.00014711     -0.00000109
     0.00011606     -0.00005563      0.00059111
     0.00013955      0.00004798     -0.00049403
    -0.00153125      0.00129104      0.00383100
    -0.00180473     -0.00064180      0.00012859
     0.00158335     -0.00120887      0.00182309
     0.00203575      0.00162686     -0.00242896
    -0.00180670     -0.00153448     -0.00443750
    -0.00169465      0.00056300     -0.00008272
vibration 81
     0.00001045      0.00000157     -0.00001899
     0.00000743      0.00005085      0.00006698
    -0.00008313      0.00005016     -0.00001792
    -0.00083100     -0.00080618     -0.00031186
    -0.00003223     -0.00001566     -0.00003114
     0.00001115     -0.00002132      0.00000514
    -0.00009311      0.00023003      0.00024336
     0.00025320      0.00037152      0.00022406
     0.02531064     -0.05206658     -0.07300444
     0.00412330      0.00803734      0.01302569
     0.00000497     -0.00000300     -0.00000327
    -0.00007564     -0.00002737     -0.00000102
     0.00022081     -0.00012253     -0.00001608
    -0.00000290     -0.00001835      0.00000093
    -0.03337060      0.31507372     -0.05535532
    -0.00640955     -0.05064699      0.00727529
    -0.00258622      0.00141353      0.00013225
     0.13786567     -0.06577938      0.21878378
    -0.39894709      0.37001664      0.70172074
    -0.06680073     -0.05777647     -0.12302562
     0.02560056      0.01273613     -0.03880173
     0.00091162      0.00051901      0.00003203
    -0.00019843     -0.00001969      0.00001940
    -0.00001165     -0.00001189     -0.00001578
    -0.00006726      0.00007808      0.00015730
     0.00024615      0.00009208     -0.00003014
     0.00000854      0.00000718      0.00000925
     0.00057288      0.00059277     -0.00098210
     0.00006492      0.00020632      0.00060240
     0.00166164     -0.00045405      0.00017328
vibration 82
    -0.00000310      0.00005382      0.00006751
    -0.00000756      0.00001692      0.00000379
     0.00085259     -0.00083468     -0.00036116
    -0.00018864     -0.00022681     -0.00012724
     0.00009524      0.00022500      0.00026491
    -0.00027594      0.00037589      0.00025497
    -0.00000409      0.00006046      0.00005711
     0.00007328      0.00010566      0.00008269
     0.00430034     -0.00893555     -0.01238098
    -0.02394700     -0.04732157     -0.07657917
     0.00000832     -0.00002325     -0.00000001
    -0.00042427     -0.00023695     -0.00002162
     0.00027724     -0.00012714     -0.00001300
    -0.00000730     -0.00001405     -0.00000492
    -0.00571912      0.05437432     -0.00939938
     0.03743938      0.29854441     -0.04216206
    -0.00324800      0.00175977      0.00015560
     0.02317254     -0.01098070      0.03633730
    -0.06781281      0.06284549      0.11958918
     0.39176379      0.33872808      0.72328938
    -0.15090826     -0.07409640      0.22622446
     0.00495519      0.00284405      0.00019365
    -0.00003591     -0.00001943     -0.00001019
     0.00018810     -0.00002035      0.00000593
    -0.00009849      0.00025536      0.00071539
    -0.00151816     -0.00042183      0.00016753
    -0.00052829      0.00055406     -0.00092793
     0.00014218      0.00017064     -0.00026551
     0.00007760      0.00013842      0.00031911
     0.00012838      0.00000151      0.00000974
vibration 83
     0.00022739      0.00050568      0.00005297
    -0.00022108      0.00047204      0.00005401
     0.00014331     -0.00015789     -0.00001180
    -0.00014062     -0.00015430     -0.00000794
    -0.00005980      0.00001290     -0.00002685
    -0.00003380      0.00005763      0.00001773
     0.00005409      0.00000956     -0.00002390
     0.00002985      0.00005401      0.00001492
    -0.00012263      0.00019654      0.00023911
     0.00017828      0.00028384      0.00042772
     0.00090041     -0.00175794     -0.00013733
    -0.05465812     -0.02930958     -0.00192068
     0.05162577     -0.02593525     -0.00235303
    -0.00075229     -0.00164687     -0.00011245
     0.00017231     -0.00129585      0.00020875
    -0.00027484     -0.00185939      0.00024756
    -0.59574365      0.32270369      0.02902521
    -0.00024587      0.00017835     -0.00042415
     0.00158513     -0.00140045     -0.00271521
    -0.00247823     -0.00207107     -0.00448894
     0.00060487      0.00036193     -0.00094042
     0.63018235      0.35984230      0.02395393
     0.00454901     -0.00062202      0.00067631
    -0.00454303     -0.00073760      0.00074160
     0.00396222     -0.00322841     -0.01142936
     0.04661388      0.01912766     -0.00487922
     0.00585479     -0.00394003      0.00764609
    -0.00600356     -0.00437706      0.00805582
    -0.00398546     -0.00339548     -0.01144216
    -0.04658965      0.01809796     -0.00453163
vibration 84
     0.00042308      0.00032870      0.00003729
     0.00044373     -0.00034030     -0.00004613
     0.00012303     -0.00014160     -0.00002370
     0.00013171      0.00015092      0.00002443
    -0.00007597      0.00002353     -0.00002989
    -0.00004144      0.00006332      0.00003929
    -0.00008152     -0.00002343      0.00003103
    -0.00004402     -0.00007009     -0.00003955
     0.00008999     -0.00001065     -0.00007956
     0.00009252      0.00002177      0.00009754
     0.00187647     -0.00192575     -0.00017237
    -0.05150455     -0.03197016     -0.00219053
    -0.05583675      0.03269403      0.00294659
     0.00190445      0.00207047      0.00015319
    -0.00003821     -0.00034724      0.00001044
    -0.00004290      0.00023261      0.00001364
     0.63577625     -0.35085816     -0.03163783
    -0.00014388      0.00000336     -0.00016964
    -0.00071725      0.00057800      0.00113152
    -0.00077355     -0.00059105     -0.00130284
    -0.00010815      0.00000568      0.00011785
     0.58661520      0.34103582      0.02289755
    -0.00342314      0.00065358     -0.00049771
    -0.00298093     -0.00065010      0.00047608
     0.00186378     -0.00077252     -0.00542468
     0.03134308      0.01345310     -0.00328446
     0.00256966     -0.00068091      0.00326253
     0.00313506      0.00116822     -0.00406448
     0.00218839      0.00107103      0.00629503
     0.03598240     -0.01468098      0.00350759
[INT]
    4.268031
    0.457712
    0.133076
    0.091771
    0.622624
    2.932502
    3.584425
    0.420290
    0.145733
    0.212121
    0.778304
    0.516811
    5.609435
    1.558807
    2.615730
    0.300513
    8.676113
    7.294914
   16.323521
    1.668947
    0.008339
    1.157578
   10.397473
    0.070875
    7.352671
    0.610765
    0.357028
   27.013277
    3.069052
   17.017943
    3.118069
   17.699997
    6.688268
    0.124986
    0.004434
   12.011428
    2.857726
    3.578124
    5.084720
    5.067604
   70.551000
  104.053726
    0.119308
    2.358737
   64.883005
   45.393132
   24.499652
  263.523369
    2.096315
  113.229846
  266.989144
   69.316114
    8.971808
    6.174822
   25.182909
    9.871100
   36.284591
    3.432557
    9.103492
   21.623947
    0.002716
    3.432820
   16.156603
    3.712336
   11.178251
    4.508501
   11.448350
    0.168656
  528.443322
   19.650317
   23.439619
   21.823095
   12.114300
   53.324914
   12.522332
   11.978297
   12.372947
   14.588891
   36.097951
    2.906384
    8.151553
   13.014185
    8.280335
   20.835408

======= END OF MOLDEN-FORMATTED INPUT FILE =======


        *************************************************************
        *                                                           *
        *  Thank you very much for using Q-Chem.  Have a nice day.  *
        *                                                           *
        *************************************************************


