r0175.ten.osc.edu 10.25.155
Q-Chem Developer Version! Running on 10.25.155.*
                  Welcome to Q-Chem
     A Quantum Leap Into The Future Of Chemistry


 Q-Chem 5.0, Q-Chem, Inc., Pleasanton, CA (2017)

 Yihan Shao,  Zhengting Gan,  E. Epifanovsky,  A. T. B. Gilbert,  M. Wormit,  
 J. Kussmann,  A. W. Lange,  A. Behn,  Jia Deng,  Xintian Feng,  D. Ghosh,  
 M. Goldey,  P. R. Horn,  L. D. Jacobson,  I. Kaliman,  T. Kus,  A. Landau,  
 Jie Liu,  E. I. Proynov,  R. M. Richard,  R. P. Steele,  E. J. Sundstrom,  
 H. L. Woodcock III,  P. M. Zimmerman,  D. Zuev,  B. Albrecht,  E. Alguire,  
 S. A. Baeppler,  Z. Benda,  Y. A. Bernard,  E. J. Berquist,  K. B. Bravaya,  
 D. Casanova,  Chun-Min Chang,  Yunqing Chen,  A. Chien,  K. D. Closser,  
 M. P. Coons,  S. Dasgupta,  M. Diedenhofen,  Hainam Do,  R. G. Edgar,  
 Po-Tung Fang,  S. Fatehi,  Qingguo Feng,  Qinghui Ge,  A. Ghysels,  
 J. Gomes,  J. Gonthier,  A. Gunina,  M. W. D. Hanson-Heine,  
 P. H. P. Harbach,  A. W. Hauser,  J. E. Herr,  E. G. Hohenstein,  
 Z. C. Holden,  Kerwin Hui,  T.-C. Jagau,  Hyunjun Ji,  B. Kaduk,  
 K. Khistyaev,  Jaehoon Kim,  P. Klunzinger,  K. Koh,  D. Kosenkov,  
 T. Kowalczyk,  C. M. Krauter,  A. Kunitsa,  Ka Un Lao,  A. Laurent,  
 K. V. Lawler,  Joonho Lee,  D. Lefrancois,  S. Lehtola,  D. S. Levine,  
 Yi-Pei Li,  You-Sheng Lin,  Fenglai Liu,  E. Livshits,  A. Luenser,  
 P. Manohar,  E. Mansoor,  S. F. Manzer,  Shan-Ping Mao,  Yuezhi Mao,  
 N. Mardirossian,  A. V. Marenich,  L. A. Martinez-Martinez,  S. A. Maurer,  
 N. J. Mayhall,  S. C. McKenzie,  J.-M. Mewes,  A. F. Morrison,  K. Nanda,  
 T. S. Nguyen-Beck,  R. Olivares-Amaya,  J. A. Parkhill,  T. M. Perrine,  
 F. Plasser,  S. Prager,  A. Prociuk,  D. R. Rehn,  F. Rob,  M. Schneider,  
 N. Sergueev,  S. M. Sharada,  S. Sharma,  D. W. Small,  T. Stauch,  
 T. Stein,  Yu-Chuan Su,  A. J. W. Thom,  T. Tsuchimochi,  L. Vogt,  
 O. Vydrov,  M. A. Watson,  J. Wenzel,  M. de Wergifosse,  T. A. Wesolowski,  
 A. White,  J. Witte,  A. Yamada,  Jun Yang,  K. Yao,  S. Yeganeh,  
 S. R. Yost,  Zhi-Qiang You,  A. Zech,  Igor Ying Zhang,  Xing Zhang,  
 Yan Zhao,  Ying Zhu,  B. R. Brooks,  G. K. L. Chan,  C. J. Cramer,  
 M. S. Gordon,  W. J. Hehre,  A. Klamt,  M. W. Schmidt,  C. D. Sherrill,  
 D. G. Truhlar,  A. Aspuru-Guzik,  R. Baer,  A. T. Bell,  N. A. Besley,  
 Jeng-Da Chai,  A. Dreuw,  B. D. Dunietz,  T. R. Furlani,  Chao-Ping Hsu,  
 Yousung Jung,  Jing Kong,  D. S. Lambrecht,  WanZhen Liang,  C. Ochsenfeld,  
 V. A. Rassolov,  L. V. Slipchenko,  J. E. Subotnik,  T. Van Voorhis,  
 J. M. Herbert,  A. I. Krylov,  P. M. W. Gill,  M. Head-Gordon

 Contributors to earlier versions of Q-Chem not listed above: 
 R. D. Adamson,  B. Austin,  J. Baker,  G. J. O. Beran,  K. Brandhorst,  
 S. T. Brown,  E. F. C. Byrd,  A. K. Chakraborty,  C.-L. Cheng,  
 Siu Hung Chien,  D. M. Chipman,  D. L. Crittenden,  H. Dachsel,  
 R. A. DiStasio Jr.,  R. J. Doerksen,  A. D. Dutoi,  L. Fusti-Molnar,  
 W. A. Goddard III,  A. Golubeva-Zadorozhnaya,  S. R. Gwaltney,  G. Hawkins,  
 A. Heyden,  S. Hirata,  G. Kedziora,  F. J. Keil,  C. Kelley,  Jihan Kim,  
 R. A. King,  R. Z. Khaliullin,  P. P. Korambath,  W. Kurlancheek,  
 A. M. Lee,  M. S. Lee,  S. V. Levchenko,  Ching Yeh Lin,  D. Liotard,  
 R. C. Lochan,  I. Lotan,  P. E. Maslen,  N. Nair,  D. P. O'Neill,  
 D. Neuhauser,  E. Neuscamman,  C. M. Oana,  R. Olson,  B. Peters,  
 R. Peverati,  P. A. Pieniazek,  Y. M. Rhee,  J. Ritchie,  M. A. Rohrdanz,  
 E. Rosta,  N. J. Russ,  H. F. Schaefer III,  N. E. Schultz,  N. Shenvi,  
 A. C. Simmonett,  A. Sodt,  D. Stuck,  K. S. Thanthiriwatte,  V. Vanovschi,  
 Tao Wang,  A. Warshel,  C. F. Williams,  Q. Wu,  X. Xu,  W. Zhang

 Please cite Q-Chem as follows:
 Y. Shao et al., Mol. Phys. 113, 184-215 (2015)
 DOI: 10.1080/00268976.2014.952696

 Q-Chem 5.0.1 for Intel X86 EM64T Linux

 Parts of Q-Chem use Armadillo 5.200.1 (Boston Tea Smuggler).
 http://arma.sourceforge.net/

 Q-Chem begins on Sun Oct 15 23:13:16 2017  

Host: r0175.ten.osc.edu
0

     Scratch files written to /tmp/pbstmp.1310591/03//
Processing $rem in /users/PAS0291/osu6415/.qchemrc.
molden_format             true

Checking the input file for inconsistencies... 	...done.

--------------------------------------------------------------
User input:
--------------------------------------------------------------
$molecule
0 1
C 0.89528193 -0.43584103 -0.01133843
C 0.15180552 0.75909429 -0.11641833
C 0.22671720 -1.77436592 -0.05125389
C -1.34764690 0.78752954 -0.26471245
O -1.10660142 -1.68521028 -0.23955665
O 0.78480932 -2.84361662 0.05316897
O -1.95402633 0.75713621 0.93857107
O -1.92930519 0.93412024 -1.31006791
C -3.39235955 0.78201943 0.91453036
C -1.83200876 -2.92255444 -0.31464752
C 2.30487984 -0.37690873 0.11155769
C 2.90186040 0.88527431 0.13246669
C 2.15890760 2.05320774 0.02914505
C 0.77185215 2.01547318 -0.10182957
H -3.75478866 1.68628190 0.42318968
H -1.44115948 -3.54605852 -1.11951547
H 2.66410807 3.01305003 0.05052315
H -3.77465603 -0.09141052 0.38318493
H -3.70100137 0.76057197 1.95737731
H -2.86254006 -2.63918043 -0.51744357
H -1.75876870 -3.46496756 0.62941165
H 3.97974473 0.94959701 0.23052589
C -0.03208817 3.28830872 -0.22584833
C 3.20133831 -1.58789506 0.21493714
H 2.96071570 -2.19823946 1.08706186
H 4.24247500 -1.26724892 0.28641391
H 3.09426398 -2.24352352 -0.65083624
H -0.80359198 3.34812751 0.54749354
H -0.53685393 3.34147012 -1.19384695
H 0.61235877 4.16286001 -0.12591300
$end

$rem
sym_ignore      true
jobtype         ts
method          b3lyp
basis           6-311++G(d,p)
dft_d           d3_op
mem_total       62000
MEM_STATIC      4000
ao2mo_disk      350000
max_scf_cycles  200
geom_opt_max_cycles 1000
geom_opt_tol_displacement 1
GEOM_OPT_TOL_GRADIENT       1
GEOM_OPT_TOL_ENERGY         1
$end

--------------------------------------------------------------
 Adding empirical dispersion correction 
 ----------------------------------------------------------------
 Doing -D3(op) with
 s6 =   1.00000
 s8 =   0.78311
 a1 =   0.30000
 a2 =   4.25000
 n  =  10.00000
 -D3 energy without 3body term =     -0.0331803289 hartrees
 ----------------------------------------------------------------
             Standard Nuclear Orientation (Angstroms)
    I     Atom           X                Y                Z
 ----------------------------------------------------------------
    1      C       0.8952819300    -0.4358410300    -0.0113384300
    2      C       0.1518055200     0.7590942900    -0.1164183300
    3      C       0.2267172000    -1.7743659200    -0.0512538900
    4      C      -1.3476469000     0.7875295400    -0.2647124500
    5      O      -1.1066014200    -1.6852102800    -0.2395566500
    6      O       0.7848093200    -2.8436166200     0.0531689700
    7      O      -1.9540263300     0.7571362100     0.9385710700
    8      O      -1.9293051900     0.9341202400    -1.3100679100
    9      C      -3.3923595500     0.7820194300     0.9145303600
   10      C      -1.8320087600    -2.9225544400    -0.3146475200
   11      C       2.3048798400    -0.3769087300     0.1115576900
   12      C       2.9018604000     0.8852743100     0.1324666900
   13      C       2.1589076000     2.0532077400     0.0291450500
   14      C       0.7718521500     2.0154731800    -0.1018295700
   15      H      -3.7547886600     1.6862819000     0.4231896800
   16      H      -1.4411594800    -3.5460585200    -1.1195154700
   17      H       2.6641080700     3.0130500300     0.0505231500
   18      H      -3.7746560300    -0.0914105200     0.3831849300
   19      H      -3.7010013700     0.7605719700     1.9573773100
   20      H      -2.8625400600    -2.6391804300    -0.5174435700
   21      H      -1.7587687000    -3.4649675600     0.6294116500
   22      H       3.9797447300     0.9495970100     0.2305258900
   23      C      -0.0320881700     3.2883087200    -0.2258483300
   24      C       3.2013383100    -1.5878950600     0.2149371400
   25      H       2.9607157000    -2.1982394600     1.0870618600
   26      H       4.2424750000    -1.2672489200     0.2864139100
   27      H       3.0942639800    -2.2435235200    -0.6508362400
   28      H      -0.8035919800     3.3481275100     0.5474935400
   29      H      -0.5368539300     3.3414701200    -1.1938469500
   30      H       0.6123587700     4.1628600100    -0.1259130000
 ----------------------------------------------------------------
 Nuclear Repulsion Energy =  1143.5897819324 hartrees
 There are       59 alpha and       59 beta electrons
 Requested basis set is 6-311++G(d,p)
 There are 166 shells and 450 basis functions

 Total QAlloc Memory Limit  62000 MB
 Mega-Array Size      3911 MB
 MEM_STATIC part      4000 MB
 A cutoff of  1.0D-11 yielded  10996 shell pairs
 There are     83240 function pairs (     88968 Cartesian)
 
 -------------------------------------------------------
 OpenMP Integral Computing Module                       
 Release: version 1.0, May 2013, Q-Chem Inc. Pittsburgh 
 -------------------------------------------------------
 Integral Job Info:
 Integral job number is                      11
 Integral operator is                         1
 short-range coefficients                     0
 long-range coefficients              100000000
 Omega coefficients                           0
 if combine SR and LR in K                    0
 Integral screening is                        0
 Integral computing path is                   2
 max size of driver memory is            800000
 size of driver memory is                593474
 size of scratch memory is              2361544
 max col of scratch BK array               1296
 max len of scratch array in speh3          155
 max len of scratch index in speh4           18
 max int batch size is                      520
 min int batch size is                       52
 fixed nKL is                                52
 max L of basis functions is                  2
 order of int derivative is                   0
 number of shells is                        166
 number of basis is                         466
 number of cartesian basis is               466
 number of contracted shell pairs         10996
 number of primitive shell pairs          24878
 maxK2 (contraction) of shell pair           36
 max number of K2 of shell pair               1
 max number of CS2 of shell pair           2074
 max number of PS2 of shell pair           3840
 mem total for path MDJ                  161608
 -------------------------------------------------------
 Smallest overlap matrix eigenvalue = 2.50E-08

 Q-Chem warning in module /fs/scratch/osu6415/qchem-kaunlao-vdw/stvman/mkSTV.C, line 281:

 Overlap eigenvalue is smaller than square root of threshold

 Linear dependence detected in AO basis
 Number of orthogonalized atomic orbitals = 446
 Maximum deviation from orthogonality = 2.893E-10

 Scale SEOQF with 1.000000e-01/1.000000e-01/1.000000e-01

 Standard Electronic Orientation quadrupole field applied
 Nucleus-field energy     =     0.0000000423 hartrees
 Guess from superposition of atomic densities
 Warning:  Energy on first SCF cycle will be non-variational
 A restricted hybrid HF-DFT SCF calculation will be
 performed using Pulay DIIS extrapolation
 Exchange:     0.2000 Hartree-Fock + 0.0800 Slater + 0.7200 B88
 Correlation:  0.1900 VWN1RPA + 0.8100 LYP
 Using SG-1 standard quadrature grid
 Dispersion:   Grimme D3
 SCF converges when DIIS error is below 1.0E-08
 using 20 threads for integral computing
 -------------------------------------------------------
 OpenMP Integral computing Module                
 Release: version 1.0, May 2013, Q-Chem Inc. Pittsburgh 
 -------------------------------------------------------
 -------------------------------------------------------
 OpenMP BLAS3 based DFT computing Module                
 Release: version 1.0, May 2013, Q-Chem Inc. Pittsburgh 
 -------------------------------------------------------
 ---------------------------------------
  Cycle       Energy         DIIS Error
 ---------------------------------------
    1    -770.1931139071      3.04E-02
    2    -766.5442729270      3.94E-03
    3    -766.0207162820      6.68E-03
    4    -766.8125079770      1.69E-03
    5    -766.8698834025      3.84E-04
    6    -766.8720491226      1.75E-04
    7    -766.8726210795      3.32E-05
    8    -766.8726390485      1.66E-05
    9    -766.8726458804      3.82E-06
   10    -766.8726462124      1.14E-06
   11    -766.8726462414      3.07E-07
   12    -766.8726462436      1.07E-07
   13    -766.8726462432      4.37E-08
   14    -766.8726462432      1.28E-08
   15    -766.8726462413      4.95E-09 Convergence criterion met
 ---------------------------------------
 SCF time:  CPU 837.26 s  wall 48.13 s
 SCF   energy in the final basis set = -766.87264624
 Total energy in the final basis set = -766.87264624
 
 --------------------------------------------------------------
 
                    Orbital Energies (a.u.)
 --------------------------------------------------------------
 
 Alpha MOs
 -- Occupied --
-19.174 -19.173 -19.116 -19.115 -10.310 -10.310 -10.231 -10.230
-10.207 -10.206 -10.203 -10.199 -10.189 -10.184 -10.175 -10.164
 -1.120  -1.113  -1.028  -1.027  -0.885  -0.808  -0.793  -0.746
 -0.733  -0.725  -0.675  -0.649  -0.618  -0.578  -0.566  -0.536
 -0.516  -0.513  -0.494  -0.483  -0.481  -0.476  -0.467  -0.441
 -0.436  -0.427  -0.424  -0.413  -0.410  -0.402  -0.400  -0.385
 -0.379  -0.371  -0.360  -0.358  -0.354  -0.322  -0.309  -0.293
 -0.285  -0.269  -0.252
 -- Virtual --
 -0.062  -0.025  -0.011  -0.006  -0.000   0.004   0.012   0.016
  0.024   0.032   0.034   0.038   0.039   0.042   0.048   0.049
  0.054   0.059   0.070   0.073   0.076   0.082   0.086   0.092
  0.098   0.099   0.107   0.111   0.112   0.115   0.118   0.120
  0.123   0.127   0.130   0.136   0.139   0.142   0.144   0.145
  0.149   0.149   0.152   0.157   0.159   0.161   0.166   0.173
  0.176   0.177   0.181   0.187   0.190   0.190   0.195   0.196
  0.201   0.209   0.211   0.217   0.220   0.222   0.232   0.236
  0.244   0.249   0.250   0.258   0.258   0.261   0.270   0.272
  0.277   0.289   0.291   0.298   0.301   0.307   0.308   0.310
  0.317   0.321   0.323   0.330   0.332   0.341   0.346   0.350
  0.357   0.360   0.363   0.370   0.375   0.378   0.389   0.401
  0.404   0.409   0.414   0.421   0.424   0.437   0.448   0.449
  0.462   0.468   0.475   0.491   0.501   0.508   0.522   0.532
  0.542   0.545   0.563   0.567   0.571   0.574   0.586   0.593
  0.596   0.600   0.612   0.616   0.628   0.631   0.639   0.650
  0.651   0.658   0.661   0.664   0.670   0.674   0.684   0.686
  0.694   0.706   0.710   0.720   0.725   0.728   0.737   0.748
  0.754   0.762   0.766   0.774   0.783   0.805   0.813   0.824
  0.841   0.860   0.891   0.905   0.923   0.924   0.939   0.954
  0.963   0.969   0.979   0.987   1.004   1.008   1.029   1.037
  1.054   1.060   1.071   1.075   1.088   1.095   1.112   1.120
  1.122   1.159   1.172   1.178   1.207   1.227   1.246   1.277
  1.282   1.292   1.310   1.336   1.349   1.360   1.369   1.378
  1.387   1.402   1.413   1.424   1.438   1.444   1.452   1.460
  1.473   1.477   1.483   1.490   1.511   1.521   1.531   1.542
  1.558   1.560   1.569   1.571   1.576   1.587   1.592   1.609
  1.621   1.634   1.642   1.655   1.659   1.676   1.696   1.704
  1.713   1.716   1.727   1.742   1.743   1.762   1.777   1.784
  1.796   1.805   1.822   1.841   1.854   1.861   1.882   1.885
  1.902   1.915   1.924   1.945   1.965   1.971   1.982   2.013
  2.019   2.036   2.059   2.082   2.098   2.106   2.112   2.119
  2.139   2.151   2.168   2.205   2.208   2.240   2.248   2.257
  2.298   2.317   2.328   2.333   2.409   2.419   2.447   2.462
  2.481   2.485   2.496   2.507   2.513   2.524   2.541   2.547
  2.551   2.565   2.568   2.574   2.590   2.601   2.611   2.620
  2.654   2.670   2.687   2.698   2.704   2.714   2.741   2.750
  2.762   2.791   2.810   2.816   2.833   2.851   2.862   2.875
  2.880   2.895   2.908   2.922   2.936   2.952   2.972   2.993
  3.026   3.042   3.076   3.089   3.097   3.101   3.121   3.134
  3.165   3.200   3.225   3.226   3.245   3.267   3.274   3.283
  3.321   3.377   3.389   3.423   3.434   3.525   3.589   3.602
  3.633   3.670   3.726   3.773   3.780   3.790   3.795   3.808
  3.825   3.853   3.873   3.903   3.955   4.054   4.078   4.107
  4.125   4.176   4.237   4.308   4.389   4.392   4.861   4.995
  5.061   5.083   5.194   5.248   5.281   5.408   5.458   5.627
  5.678   5.874   5.917  23.545  23.857  23.860  23.908  23.928
 23.930  23.944  23.956  23.998  24.050  24.085  24.169  49.904
 49.937  50.012  50.063
 --------------------------------------------------------------
 
          Ground-State Mulliken Net Atomic Charges

     Atom                 Charge (a.u.)
  ----------------------------------------
      1 C                     0.216522
      2 C                     0.174649
      3 C                    -0.086564
      4 C                    -0.950892
      5 O                    -0.127156
      6 O                    -0.239751
      7 O                     0.111573
      8 O                    -0.103505
      9 C                    -0.174880
     10 C                    -0.197625
     11 C                     0.401232
     12 C                    -0.372226
     13 C                    -0.662913
     14 C                     0.686765
     15 H                     0.171239
     16 H                     0.184305
     17 H                     0.123650
     18 H                     0.163557
     19 H                     0.154856
     20 H                     0.149718
     21 H                     0.194149
     22 H                     0.133854
     23 C                    -0.464191
     24 C                    -0.505470
     25 H                     0.179342
     26 H                     0.138305
     27 H                     0.177251
     28 H                     0.161007
     29 H                     0.192469
     30 H                     0.170730
  ----------------------------------------
  Sum of atomic charges =     0.000000

 -----------------------------------------------------------------
                    Cartesian Multipole Moments
 -----------------------------------------------------------------
    Charge (ESU x 10^10)
                 0.0000
    Dipole Moment (Debye)
         X      -0.7896      Y       1.1340      Z       1.4840
       Tot       2.0277
    Quadrupole Moments (Debye-Ang)
        XX     -81.2468     XY       7.9537     YY     -90.3913
        XZ      -4.9866     YZ       2.6621     ZZ     -99.7282
    Octopole Moments (Debye-Ang^2)
       XXX     -37.2409    XXY      -5.7670    XYY     -27.1615
       YYY      17.4118    XXZ      19.0841    XYZ      -6.4004
       YYZ      -3.9027    XZZ      -8.3855    YZZ     -14.0391
       ZZZ       6.3536
    Hexadecapole Moments (Debye-Ang^3)
      XXXX   -2137.2812   XXXY      26.6628   XXYY    -682.5502
      XYYY     109.6994   YYYY   -2027.3422   XXXZ     -35.8517
      XXYZ      21.2299   XYYZ       2.4584   YYYZ       8.7161
      XXZZ    -454.7414   XYZZ       0.1668   YYZZ    -383.4751
      XZZZ     -14.5948   YZZZ       2.3195   ZZZZ    -272.0416
 -----------------------------------------------------------------
 Calculating analytic gradient of the SCF energy
 Gradient of SCF Energy
            1           2           3           4           5           6
    1  -0.0000545   0.0000741  -0.0000951   0.0000293  -0.0000229   0.0000835
    2   0.0000351  -0.0000326  -0.0000120  -0.0000376  -0.0000033   0.0000009
    3   0.0005813  -0.0007638   0.0008074  -0.0001360   0.0000216  -0.0007389
            7           8           9          10          11          12
    1  -0.0000488  -0.0000031   0.0000696   0.0000095  -0.0000167   0.0000015
    2  -0.0000145   0.0000114   0.0000136   0.0000545   0.0000352  -0.0000138
    3   0.0000764   0.0000856   0.0000133   0.0000198   0.0001057  -0.0000204
           13          14          15          16          17          18
    1  -0.0000012   0.0000137  -0.0000043  -0.0000140   0.0000050  -0.0000120
    2   0.0000031   0.0000041   0.0000132  -0.0000078  -0.0000040   0.0000076
    3  -0.0000176   0.0000459   0.0000054   0.0000114  -0.0000082   0.0000105
           19          20          21          22          23          24
    1  -0.0000109  -0.0000099  -0.0000028   0.0000063  -0.0000299  -0.0000601
    2   0.0000138  -0.0000046  -0.0000030  -0.0000062  -0.0000072  -0.0000994
    3   0.0000084   0.0000177   0.0000172  -0.0000134  -0.0000390  -0.0000322
           25          26          27          28          29          30
    1   0.0000200   0.0000141   0.0000136   0.0000222   0.0000131   0.0000105
    2   0.0000257  -0.0000072   0.0000275   0.0000072  -0.0000029   0.0000033
    3   0.0000074  -0.0000119  -0.0000248  -0.0000006  -0.0000110  -0.0000174
 Max gradient component =       8.074E-04
 RMS gradient           =       1.575E-04
 Gradient time:  CPU 272.85 s  wall 22.19 s
 Geometry Optimization Parameters
   NAtoms,    NIC,     NZ,  NCons,   NDum,   NFix, NCnnct, MaxDiis
       30     194       0       0       0       0       0       0


** GEOMETRY OPTIMIZATION IN DELOCALIZED INTERNAL COORDINATES **
   Searching for a Transition State

   Optimization Cycle:   1

                       Coordinates (Angstroms)
     ATOM                X               Y               Z
      1  C         0.8952819300   -0.4358410300   -0.0113384300
      2  C         0.1518055200    0.7590942900   -0.1164183300
      3  C         0.2267172000   -1.7743659200   -0.0512538900
      4  C        -1.3476469000    0.7875295400   -0.2647124500
      5  O        -1.1066014200   -1.6852102800   -0.2395566500
      6  O         0.7848093200   -2.8436166200    0.0531689700
      7  O        -1.9540263300    0.7571362100    0.9385710700
      8  O        -1.9293051900    0.9341202400   -1.3100679100
      9  C        -3.3923595500    0.7820194300    0.9145303600
     10  C        -1.8320087600   -2.9225544400   -0.3146475200
     11  C         2.3048798400   -0.3769087300    0.1115576900
     12  C         2.9018604000    0.8852743100    0.1324666900
     13  C         2.1589076000    2.0532077400    0.0291450500
     14  C         0.7718521500    2.0154731800   -0.1018295700
     15  H        -3.7547886600    1.6862819000    0.4231896800
     16  H        -1.4411594800   -3.5460585200   -1.1195154700
     17  H         2.6641080700    3.0130500300    0.0505231500
     18  H        -3.7746560300   -0.0914105200    0.3831849300
     19  H        -3.7010013700    0.7605719700    1.9573773100
     20  H        -2.8625400600   -2.6391804300   -0.5174435700
     21  H        -1.7587687000   -3.4649675600    0.6294116500
     22  H         3.9797447300    0.9495970100    0.2305258900
     23  C        -0.0320881700    3.2883087200   -0.2258483300
     24  C         3.2013383100   -1.5878950600    0.2149371400
     25  H         2.9607157000   -2.1982394600    1.0870618600
     26  H         4.2424750000   -1.2672489200    0.2864139100
     27  H         3.0942639800   -2.2435235200   -0.6508362400
     28  H        -0.8035919800    3.3481275100    0.5474935400
     29  H        -0.5368539300    3.3414701200   -1.1938469500
     30  H         0.6123587700    4.1628600100   -0.1259130000
   Point Group: c1    Number of degrees of freedom:    84


   Energy is   -766.872646241


 Attempting to Generate Delocalized Internal Coordinates

 84 Hessian modes will be used to form the next step
  Hessian Eigenvalues:
     0.007781    0.007825    0.008248    0.009610    0.010520    0.010847
     0.013465    0.013610    0.015629    0.016537    0.017511    0.017732
     0.020926    0.022280    0.022326    0.022553    0.023330    0.023370
     0.023650    0.071797    0.072309    0.072455    0.072966    0.101269
     0.101333    0.105903    0.106238    0.160000    0.160000    0.160000
     0.160000    0.160000    0.160000    0.160000    0.160000    0.160000
     0.160000    0.160000    0.160000    0.160000    0.160000    0.224692
     0.244818    0.249228    0.249951    0.249983    0.249985    0.249989
     0.249997    0.250000    0.250000    0.250000    0.250000    0.250000
     0.312936    0.313267    0.316502    0.327221    0.343535    0.344689
     0.346127    0.346406    0.346583    0.346659    0.346687    0.346878
     0.347048    0.347474    0.350621    0.350713    0.354102    0.354862
     0.397575    0.401013    0.407919    0.415260    0.441556    0.457647
     0.458931    0.471438    0.551283    0.554964    0.996499    1.022377
**WARNING** Hessian does not have the Desired Local Structure

 Transition State Search - Taking P-RFO Step
 Searching for Lamda that Maximizes Along the Lowest mode
 Value Taken    Lamda =   0.00778103
 Searching for Lamda that Minimizes Along All other modes
 Value Taken    Lamda =  -0.00008725
 Calculated Step too Large.  Step scaled by  0.000287
 Step Taken.  Stepsize is  0.300000

                             Maximum     Tolerance    Cnvgd?
         Gradient           0.000417      0.000001      NO
         Displacement       0.174156      0.000001      NO
         Energy change     *********      0.000000      NO


 New Cartesian Coordinates Obtained by Inverse Iteration

 Displacement from previous Coordinates is:  0.405035
 Adding empirical dispersion correction 
 ----------------------------------------------------------------
 Doing -D3(op) with
 s6 =   1.00000
 s8 =   0.78311
 a1 =   0.30000
 a2 =   4.25000
 n  =  10.00000
 -D3 energy without 3body term =     -0.0331568401 hartrees
 ----------------------------------------------------------------
             Standard Nuclear Orientation (Angstroms)
    I     Atom           X                Y                Z
 ----------------------------------------------------------------
    1      C       0.8954353398    -0.4356944102    -0.0105010605
    2      C       0.1520509768     0.7593166881    -0.1153704300
    3      C       0.2270442561    -1.7742180274    -0.0532658205
    4      C      -1.3471428809     0.7878264731    -0.2662420559
    5      O      -1.1059500974    -1.6849256272    -0.2437864612
    6      O       0.7850339704    -2.8435570844     0.0507989514
    7      O      -1.9556164274     0.7558717670     0.9359433613
    8      O      -1.9269894791     0.9356901357    -1.3124244121
    9      C      -3.3939074917     0.7806769840     0.9094268050
   10      C      -1.8311307348    -2.9222286204    -0.3216928020
   11      C       2.3048122437    -0.3768113432     0.1149273395
   12      C       2.9016581007     0.8853890814     0.1384669696
   13      C       2.1587964973     2.0533960761     0.0353214006
   14      C       0.7719743604     2.0157226419    -0.0981182431
   15      H      -3.7555496607     1.6855303636     0.4185944157
   16      H      -1.4388280236    -3.5446962185    -1.1266558948
   17      H       2.6638849077     3.0132485199     0.0587893128
   18      H      -3.7752095342    -0.0921117527     0.3763161122
   19      H      -3.7043648853     0.7578926909     1.9517063288
   20      H      -2.8613276918    -2.6386774322    -0.5259347667
   21      H      -1.7594991093    -3.4658170543     0.6218136030
   22      H       3.9793648518     0.9496689639     0.2384864503
   23      C      -0.0318467477     3.2886531988    -0.2219342991
   24      C       3.2011824457    -1.5878597174     0.2183452076
   25      H       2.9590862523    -2.1993199314     1.0892797098
   26      H       4.2421681674    -1.2672258630     0.2920413920
   27      H       3.0956686859    -2.2424054862    -0.6484383999
   28      H      -0.7204242157     3.4074398903     0.6198524089
   29      H      -0.6319207409     3.2871251552    -1.1354685387
   30      H       0.6252686542     4.1592011387    -0.2439460039
 ----------------------------------------------------------------
 Nuclear Repulsion Energy =  1143.5864759261 hartrees
 There are       59 alpha and       59 beta electrons
 Applying Cartesian multipole field
    Component          Value
    ---------          -----
     (2,0,0)        1.00000E-11
     (0,2,0)        2.00000E-11
     (0,0,2)       -3.00000E-11
 Nucleus-field energy     =     0.0000000423 hartrees
 Requested basis set is 6-311++G(d,p)
 There are 166 shells and 450 basis functions
 A cutoff of  1.0D-11 yielded  11000 shell pairs
 There are     83257 function pairs (     88985 Cartesian)
 Smallest overlap matrix eigenvalue = 2.48E-08

 Q-Chem warning in module /fs/scratch/osu6415/qchem-kaunlao-vdw/stvman/mkSTV.C, line 281:

 Overlap eigenvalue is smaller than square root of threshold

 Linear dependence detected in AO basis
 Number of orthogonalized atomic orbitals = 446
 Maximum deviation from orthogonality = 4.521E-10
 Guess MOs from SCF MO coefficient file
 Reading MOs from coefficient file
 Reading MOs from coefficient file
 A restricted hybrid HF-DFT SCF calculation will be
 performed using Pulay DIIS extrapolation
 Exchange:     0.2000 Hartree-Fock + 0.0800 Slater + 0.7200 B88
 Correlation:  0.1900 VWN1RPA + 0.8100 LYP
 Using SG-1 standard quadrature grid
 Dispersion:   Grimme D3
 SCF converges when DIIS error is below 1.0E-08
 Geometry optimization detected.  Setting ReadMinima to 0
 Setting SaveMinima to 0
 using 20 threads for integral computing
 -------------------------------------------------------
 OpenMP Integral computing Module                
 Release: version 1.0, May 2013, Q-Chem Inc. Pittsburgh 
 -------------------------------------------------------
 -------------------------------------------------------
 OpenMP BLAS3 based DFT computing Module                
 Release: version 1.0, May 2013, Q-Chem Inc. Pittsburgh 
 -------------------------------------------------------
 ---------------------------------------
  Cycle       Energy         DIIS Error
 ---------------------------------------
    1    -766.8657018148      2.81E-04
    2    -766.8725038450      4.59E-05
    3    -766.8724810918      6.20E-05
    4    -766.8725791418      1.33E-05
    5    -766.8725828213      5.28E-06
    6    -766.8725834959      1.63E-06
    7    -766.8725835431      7.50E-07
    8    -766.8725835531      2.77E-07
    9    -766.8725835544      4.75E-08
   10    -766.8725835543      2.23E-08
   11    -766.8725835561      6.75E-09 Convergence criterion met
 ---------------------------------------
 SCF time:  CPU 627.64 s  wall 36.09 s
 SCF   energy in the final basis set = -766.87258356
 Total energy in the final basis set = -766.87258356
 
 --------------------------------------------------------------
 
                    Orbital Energies (a.u.)
 --------------------------------------------------------------
 
 Alpha MOs
 -- Occupied --
-19.174 -19.173 -19.116 -19.115 -10.310 -10.310 -10.231 -10.230
-10.207 -10.206 -10.203 -10.199 -10.189 -10.184 -10.174 -10.164
 -1.120  -1.113  -1.028  -1.027  -0.885  -0.808  -0.793  -0.746
 -0.733  -0.725  -0.675  -0.649  -0.618  -0.578  -0.566  -0.536
 -0.516  -0.513  -0.494  -0.483  -0.481  -0.476  -0.467  -0.441
 -0.436  -0.427  -0.424  -0.413  -0.410  -0.402  -0.400  -0.385
 -0.379  -0.371  -0.360  -0.358  -0.354  -0.322  -0.309  -0.293
 -0.285  -0.269  -0.252
 -- Virtual --
 -0.062  -0.025  -0.011  -0.006  -0.000   0.003   0.012   0.016
  0.024   0.032   0.034   0.038   0.039   0.042   0.048   0.050
  0.054   0.060   0.069   0.073   0.076   0.082   0.086   0.093
  0.097   0.100   0.108   0.111   0.112   0.115   0.118   0.120
  0.123   0.127   0.130   0.136   0.138   0.142   0.144   0.146
  0.149   0.150   0.151   0.157   0.158   0.161   0.167   0.173
  0.176   0.177   0.180   0.186   0.189   0.191   0.195   0.196
  0.201   0.210   0.211   0.217   0.220   0.223   0.233   0.236
  0.244   0.249   0.251   0.257   0.258   0.261   0.270   0.271
  0.278   0.289   0.292   0.298   0.300   0.306   0.307   0.310
  0.317   0.321   0.323   0.329   0.333   0.338   0.348   0.350
  0.357   0.359   0.364   0.369   0.375   0.379   0.389   0.401
  0.404   0.410   0.413   0.422   0.424   0.436   0.447   0.450
  0.462   0.468   0.476   0.492   0.501   0.508   0.523   0.532
  0.544   0.545   0.563   0.567   0.571   0.574   0.588   0.592
  0.596   0.601   0.612   0.616   0.627   0.631   0.638   0.649
  0.652   0.659   0.662   0.665   0.669   0.674   0.681   0.686
  0.694   0.707   0.711   0.721   0.724   0.726   0.736   0.749
  0.755   0.762   0.768   0.772   0.783   0.805   0.811   0.824
  0.841   0.860   0.890   0.906   0.923   0.925   0.939   0.955
  0.962   0.967   0.980   0.988   1.004   1.008   1.029   1.038
  1.054   1.060   1.069   1.076   1.088   1.097   1.114   1.121
  1.124   1.162   1.167   1.177   1.203   1.230   1.246   1.279
  1.284   1.292   1.309   1.336   1.349   1.360   1.371   1.376
  1.387   1.400   1.406   1.423   1.438   1.443   1.453   1.462
  1.472   1.476   1.486   1.494   1.510   1.520   1.531   1.542
  1.558   1.560   1.568   1.570   1.575   1.586   1.590   1.609
  1.622   1.633   1.642   1.658   1.660   1.674   1.699   1.704
  1.712   1.717   1.727   1.741   1.743   1.765   1.778   1.784
  1.799   1.803   1.823   1.843   1.853   1.860   1.878   1.884
  1.903   1.914   1.926   1.944   1.964   1.973   1.984   2.013
  2.019   2.037   2.059   2.083   2.095   2.106   2.111   2.120
  2.140   2.149   2.170   2.205   2.208   2.240   2.249   2.259
  2.298   2.318   2.328   2.331   2.408   2.420   2.447   2.462
  2.481   2.485   2.496   2.508   2.513   2.525   2.542   2.546
  2.551   2.563   2.567   2.573   2.586   2.601   2.610   2.620
  2.655   2.670   2.688   2.699   2.703   2.715   2.743   2.751
  2.762   2.792   2.810   2.816   2.833   2.851   2.863   2.875
  2.880   2.897   2.906   2.923   2.935   2.952   2.971   2.993
  3.030   3.044   3.079   3.089   3.099   3.101   3.121   3.132
  3.163   3.200   3.225   3.225   3.249   3.264   3.272   3.285
  3.322   3.377   3.390   3.425   3.434   3.526   3.589   3.602
  3.632   3.670   3.727   3.773   3.779   3.790   3.792   3.813
  3.824   3.856   3.873   3.902   3.954   4.055   4.079   4.108
  4.125   4.176   4.238   4.308   4.389   4.392   4.861   4.994
  5.061   5.082   5.196   5.248   5.281   5.408   5.459   5.627
  5.678   5.873   5.917  23.545  23.857  23.860  23.908  23.928
 23.930  23.944  23.955  23.998  24.050  24.085  24.169  49.905
 49.938  50.011  50.063
 --------------------------------------------------------------
 
          Ground-State Mulliken Net Atomic Charges

     Atom                 Charge (a.u.)
  ----------------------------------------
      1 C                     0.211834
      2 C                     0.179972
      3 C                    -0.081653
      4 C                    -0.947790
      5 O                    -0.126773
      6 O                    -0.239893
      7 O                     0.112312
      8 O                    -0.105727
      9 C                    -0.171671
     10 C                    -0.197973
     11 C                     0.408627
     12 C                    -0.379197
     13 C                    -0.657397
     14 C                     0.666647
     15 H                     0.171051
     16 H                     0.184401
     17 H                     0.124328
     18 H                     0.162922
     19 H                     0.154759
     20 H                     0.149968
     21 H                     0.193968
     22 H                     0.133209
     23 C                    -0.460741
     24 C                    -0.502477
     25 H                     0.179488
     26 H                     0.138617
     27 H                     0.177223
     28 H                     0.161024
     29 H                     0.189396
     30 H                     0.171545
  ----------------------------------------
  Sum of atomic charges =     0.000000

 -----------------------------------------------------------------
                    Cartesian Multipole Moments
 -----------------------------------------------------------------
    Charge (ESU x 10^10)
                 0.0000
    Dipole Moment (Debye)
         X      -0.7969      Y       1.1303      Z       1.4928
       Tot       2.0349
    Quadrupole Moments (Debye-Ang)
        XX     -81.2240     XY       7.9413     YY     -90.4117
        XZ      -4.9398     YZ       2.7041     ZZ     -99.7457
    Octopole Moments (Debye-Ang^2)
       XXX     -37.3330    XXY      -5.7208    XYY     -27.1793
       YYY      17.3127    XXZ      18.9247    XYZ      -6.4811
       YYZ      -3.9107    XZZ      -8.4059    YZZ     -14.1129
       ZZZ       6.5434
    Hexadecapole Moments (Debye-Ang^3)
      XXXX   -2137.0818   XXXY      26.6559   XXYY    -682.4217
      XYYY     109.6358   YYYY   -2027.8082   XXXZ     -37.0154
      XXYZ      20.4919   XYYZ       1.4567   YYYZ       7.1300
      XXZZ    -454.6536   XYZZ       0.1066   YYZZ    -383.5488
      XZZZ     -16.5006   YZZZ       2.0769   ZZZZ    -272.3996
 -----------------------------------------------------------------
 Calculating analytic gradient of the SCF energy
 Gradient of SCF Energy
            1           2           3           4           5           6
    1  -0.0000416   0.0001112  -0.0001044   0.0000556  -0.0000213   0.0000869
    2   0.0000322  -0.0000605  -0.0000115   0.0001037  -0.0000094  -0.0000017
    3   0.0004835  -0.0008420   0.0008428  -0.0003821   0.0000186  -0.0007481
            7           8           9          10          11          12
    1  -0.0001116   0.0001756   0.0000854   0.0000142  -0.0000199   0.0000203
    2  -0.0000447   0.0001744  -0.0000019   0.0000621   0.0000309  -0.0000162
    3   0.0002259   0.0002124   0.0000193   0.0000211   0.0000712  -0.0001895
           13          14          15          16          17          18
    1  -0.0000234   0.0000153  -0.0000344  -0.0000142   0.0000067  -0.0000153
    2   0.0000303  -0.0000500   0.0000110  -0.0000094  -0.0000001   0.0000153
    3  -0.0000966   0.0004393  -0.0000067   0.0000106   0.0001004   0.0000078
           19          20          21          22          23          24
    1  -0.0000135  -0.0000098  -0.0000055   0.0000016  -0.0000266  -0.0000652
    2   0.0000124  -0.0000059  -0.0000065  -0.0000045  -0.0000818  -0.0000968
    3   0.0000096   0.0000168   0.0000184   0.0000203   0.0004795   0.0000150
           25          26          27          28          29          30
    1   0.0000269   0.0000140   0.0000091   0.0001928  -0.0003679   0.0000590
    2   0.0000190  -0.0000076   0.0000350   0.0001833  -0.0003298   0.0000286
    3   0.0000078  -0.0000120  -0.0000285  -0.0003074  -0.0002357  -0.0001717
 Max gradient component =       8.428E-04
 RMS gradient           =       2.003E-04
 Gradient time:  CPU 272.62 s  wall 21.40 s
 Geometry Optimization Parameters
   NAtoms,    NIC,     NZ,  NCons,   NDum,   NFix, NCnnct, MaxDiis
       30     194       0       0       0       0       0       0

 Cartesian Hessian Update
 Hessian Updated using Powell/Murtagh-Sargent Update
  Mixing factors:     0.000007 Powell
                      0.999993 Murtagh-Sargent


** GEOMETRY OPTIMIZATION IN DELOCALIZED INTERNAL COORDINATES **
   Searching for a Transition State

   Optimization Cycle:   2

                       Coordinates (Angstroms)
     ATOM                X               Y               Z
      1  C         0.8954353398   -0.4356944102   -0.0105010605
      2  C         0.1520509768    0.7593166881   -0.1153704300
      3  C         0.2270442561   -1.7742180274   -0.0532658205
      4  C        -1.3471428809    0.7878264731   -0.2662420559
      5  O        -1.1059500974   -1.6849256272   -0.2437864612
      6  O         0.7850339704   -2.8435570844    0.0507989514
      7  O        -1.9556164274    0.7558717670    0.9359433613
      8  O        -1.9269894791    0.9356901357   -1.3124244121
      9  C        -3.3939074917    0.7806769840    0.9094268050
     10  C        -1.8311307348   -2.9222286204   -0.3216928020
     11  C         2.3048122437   -0.3768113432    0.1149273395
     12  C         2.9016581007    0.8853890814    0.1384669696
     13  C         2.1587964973    2.0533960761    0.0353214006
     14  C         0.7719743604    2.0157226419   -0.0981182431
     15  H        -3.7555496607    1.6855303636    0.4185944157
     16  H        -1.4388280236   -3.5446962185   -1.1266558948
     17  H         2.6638849077    3.0132485199    0.0587893128
     18  H        -3.7752095342   -0.0921117527    0.3763161122
     19  H        -3.7043648853    0.7578926909    1.9517063288
     20  H        -2.8613276918   -2.6386774322   -0.5259347667
     21  H        -1.7594991093   -3.4658170543    0.6218136030
     22  H         3.9793648518    0.9496689639    0.2384864503
     23  C        -0.0318467477    3.2886531988   -0.2219342991
     24  C         3.2011824457   -1.5878597174    0.2183452076
     25  H         2.9590862523   -2.1993199314    1.0892797098
     26  H         4.2421681674   -1.2672258630    0.2920413920
     27  H         3.0956686859   -2.2424054862   -0.6484383999
     28  H        -0.7204242157    3.4074398903    0.6198524089
     29  H        -0.6319207409    3.2871251552   -1.1354685387
     30  H         0.6252686542    4.1592011387   -0.2439460039
   Point Group: c1    Number of degrees of freedom:    84


   Energy is   -766.872583556

 Hessian Updated using Powell/Murtagh-Sargent Update
  Mixing factors:     0.356687 Powell
                      0.643313 Murtagh-Sargent

 84 Hessian modes will be used to form the next step
  Hessian Eigenvalues:
     0.001038    0.007825    0.008271    0.009611    0.010520    0.010847
     0.013464    0.013609    0.015621    0.016514    0.017501    0.017702
     0.020924    0.022271    0.022325    0.022552    0.023320    0.023370
     0.023648    0.071797    0.072263    0.072445    0.072966    0.101269
     0.101333    0.105903    0.106238    0.159681    0.160000    0.160000
     0.160000    0.160000    0.160000    0.160000    0.160000    0.160000
     0.160000    0.160000    0.160000    0.160000    0.160000    0.224666
     0.244803    0.248961    0.249313    0.249952    0.249983    0.249985
     0.249994    0.249997    0.250000    0.250000    0.250000    0.250000
     0.312930    0.313267    0.316488    0.327221    0.343409    0.344540
     0.346127    0.346406    0.346583    0.346659    0.346687    0.346878
     0.347045    0.347474    0.350621    0.350713    0.354102    0.354862
     0.397574    0.401013    0.407919    0.415169    0.441506    0.457640
     0.458915    0.471437    0.551283    0.554936    0.996499    1.022343
**WARNING** Hessian does not have the Desired Local Structure

 Transition State Search - Taking P-RFO Step
 Searching for Lamda that Maximizes Along the Lowest mode
 Value Taken    Lamda =   0.00112356
 Searching for Lamda that Minimizes Along All other modes
 Value Taken    Lamda =  -0.00012075
 Calculated Step too Large.  Step scaled by  0.082625
 Step Taken.  Stepsize is  0.300000

                             Maximum     Tolerance    Cnvgd?
         Gradient           0.000688      0.000001      NO
         Displacement       0.174439      0.000001      NO
         Energy change      0.000063      0.000000      NO


 New Cartesian Coordinates Obtained by Inverse Iteration

 Displacement from previous Coordinates is:  0.401959
 Adding empirical dispersion correction 
 ----------------------------------------------------------------
 Doing -D3(op) with
 s6 =   1.00000
 s8 =   0.78311
 a1 =   0.30000
 a2 =   4.25000
 n  =  10.00000
 -D3 energy without 3body term =     -0.0331256746 hartrees
 ----------------------------------------------------------------
             Standard Nuclear Orientation (Angstroms)
    I     Atom           X                Y                Z
 ----------------------------------------------------------------
    1      C       0.8955833801    -0.4362535264    -0.0163171210
    2      C       0.1515122426     0.7581827742    -0.1238433775
    3      C       0.2281800745    -1.7752190024    -0.0604049344
    4      C      -1.3480111545     0.7828254649    -0.2743024800
    5      O      -1.1044483006    -1.6869746325    -0.2539320351
    6      O       0.7857805905    -2.8439402189     0.0517701867
    7      O      -1.9553374190     0.7659185053     0.9285728225
    8      O      -1.9296479449     0.9105206183    -1.3222652773
    9      C      -3.3936777951     0.7869963624     0.9031052560
   10      C      -1.8292571263    -2.9247825902    -0.3272943145
   11      C       2.3043250886    -0.3768040433     0.1153788978
   12      C       2.9000755973     0.8856582173     0.1448793316
   13      C       2.1567558297     2.0532100018     0.0408112784
   14      C       0.7707264462     2.0153736247    -0.1011887431
   15      H      -3.7576070972     1.6843316886     0.4003617811
   16      H      -1.4353507541    -3.5510323586    -1.1285223249
   17      H       2.6610248468     3.0133418247     0.0694107815
   18      H      -3.7734684267    -0.0938698312     0.3823354476
   19      H      -3.7030699708     0.7777857176     1.9459079618
   20      H      -2.8591419288    -2.6424208843    -0.5347226408
   21      H      -1.7592031909    -3.4637896528     0.6189570153
   22      H       3.9772764241     0.9505391487     0.2498536514
   23      C      -0.0321736501     3.2903160373    -0.2111518007
   24      C       3.2010352569    -1.5874673775     0.2202803053
   25      H       2.9553718476    -2.2007804744     1.0889049432
   26      H       4.2414605487    -1.2662921003     0.2993341500
   27      H       3.0998821330    -2.2404170269    -0.6482274397
   28      H      -0.6285204387     3.4606904381     0.6907316954
   29      H      -0.7225529316     3.2517900225    -1.0567673242
   30      H       0.6261998126     4.1496644729    -0.3453251123
 ----------------------------------------------------------------
 Nuclear Repulsion Energy =  1143.5370414493 hartrees
 There are       59 alpha and       59 beta electrons
 Applying Cartesian multipole field
    Component          Value
    ---------          -----
     (2,0,0)        1.00000E-11
     (0,2,0)        2.00000E-11
     (0,0,2)       -3.00000E-11
 Nucleus-field energy     =     0.0000000423 hartrees
 Requested basis set is 6-311++G(d,p)
 There are 166 shells and 450 basis functions
 A cutoff of  1.0D-11 yielded  10996 shell pairs
 There are     83232 function pairs (     88959 Cartesian)
 Smallest overlap matrix eigenvalue = 2.49E-08

 Q-Chem warning in module /fs/scratch/osu6415/qchem-kaunlao-vdw/stvman/mkSTV.C, line 281:

 Overlap eigenvalue is smaller than square root of threshold

 Linear dependence detected in AO basis
 Number of orthogonalized atomic orbitals = 446
 Maximum deviation from orthogonality = 5.861E-10
 Guess MOs from SCF MO coefficient file
 Reading MOs from coefficient file
 Reading MOs from coefficient file
 A restricted hybrid HF-DFT SCF calculation will be
 performed using Pulay DIIS extrapolation
 Exchange:     0.2000 Hartree-Fock + 0.0800 Slater + 0.7200 B88
 Correlation:  0.1900 VWN1RPA + 0.8100 LYP
 Using SG-1 standard quadrature grid
 Dispersion:   Grimme D3
 SCF converges when DIIS error is below 1.0E-08
 Geometry optimization detected.  Setting ReadMinima to 0
 Setting SaveMinima to 0
 using 20 threads for integral computing
 -------------------------------------------------------
 OpenMP Integral computing Module                
 Release: version 1.0, May 2013, Q-Chem Inc. Pittsburgh 
 -------------------------------------------------------
 -------------------------------------------------------
 OpenMP BLAS3 based DFT computing Module                
 Release: version 1.0, May 2013, Q-Chem Inc. Pittsburgh 
 -------------------------------------------------------
 ---------------------------------------
  Cycle       Energy         DIIS Error
 ---------------------------------------
    1    -766.8652183042      3.50E-04
    2    -766.8723849715      4.68E-05
    3    -766.8723490273      6.71E-05
    4    -766.8724616944      1.66E-05
    5    -766.8724671216      6.73E-06
    6    -766.8724679362      2.85E-06
    7    -766.8724680813      9.41E-07
    8    -766.8724681002      2.76E-07
    9    -766.8724681019      6.10E-08
   10    -766.8724681018      2.81E-08
   11    -766.8724681034      1.06E-08
   12    -766.8724681019      3.96E-09 Convergence criterion met
 ---------------------------------------
 SCF time:  CPU 667.81 s  wall 38.37 s
 SCF   energy in the final basis set = -766.87246810
 Total energy in the final basis set = -766.87246810
 
 --------------------------------------------------------------
 
                    Orbital Energies (a.u.)
 --------------------------------------------------------------
 
 Alpha MOs
 -- Occupied --
-19.174 -19.174 -19.116 -19.115 -10.310 -10.310 -10.231 -10.230
-10.207 -10.207 -10.203 -10.200 -10.189 -10.184 -10.174 -10.164
 -1.120  -1.113  -1.028  -1.027  -0.885  -0.808  -0.793  -0.746
 -0.733  -0.725  -0.675  -0.649  -0.618  -0.578  -0.566  -0.536
 -0.516  -0.513  -0.494  -0.483  -0.481  -0.476  -0.467  -0.441
 -0.436  -0.427  -0.424  -0.413  -0.410  -0.402  -0.400  -0.385
 -0.379  -0.371  -0.360  -0.358  -0.354  -0.322  -0.309  -0.293
 -0.285  -0.269  -0.252
 -- Virtual --
 -0.062  -0.025  -0.011  -0.006  -0.001   0.003   0.012   0.016
  0.024   0.032   0.034   0.038   0.039   0.042   0.047   0.050
  0.054   0.060   0.069   0.072   0.076   0.082   0.087   0.093
  0.096   0.100   0.107   0.111   0.112   0.115   0.118   0.120
  0.123   0.127   0.130   0.135   0.138   0.142   0.145   0.146
  0.148   0.150   0.151   0.157   0.158   0.161   0.167   0.172
  0.175   0.176   0.180   0.186   0.189   0.191   0.195   0.196
  0.200   0.210   0.211   0.217   0.219   0.223   0.233   0.235
  0.245   0.249   0.251   0.255   0.258   0.261   0.270   0.271
  0.279   0.290   0.292   0.296   0.298   0.305   0.307   0.310
  0.316   0.321   0.324   0.328   0.333   0.335   0.348   0.350
  0.357   0.358   0.363   0.369   0.373   0.379   0.389   0.402
  0.403   0.410   0.413   0.421   0.425   0.435   0.445   0.450
  0.464   0.471   0.480   0.495   0.501   0.508   0.522   0.532
  0.544   0.545   0.561   0.565   0.570   0.574   0.587   0.591
  0.596   0.601   0.612   0.617   0.626   0.631   0.639   0.648
  0.654   0.658   0.662   0.667   0.667   0.673   0.679   0.687
  0.693   0.707   0.711   0.720   0.724   0.728   0.736   0.748
  0.756   0.761   0.767   0.771   0.783   0.806   0.809   0.824
  0.842   0.861   0.888   0.906   0.922   0.925   0.938   0.951
  0.963   0.967   0.982   0.989   1.005   1.010   1.029   1.038
  1.054   1.061   1.069   1.077   1.090   1.098   1.114   1.119
  1.124   1.155   1.164   1.179   1.199   1.231   1.246   1.279
  1.287   1.291   1.309   1.336   1.349   1.361   1.371   1.379
  1.383   1.395   1.404   1.423   1.438   1.442   1.456   1.462
  1.471   1.476   1.485   1.497   1.511   1.522   1.534   1.542
  1.557   1.560   1.567   1.571   1.575   1.585   1.590   1.609
  1.623   1.633   1.642   1.657   1.662   1.673   1.696   1.703
  1.712   1.716   1.727   1.737   1.741   1.767   1.780   1.782
  1.799   1.803   1.823   1.846   1.848   1.859   1.879   1.885
  1.905   1.915   1.928   1.944   1.962   1.975   1.985   2.014
  2.020   2.036   2.059   2.081   2.093   2.107   2.111   2.122
  2.138   2.152   2.172   2.204   2.208   2.238   2.251   2.259
  2.299   2.317   2.328   2.331   2.404   2.422   2.447   2.461
  2.480   2.486   2.496   2.505   2.513   2.525   2.543   2.544
  2.554   2.562   2.567   2.576   2.584   2.601   2.613   2.620
  2.656   2.670   2.688   2.699   2.702   2.717   2.740   2.752
  2.761   2.790   2.810   2.816   2.834   2.851   2.864   2.876
  2.880   2.899   2.906   2.922   2.935   2.952   2.972   2.991
  3.030   3.046   3.076   3.088   3.098   3.100   3.121   3.130
  3.162   3.201   3.224   3.225   3.249   3.261   3.271   3.285
  3.322   3.377   3.390   3.421   3.434   3.526   3.589   3.602
  3.632   3.670   3.728   3.773   3.779   3.790   3.793   3.816
  3.823   3.857   3.874   3.901   3.954   4.055   4.079   4.108
  4.124   4.176   4.238   4.307   4.389   4.392   4.860   4.994
  5.061   5.081   5.199   5.249   5.281   5.407   5.459   5.627
  5.678   5.873   5.917  23.545  23.857  23.860  23.908  23.928
 23.930  23.944  23.955  23.998  24.050  24.084  24.169  49.905
 49.940  50.011  50.064
 --------------------------------------------------------------
 
          Ground-State Mulliken Net Atomic Charges

     Atom                 Charge (a.u.)
  ----------------------------------------
      1 C                     0.207853
      2 C                     0.166703
      3 C                    -0.078009
      4 C                    -0.953514
      5 O                    -0.126915
      6 O                    -0.240045
      7 O                     0.112521
      8 O                    -0.104467
      9 C                    -0.169213
     10 C                    -0.198643
     11 C                     0.436626
     12 C                    -0.385486
     13 C                    -0.614853
     14 C                     0.627694
     15 H                     0.171434
     16 H                     0.184382
     17 H                     0.128345
     18 H                     0.161079
     19 H                     0.154816
     20 H                     0.150858
     21 H                     0.193603
     22 H                     0.131723
     23 C                    -0.466236
     24 C                    -0.505922
     25 H                     0.179661
     26 H                     0.138983
     27 H                     0.177077
     28 H                     0.164546
     29 H                     0.185894
     30 H                     0.169505
  ----------------------------------------
  Sum of atomic charges =     0.000000

 -----------------------------------------------------------------
                    Cartesian Multipole Moments
 -----------------------------------------------------------------
    Charge (ESU x 10^10)
                 0.0000
    Dipole Moment (Debye)
         X      -0.7949      Y       1.1606      Z       1.5214
       Tot       2.0721
    Quadrupole Moments (Debye-Ang)
        XX     -81.2317     XY       7.8630     YY     -90.3263
        XZ      -4.9380     YZ       2.7312     ZZ     -99.7981
    Octopole Moments (Debye-Ang^2)
       XXX     -37.3058    XXY      -5.4110    XYY     -27.3354
       YYY      17.6506    XXZ      19.1277    XYZ      -6.3595
       YYZ      -3.8702    XZZ      -8.2365    YZZ     -13.9340
       ZZZ       7.5588
    Hexadecapole Moments (Debye-Ang^3)
      XXXX   -2136.4132   XXXY      26.0769   XXYY    -681.9895
      XYYY     109.6323   YYYY   -2028.3101   XXXZ     -38.6003
      XXYZ      19.3212   XYYZ       0.6710   YYYZ       4.7915
      XXZZ    -454.7176   XYZZ       0.0766   YYZZ    -383.3023
      XZZZ     -19.2087   YZZZ       0.8049   ZZZZ    -273.3802
 -----------------------------------------------------------------
 Calculating analytic gradient of the SCF energy
 Gradient of SCF Energy
            1           2           3           4           5           6
    1  -0.0001111   0.0000900   0.0000601   0.0000167  -0.0001361   0.0000218
    2   0.0001311  -0.0006072  -0.0000082   0.0005762   0.0001094   0.0000166
    3   0.0008088  -0.0012452   0.0000415   0.0002822   0.0000257  -0.0003950
            7           8           9          10          11          12
    1  -0.0002620   0.0002015   0.0001424   0.0000189   0.0000717   0.0000108
    2  -0.0000915  -0.0002408   0.0000005   0.0000373   0.0001003  -0.0001562
    3   0.0001850   0.0000833   0.0000348   0.0000055   0.0000417  -0.0001779
           13          14          15          16          17          18
    1  -0.0001224   0.0002234  -0.0000383  -0.0000058  -0.0000290  -0.0000322
    2   0.0000696   0.0003099   0.0000133  -0.0000135  -0.0000243   0.0000023
    3   0.0001766   0.0000218  -0.0000046   0.0000134   0.0001349   0.0000081
           19          20          21          22          23          24
    1  -0.0000155  -0.0000128  -0.0000072   0.0000027   0.0001616  -0.0000654
    2   0.0000153  -0.0000179   0.0000076  -0.0000131   0.0002125  -0.0000877
    3   0.0000100   0.0000369   0.0000159   0.0000046   0.0004385  -0.0000260
           25          26          27          28          29          30
    1   0.0000111   0.0000094   0.0000214   0.0001460  -0.0003639  -0.0000078
    2   0.0000021  -0.0000098   0.0000478   0.0002075  -0.0004760  -0.0001131
    3   0.0000233   0.0000153  -0.0000180  -0.0002833  -0.0000287  -0.0002289
 Max gradient component =       1.245E-03
 RMS gradient           =       2.261E-04
 Gradient time:  CPU 271.78 s  wall 21.38 s
 Geometry Optimization Parameters
   NAtoms,    NIC,     NZ,  NCons,   NDum,   NFix, NCnnct, MaxDiis
       30     194       0       0       0       0       0       0

 Cartesian Hessian Update
 Hessian Updated using Powell/Murtagh-Sargent Update
  Mixing factors:     0.916262 Powell
                      0.083738 Murtagh-Sargent


** GEOMETRY OPTIMIZATION IN DELOCALIZED INTERNAL COORDINATES **
   Searching for a Transition State

   Optimization Cycle:   3

                       Coordinates (Angstroms)
     ATOM                X               Y               Z
      1  C         0.8955833801   -0.4362535264   -0.0163171210
      2  C         0.1515122426    0.7581827742   -0.1238433775
      3  C         0.2281800745   -1.7752190024   -0.0604049344
      4  C        -1.3480111545    0.7828254649   -0.2743024800
      5  O        -1.1044483006   -1.6869746325   -0.2539320351
      6  O         0.7857805905   -2.8439402189    0.0517701867
      7  O        -1.9553374190    0.7659185053    0.9285728225
      8  O        -1.9296479449    0.9105206183   -1.3222652773
      9  C        -3.3936777951    0.7869963624    0.9031052560
     10  C        -1.8292571263   -2.9247825902   -0.3272943145
     11  C         2.3043250886   -0.3768040433    0.1153788978
     12  C         2.9000755973    0.8856582173    0.1448793316
     13  C         2.1567558297    2.0532100018    0.0408112784
     14  C         0.7707264462    2.0153736247   -0.1011887431
     15  H        -3.7576070972    1.6843316886    0.4003617811
     16  H        -1.4353507541   -3.5510323586   -1.1285223249
     17  H         2.6610248468    3.0133418247    0.0694107815
     18  H        -3.7734684267   -0.0938698312    0.3823354476
     19  H        -3.7030699708    0.7777857176    1.9459079618
     20  H        -2.8591419288   -2.6424208843   -0.5347226408
     21  H        -1.7592031909   -3.4637896528    0.6189570153
     22  H         3.9772764241    0.9505391487    0.2498536514
     23  C        -0.0321736501    3.2903160373   -0.2111518007
     24  C         3.2010352569   -1.5874673775    0.2202803053
     25  H         2.9553718476   -2.2007804744    1.0889049432
     26  H         4.2414605487   -1.2662921003    0.2993341500
     27  H         3.0998821330   -2.2404170269   -0.6482274397
     28  H        -0.6285204387    3.4606904381    0.6907316954
     29  H        -0.7225529316    3.2517900225   -1.0567673242
     30  H         0.6261998126    4.1496644729   -0.3453251123
   Point Group: c1    Number of degrees of freedom:    84


   Energy is   -766.872468102

 Hessian Updated using Powell/Murtagh-Sargent Update
  Mixing factors:     0.997755 Powell
                      0.002245 Murtagh-Sargent

 74 Hessian modes will be used to form the next step
  Hessian Eigenvalues:
     0.000220    0.007826    0.008388    0.009701    0.010520    0.010847
     0.013520    0.013732    0.015627    0.016517    0.017524    0.017731
     0.020969    0.022295    0.022326    0.022552    0.023320    0.023370
     0.023648    0.071797    0.072262    0.072445    0.072966    0.101269
     0.101333    0.105903    0.106238    0.159677    0.159999    0.160000
     0.160000    0.160000    0.224666    0.244801    0.248960    0.249309
     0.249940    0.249981    0.249983    0.249985    0.249997    0.249998
     0.250000    0.250000    0.312930    0.313267    0.316487    0.327220
     0.343409    0.344539    0.346127    0.346406    0.346583    0.346659
     0.346687    0.346878    0.347044    0.347474    0.350621    0.350713
     0.354101    0.354862    0.397574    0.401013    0.407917    0.415168
     0.441493    0.457637    0.458914    0.471435    0.551281    0.554936
     0.996499    1.022342
**WARNING** Hessian does not have the Desired Local Structure

 Transition State Search - Taking P-RFO Step
 Searching for Lamda that Maximizes Along the Lowest mode
 Value Taken    Lamda =   0.00063447
 Searching for Lamda that Minimizes Along All other modes
 Value Taken    Lamda =  -0.00007187
 Calculated Step too Large.  Step scaled by  0.242163
 Step Taken.  Stepsize is  0.300000

                             Maximum     Tolerance    Cnvgd?
         Gradient           0.000553      0.000001      NO
         Displacement       0.170453      0.000001      NO
         Energy change      0.000115      0.000000      NO


 New Cartesian Coordinates Obtained by Inverse Iteration

 Displacement from previous Coordinates is:  0.430870
 Adding empirical dispersion correction 
 ----------------------------------------------------------------
 Doing -D3(op) with
 s6 =   1.00000
 s8 =   0.78311
 a1 =   0.30000
 a2 =   4.25000
 n  =  10.00000
 -D3 energy without 3body term =     -0.0330781883 hartrees
 ----------------------------------------------------------------
             Standard Nuclear Orientation (Angstroms)
    I     Atom           X                Y                Z
 ----------------------------------------------------------------
    1      C       0.8961150270    -0.4383848604    -0.0224009243
    2      C       0.1505414771     0.7557174812    -0.1290885069
    3      C       0.2308073772    -1.7788127040    -0.0586401815
    4      C      -1.3480782110     0.7774800579    -0.2897435981
    5      O      -1.1029899636    -1.6942979279    -0.2446998389
    6      O       0.7924807060    -2.8462690013     0.0450982110
    7      O      -1.9606852565     0.7620727478     0.9101728278
    8      O      -1.9239356897     0.9232252292    -1.3386573005
    9      C      -3.3986602575     0.7968650916     0.8782232079
   10      C      -1.8251084766    -2.9338812576    -0.3143055650
   11      C       2.3045242520    -0.3775842484     0.1117429177
   12      C       2.8987838521     0.8854330258     0.1467158393
   13      C       2.1540152929     2.0521696215     0.0470500707
   14      C       0.7681259214     2.0135129043    -0.0972324444
   15      H      -3.7513986563     1.6997586874     0.3775401468
   16      H      -1.4339809814    -3.5590533838    -1.1177115083
   17      H       2.6572083404     3.0128041131     0.0795059674
   18      H      -3.7842032910    -0.0782207610     0.3520186129
   19      H      -3.7128938271     0.7863355457     1.9195587251
   20      H      -2.8567065362    -2.6538611870    -0.5163489047
   21      H      -1.7487371698    -3.4728594188     0.6314938074
   22      H       3.9758116951     0.9513408882     0.2528360164
   23      C      -0.0346143961     3.2902540008    -0.1889704849
   24      C       3.2025580411    -1.5874202628     0.2148337820
   25      H       2.9577715340    -2.2020208297     1.0827361902
   26      H       4.2426708629    -1.2652218452     0.2938448113
   27      H       3.1017876454    -2.2395336035    -0.6543904392
   28      H      -0.5294375277     3.5109479780     0.7627121929
   29      H      -0.8101853031     3.2223809615    -0.9543676317
   30      H       0.6121355089     4.1342241575    -0.4331954186
 ----------------------------------------------------------------
 Nuclear Repulsion Energy =  1143.3106947646 hartrees
 There are       59 alpha and       59 beta electrons
 Applying Cartesian multipole field
    Component          Value
    ---------          -----
     (2,0,0)        1.00000E-11
     (0,2,0)        2.00000E-11
     (0,0,2)       -3.00000E-11
 Nucleus-field energy     =     0.0000000424 hartrees
 Requested basis set is 6-311++G(d,p)
 There are 166 shells and 450 basis functions
 A cutoff of  1.0D-11 yielded  10995 shell pairs
 There are     83221 function pairs (     88948 Cartesian)
 Smallest overlap matrix eigenvalue = 2.47E-08

 Q-Chem warning in module /fs/scratch/osu6415/qchem-kaunlao-vdw/stvman/mkSTV.C, line 281:

 Overlap eigenvalue is smaller than square root of threshold

 Linear dependence detected in AO basis
 Number of orthogonalized atomic orbitals = 446
 Maximum deviation from orthogonality = 5.220E-10
 Guess MOs from SCF MO coefficient file
 Reading MOs from coefficient file
 Reading MOs from coefficient file
 A restricted hybrid HF-DFT SCF calculation will be
 performed using Pulay DIIS extrapolation
 Exchange:     0.2000 Hartree-Fock + 0.0800 Slater + 0.7200 B88
 Correlation:  0.1900 VWN1RPA + 0.8100 LYP
 Using SG-1 standard quadrature grid
 Dispersion:   Grimme D3
 SCF converges when DIIS error is below 1.0E-08
 Geometry optimization detected.  Setting ReadMinima to 0
 Setting SaveMinima to 0
 using 20 threads for integral computing
 -------------------------------------------------------
 OpenMP Integral computing Module                
 Release: version 1.0, May 2013, Q-Chem Inc. Pittsburgh 
 -------------------------------------------------------
 -------------------------------------------------------
 OpenMP BLAS3 based DFT computing Module                
 Release: version 1.0, May 2013, Q-Chem Inc. Pittsburgh 
 -------------------------------------------------------
 ---------------------------------------
  Cycle       Energy         DIIS Error
 ---------------------------------------
    1    -766.8691035965      3.57E-04
    2    -766.8721831548      5.42E-05
    3    -766.8721227560      8.19E-05
    4    -766.8722743326      1.94E-05
    5    -766.8722812800      7.20E-06
    6    -766.8722821566      2.69E-06
    7    -766.8722822721      1.16E-06
    8    -766.8722822990      3.61E-07
    9    -766.8722823022      9.16E-08
   10    -766.8722823016      3.96E-08
   11    -766.8722823008      1.10E-08
   12    -766.8722823013      4.96E-09 Convergence criterion met
 ---------------------------------------
 SCF time:  CPU 666.63 s  wall 38.21 s
 SCF   energy in the final basis set = -766.87228230
 Total energy in the final basis set = -766.87228230
 
 --------------------------------------------------------------
 
                    Orbital Energies (a.u.)
 --------------------------------------------------------------
 
 Alpha MOs
 -- Occupied --
-19.174 -19.173 -19.116 -19.115 -10.310 -10.310 -10.232 -10.230
-10.207 -10.207 -10.203 -10.200 -10.189 -10.184 -10.174 -10.164
 -1.120  -1.113  -1.028  -1.027  -0.885  -0.808  -0.793  -0.746
 -0.733  -0.725  -0.675  -0.649  -0.618  -0.578  -0.566  -0.536
 -0.516  -0.513  -0.494  -0.483  -0.481  -0.476  -0.467  -0.442
 -0.436  -0.427  -0.424  -0.413  -0.410  -0.402  -0.399  -0.385
 -0.379  -0.371  -0.361  -0.358  -0.354  -0.322  -0.309  -0.293
 -0.285  -0.269  -0.252
 -- Virtual --
 -0.062  -0.025  -0.011  -0.006  -0.001   0.003   0.012   0.016
  0.024   0.031   0.034   0.038   0.039   0.041   0.046   0.051
  0.053   0.060   0.069   0.072   0.077   0.082   0.087   0.093
  0.096   0.100   0.107   0.112   0.112   0.115   0.118   0.119
  0.123   0.127   0.130   0.135   0.138   0.142   0.145   0.146
  0.147   0.150   0.151   0.158   0.160   0.161   0.167   0.172
  0.174   0.176   0.180   0.186   0.188   0.190   0.196   0.197
  0.201   0.210   0.211   0.217   0.219   0.224   0.232   0.234
  0.245   0.249   0.252   0.254   0.259   0.261   0.269   0.272
  0.280   0.289   0.291   0.294   0.299   0.304   0.307   0.309
  0.315   0.321   0.324   0.327   0.332   0.334   0.349   0.352
  0.356   0.358   0.362   0.369   0.374   0.380   0.389   0.401
  0.402   0.408   0.413   0.421   0.427   0.434   0.444   0.449
  0.465   0.472   0.482   0.497   0.503   0.509   0.522   0.532
  0.544   0.547   0.558   0.567   0.570   0.574   0.584   0.592
  0.596   0.600   0.612   0.617   0.625   0.631   0.639   0.647
  0.654   0.659   0.661   0.665   0.669   0.673   0.678   0.687
  0.696   0.707   0.710   0.718   0.726   0.729   0.736   0.748
  0.756   0.760   0.764   0.771   0.784   0.805   0.810   0.824
  0.842   0.861   0.886   0.906   0.922   0.925   0.936   0.949
  0.965   0.968   0.984   0.991   1.004   1.015   1.030   1.040
  1.054   1.060   1.069   1.077   1.090   1.098   1.111   1.112
  1.123   1.143   1.162   1.179   1.195   1.229   1.245   1.275
  1.285   1.292   1.305   1.336   1.349   1.361   1.370   1.380
  1.382   1.396   1.407   1.425   1.438   1.442   1.457   1.461
  1.468   1.476   1.485   1.499   1.512   1.525   1.537   1.542
  1.557   1.560   1.566   1.572   1.574   1.583   1.590   1.609
  1.624   1.634   1.642   1.656   1.662   1.674   1.689   1.701
  1.712   1.716   1.726   1.732   1.738   1.768   1.781   1.783
  1.797   1.805   1.823   1.842   1.848   1.861   1.882   1.888
  1.906   1.917   1.931   1.944   1.962   1.977   1.987   2.015
  2.018   2.033   2.058   2.075   2.095   2.107   2.112   2.123
  2.136   2.155   2.177   2.201   2.207   2.234   2.250   2.257
  2.300   2.317   2.328   2.333   2.400   2.424   2.447   2.462
  2.480   2.485   2.495   2.501   2.512   2.526   2.541   2.543
  2.559   2.560   2.567   2.579   2.584   2.602   2.618   2.622
  2.656   2.669   2.689   2.699   2.702   2.718   2.733   2.757
  2.761   2.788   2.810   2.816   2.834   2.851   2.864   2.875
  2.880   2.902   2.903   2.920   2.936   2.951   2.975   2.991
  3.024   3.047   3.067   3.087   3.097   3.099   3.120   3.131
  3.160   3.203   3.221   3.225   3.247   3.261   3.270   3.284
  3.322   3.377   3.391   3.417   3.434   3.527   3.588   3.602
  3.633   3.669   3.728   3.773   3.779   3.790   3.794   3.815
  3.821   3.857   3.873   3.899   3.952   4.055   4.078   4.108
  4.123   4.176   4.237   4.307   4.389   4.392   4.859   4.997
  5.061   5.081   5.199   5.248   5.281   5.408   5.458   5.627
  5.678   5.872   5.917  23.545  23.856  23.859  23.908  23.928
 23.930  23.945  23.955  23.998  24.050  24.084  24.169  49.906
 49.940  50.011  50.064
 --------------------------------------------------------------
 
          Ground-State Mulliken Net Atomic Charges

     Atom                 Charge (a.u.)
  ----------------------------------------
      1 C                     0.175805
      2 C                     0.143594
      3 C                    -0.070152
      4 C                    -0.980361
      5 O                    -0.125842
      6 O                    -0.240430
      7 O                     0.115646
      8 O                    -0.101998
      9 C                    -0.171348
     10 C                    -0.198905
     11 C                     0.472211
     12 C                    -0.383054
     13 C                    -0.571156
     14 C                     0.619383
     15 H                     0.171392
     16 H                     0.184790
     17 H                     0.134757
     18 H                     0.161422
     19 H                     0.154629
     20 H                     0.150180
     21 H                     0.193439
     22 H                     0.129608
     23 C                    -0.470669
     24 C                    -0.509580
     25 H                     0.179508
     26 H                     0.139205
     27 H                     0.177021
     28 H                     0.170497
     29 H                     0.185066
     30 H                     0.165343
  ----------------------------------------
  Sum of atomic charges =     0.000000

 -----------------------------------------------------------------
                    Cartesian Multipole Moments
 -----------------------------------------------------------------
    Charge (ESU x 10^10)
                 0.0000
    Dipole Moment (Debye)
         X      -0.8016      Y       1.1453      Z       1.5643
       Tot       2.0980
    Quadrupole Moments (Debye-Ang)
        XX     -81.2068     XY       7.9049     YY     -90.2882
        XZ      -4.8820     YZ       2.7879     ZZ     -99.8908
    Octopole Moments (Debye-Ang^2)
       XXX     -37.6233    XXY      -5.1864    XYY     -27.5057
       YYY      17.6286    XXZ      19.0028    XYZ      -6.4187
       YYZ      -3.2452    XZZ      -7.9175    YZZ     -13.9098
       ZZZ       8.6194
    Hexadecapole Moments (Debye-Ang^3)
      XXXX   -2136.3608   XXXY      27.4771   XXYY    -683.0953
      XYYY     111.9367   YYYY   -2032.5432   XXXZ     -39.6892
      XXYZ      18.8057   XYYZ      -0.5336   YYYZ       3.5869
      XXZZ    -455.0859   XYZZ       1.2067   YYZZ    -383.3955
      XZZZ     -21.5860   YZZZ       1.3442   ZZZZ    -271.8059
 -----------------------------------------------------------------
 Calculating analytic gradient of the SCF energy
 Gradient of SCF Energy
            1           2           3           4           5           6
    1  -0.0002494  -0.0001243  -0.0002771  -0.0002016   0.0001530   0.0002042
    2   0.0000672   0.0004618  -0.0000722  -0.0020989  -0.0002926   0.0000265
    3   0.0000287  -0.0008816   0.0018177  -0.0006550  -0.0001856  -0.0009538
            7           8           9          10          11          12
    1   0.0000493   0.0001161   0.0000864   0.0000323   0.0001915   0.0000089
    2   0.0004037   0.0014188   0.0000612   0.0000506   0.0002727  -0.0003053
    3   0.0000381   0.0003860  -0.0000299   0.0000780  -0.0000792  -0.0000670
           13          14          15          16          17          18
    1  -0.0002294   0.0007524  -0.0000010  -0.0000270  -0.0000203   0.0000411
    2   0.0000887   0.0003492   0.0000121  -0.0000078  -0.0000366   0.0000047
    3   0.0001896   0.0002821  -0.0000068   0.0000200   0.0000665   0.0000026
           19          20          21          22          23          24
    1  -0.0000014  -0.0000037   0.0000104   0.0000018   0.0000352  -0.0001404
    2   0.0000207   0.0000152  -0.0000183  -0.0000015   0.0000419  -0.0001147
    3   0.0000143  -0.0000104   0.0000258   0.0000306   0.0002076   0.0000752
           25          26          27          28          29          30
    1  -0.0000091   0.0000026   0.0000140   0.0000657  -0.0004848   0.0000042
    2   0.0000260  -0.0000202   0.0000026   0.0002328  -0.0004004  -0.0001881
    3  -0.0000147  -0.0000117  -0.0000588  -0.0000821   0.0000488  -0.0002751
 Max gradient component =       2.099E-03
 RMS gradient           =       4.021E-04
 Gradient time:  CPU 269.53 s  wall 20.96 s
 Geometry Optimization Parameters
   NAtoms,    NIC,     NZ,  NCons,   NDum,   NFix, NCnnct, MaxDiis
       30     194       0       0       0       0       0       0

 Cartesian Hessian Update
 Hessian Updated using Powell/Murtagh-Sargent Update
  Mixing factors:     0.821090 Powell
                      0.178910 Murtagh-Sargent


** GEOMETRY OPTIMIZATION IN DELOCALIZED INTERNAL COORDINATES **
   Searching for a Transition State

   Optimization Cycle:   4

                       Coordinates (Angstroms)
     ATOM                X               Y               Z
      1  C         0.8961150270   -0.4383848604   -0.0224009243
      2  C         0.1505414771    0.7557174812   -0.1290885069
      3  C         0.2308073772   -1.7788127040   -0.0586401815
      4  C        -1.3480782110    0.7774800579   -0.2897435981
      5  O        -1.1029899636   -1.6942979279   -0.2446998389
      6  O         0.7924807060   -2.8462690013    0.0450982110
      7  O        -1.9606852565    0.7620727478    0.9101728278
      8  O        -1.9239356897    0.9232252292   -1.3386573005
      9  C        -3.3986602575    0.7968650916    0.8782232079
     10  C        -1.8251084766   -2.9338812576   -0.3143055650
     11  C         2.3045242520   -0.3775842484    0.1117429177
     12  C         2.8987838521    0.8854330258    0.1467158393
     13  C         2.1540152929    2.0521696215    0.0470500707
     14  C         0.7681259214    2.0135129043   -0.0972324444
     15  H        -3.7513986563    1.6997586874    0.3775401468
     16  H        -1.4339809814   -3.5590533838   -1.1177115083
     17  H         2.6572083404    3.0128041131    0.0795059674
     18  H        -3.7842032910   -0.0782207610    0.3520186129
     19  H        -3.7128938271    0.7863355457    1.9195587251
     20  H        -2.8567065362   -2.6538611870   -0.5163489047
     21  H        -1.7487371698   -3.4728594188    0.6314938074
     22  H         3.9758116951    0.9513408882    0.2528360164
     23  C        -0.0346143961    3.2902540008   -0.1889704849
     24  C         3.2025580411   -1.5874202628    0.2148337820
     25  H         2.9577715340   -2.2020208297    1.0827361902
     26  H         4.2426708629   -1.2652218452    0.2938448113
     27  H         3.1017876454   -2.2395336035   -0.6543904392
     28  H        -0.5294375277    3.5109479780    0.7627121929
     29  H        -0.8101853031    3.2223809615   -0.9543676317
     30  H         0.6121355089    4.1342241575   -0.4331954186
   Point Group: c1    Number of degrees of freedom:    84


   Energy is   -766.872282301

 Hessian Updated using Powell/Murtagh-Sargent Update
  Mixing factors:     0.985617 Powell
                      0.014383 Murtagh-Sargent

 76 Hessian modes will be used to form the next step
  Hessian Eigenvalues:
    -0.002463    0.007826    0.008761    0.009753    0.010520    0.010847
     0.013616    0.015623    0.016213    0.016514    0.017722    0.018136
     0.021434    0.022326    0.022527    0.022636    0.023325    0.023371
     0.023650    0.071798    0.072262    0.072445    0.072966    0.101269
     0.101333    0.105903    0.106238    0.159677    0.159999    0.160000
     0.160000    0.160000    0.160008    0.224667    0.244851    0.249014
     0.249377    0.249977    0.249983    0.249985    0.249991    0.249998
     0.249999    0.250000    0.250000    0.250686    0.312930    0.313267
     0.316487    0.327232    0.343413    0.344542    0.346127    0.346406
     0.346584    0.346660    0.346687    0.346878    0.347044    0.347474
     0.350621    0.350713    0.354101    0.354862    0.397575    0.401013
     0.407938    0.415180    0.441499    0.457637    0.458914    0.471437
     0.551292    0.554949    0.996499    1.022343

 Transition State Search - Taking P-RFO Step
 Searching for Lamda that Maximizes Along the Lowest mode
 Value Taken    Lamda =   0.00000190
 Searching for Lamda that Minimizes Along All other modes
 Value Taken    Lamda =  -0.00033802
 Step Taken.  Stepsize is  0.143343

                             Maximum     Tolerance    Cnvgd?
         Gradient           0.001985      0.000001      NO
         Displacement       0.054604      0.000001      NO
         Energy change      0.000186      0.000000      NO


 New Cartesian Coordinates Obtained by Inverse Iteration

 Displacement from previous Coordinates is:  0.302873
 Adding empirical dispersion correction 
 ----------------------------------------------------------------
 Doing -D3(op) with
 s6 =   1.00000
 s8 =   0.78311
 a1 =   0.30000
 a2 =   4.25000
 n  =  10.00000
 -D3 energy without 3body term =     -0.0331669695 hartrees
 ----------------------------------------------------------------
             Standard Nuclear Orientation (Angstroms)
    I     Atom           X                Y                Z
 ----------------------------------------------------------------
    1      C       0.8967872139    -0.4316503024    -0.0282833135
    2      C       0.1539086788     0.7641916191    -0.1322987155
    3      C       0.2247784509    -1.7684278699    -0.0666388310
    4      C      -1.3452124232     0.7857394248    -0.2888113903
    5      O      -1.1066994882    -1.6754998786    -0.2657169689
    6      O       0.7727321131    -2.8372321057     0.0854216022
    7      O      -1.9568981321     0.7676556729     0.9115791945
    8      O      -1.9257178483     0.8711433235    -1.3419049066
[...]
    -0.00102737     -0.00002700     -0.00034162
    -0.00005199     -0.00009387      0.00000948
    -0.00038537     -0.00061150     -0.00003553
     0.00206853     -0.00074384      0.00019965
    -0.00014717      0.00031527     -0.00002294
     0.00012683     -0.00007449      0.00001481
     0.00471814     -0.01290027      0.00745354
    -0.00047994      0.00079458      0.00117519
     0.00017852      0.00127451      0.00001133
     0.00527482      0.01337468      0.00745135
     0.00313939     -0.00016848     -0.01064692
     0.00124544     -0.00038493      0.00018450
    -0.00018406      0.00086673     -0.00145496
    -0.02200727     -0.00005144     -0.00228042
     0.00027064     -0.00013183      0.00006204
    -0.03809505      0.03278899     -0.00590372
    -0.13424167     -0.30265260      0.42730084
     0.63343991      0.21114029      0.05331652
    -0.05477527     -0.28893771     -0.41098667
    -0.00255362      0.00021839      0.00272117
    -0.00185750      0.00024558     -0.00362282
     0.00103396      0.00137996      0.00017232
vibration 73
     0.00003522     -0.00001675      0.00000808
    -0.00006689      0.00002774      0.00012201
    -0.00036386     -0.00003054     -0.00003301
     0.00090322     -0.00001793     -0.00293755
     0.00030172      0.00034243      0.00006148
     0.00003718     -0.00003950     -0.00000027
    -0.00282031      0.00000378      0.00096296
     0.00046381     -0.00005428      0.00088741
    -0.04143446     -0.00101912     -0.01457053
     0.00188536      0.00529837     -0.00037090
    -0.00001587      0.00000964     -0.00001162
    -0.00008227      0.00005199     -0.00000786
     0.00001232     -0.00005670     -0.00000517
    -0.00001807      0.00001973     -0.00001414
     0.18801762     -0.51061306      0.29510528
     0.02616534     -0.04077762     -0.06054465
     0.00014758      0.00033274      0.00001085
     0.21073015      0.52937865      0.29490094
     0.12287071     -0.00645665     -0.41246447
    -0.05994423      0.01687907     -0.00847551
     0.00962277     -0.04332923      0.07312797
     0.00071520      0.00002986      0.00008377
    -0.00006176     -0.00045216      0.00056171
     0.00093413     -0.00079807      0.00014183
     0.00325871      0.00737998     -0.01040540
    -0.01552184     -0.00515113     -0.00130271
     0.00131557      0.00706685      0.01002790
     0.00057429      0.00029320     -0.00063991
    -0.00368363      0.00028754     -0.00674686
     0.00345933      0.00476034      0.00079471
vibration 74
     0.00030566      0.00008692      0.00002294
    -0.00001080     -0.00004206     -0.00001077
    -0.00283028      0.00069700     -0.00024159
    -0.00003031     -0.00022518      0.00035939
     0.00215684      0.00182912      0.00026669
     0.00043611     -0.00079909      0.00003707
     0.00029888      0.00005053     -0.00007858
    -0.00009895      0.00006151     -0.00013568
     0.00557982     -0.00025004      0.00195562
     0.01159679      0.04221823     -0.00253404
    -0.00008381      0.00007769     -0.00001318
     0.00011311     -0.00000495      0.00000515
     0.00001375      0.00007399     -0.00000576
     0.00003904     -0.00001023     -0.00000057
    -0.02593585      0.06979455     -0.04050391
     0.20054635     -0.31616700     -0.46823693
    -0.00027521     -0.00059340     -0.00002696
    -0.02704969     -0.06798190     -0.03797312
    -0.01624523      0.00089893      0.05447258
    -0.42281578      0.11915279     -0.06025109
     0.07316167     -0.33070032      0.55678529
    -0.00086258      0.00004427     -0.00008762
     0.00025498     -0.00004090     -0.00006305
    -0.00000666      0.00035705     -0.00003147
    -0.00106929     -0.00257355      0.00363586
     0.00172636      0.00060622      0.00013635
    -0.00039803     -0.00240612     -0.00341558
    -0.00241022      0.00009714      0.00250541
    -0.00093093      0.00008630     -0.00183265
     0.00033128      0.00036971      0.00000798
vibration 75
     0.00000520     -0.00001799     -0.00004746
    -0.00003497     -0.00002548      0.00024152
     0.00003105      0.00000670     -0.00001295
     0.00000696     -0.00014166     -0.00049161
    -0.00001182      0.00000020      0.00000108
    -0.00000254      0.00000171      0.00000076
    -0.00002782      0.00018404      0.00010291
    -0.00001333     -0.00016440      0.00015164
    -0.00037902     -0.00023929     -0.00001904
    -0.00001449      0.00000362      0.00004833
    -0.00000128     -0.00001989     -0.00000265
     0.00004201      0.00005602     -0.00000576
    -0.00013307     -0.00048035     -0.00027030
     0.00016252      0.00015008     -0.00047807
     0.00066690     -0.00224656      0.00116438
     0.00014437     -0.00023174     -0.00033182
     0.00193289      0.00483990      0.00006231
     0.00210411      0.00491620      0.00278145
     0.00110034     -0.00010181     -0.00369940
     0.00013025     -0.00005170      0.00000935
    -0.00004183      0.00018181     -0.00031205
    -0.00105422     -0.00005809     -0.00000679
     0.01770303      0.00759361     -0.08967912
    -0.00010904     -0.00003918      0.00032240
     0.00064807      0.00164908     -0.00219829
     0.00086695      0.00029839      0.00012393
    -0.00021561     -0.00144638     -0.00185983
    -0.49012680      0.02844989      0.48712477
     0.34290523     -0.02906696      0.61798735
    -0.06391534     -0.08898993     -0.02860564
vibration 76
    -0.00004156      0.00005571      0.00038739
    -0.00002854      0.00005964     -0.00007059
    -0.00021501      0.00018614     -0.00000838
     0.00000407      0.00001382     -0.00002685
     0.00009933     -0.00002538     -0.00010566
     0.00011388     -0.00008179      0.00034941
    -0.00000239     -0.00000100      0.00000404
     0.00000054     -0.00000862      0.00000853
    -0.00000897     -0.00015622      0.00000392
    -0.00004710     -0.00009432      0.00098271
     0.00022786      0.00038073     -0.00059454
    -0.00131081     -0.00011869     -0.00042638
     0.00008424      0.00013828     -0.00000796
    -0.00001938     -0.00001060     -0.00001550
    -0.00035092      0.00091053     -0.00057218
     0.00215297     -0.00351164     -0.00493061
    -0.00128509     -0.00243057      0.00012509
     0.00039532      0.00099580      0.00058064
     0.00001669     -0.00002826     -0.00008095
    -0.00087497      0.00021773      0.00003866
    -0.00092969      0.00422089     -0.00673732
     0.01413828      0.00026080      0.00110101
    -0.00002636     -0.00002214     -0.00036308
     0.02913209      0.01693839     -0.08494956
    -0.18773664     -0.46523423      0.62394927
    -0.22193472     -0.07220814     -0.03397539
     0.06240837      0.33159682      0.42524759
    -0.00158405      0.00007189      0.00151847
     0.00156205     -0.00012911      0.00284354
     0.00024882      0.00029149     -0.00004287
vibration 77
    -0.00016039      0.00022814     -0.00004921
    -0.00008166      0.00002362     -0.00000155
    -0.00015367      0.00005179     -0.00001156
    -0.00003666      0.00025826     -0.00018368
     0.00006080     -0.00003032      0.00000809
     0.00006695     -0.00004097     -0.00000357
    -0.00000478     -0.00003952      0.00001480
     0.00006993     -0.00011833      0.00011861
     0.00014183     -0.00136324      0.00025618
     0.00011299     -0.00001331     -0.00003439
     0.00012984      0.00016019      0.00002801
    -0.00085893     -0.00025775     -0.00006445
     0.00220451      0.00445720      0.00016943
    -0.00141782      0.00022635     -0.00020997
    -0.00384160      0.01046223     -0.00637645
    -0.00009011      0.00013655      0.00022076
    -0.02187119     -0.04906664     -0.00179094
     0.00253196      0.00627591      0.00386945
     0.00022778     -0.00034788     -0.00079340
    -0.00127915      0.00040617     -0.00018393
     0.00005257     -0.00023994      0.00036002
     0.01291916      0.00058909      0.00121202
    -0.07105084     -0.05516552     -0.01933890
     0.00535983      0.00521322      0.00291593
    -0.00376429     -0.01090164      0.01786789
    -0.05556239     -0.01795754     -0.00431384
    -0.00453828     -0.03421199     -0.04835446
     0.16771751     -0.02097068     -0.19494523
     0.16913104     -0.02863915      0.34958528
     0.51890203      0.69796927      0.07820305
vibration 78
    -0.00005107     -0.00016949      0.00012024
     0.00010862     -0.00019177     -0.00000634
     0.00063706     -0.00054580      0.00005937
    -0.00002250     -0.00002550     -0.00002406
    -0.00027678      0.00007873     -0.00005763
    -0.00055449      0.00020974      0.00006223
    -0.00000147      0.00000555      0.00000093
     0.00001338     -0.00000029      0.00000858
     0.00003204      0.00064884      0.00005802
    -0.00021511      0.00033496      0.00041413
    -0.00047990     -0.00115062     -0.00022964
     0.00433284      0.00044419      0.00031886
    -0.00009657     -0.00012261     -0.00001394
    -0.00007954      0.00006354     -0.00001817
     0.00135530     -0.00350958      0.00219870
     0.00208504     -0.00340332     -0.00469866
     0.00246407      0.00406727      0.00022574
    -0.00173722     -0.00436186     -0.00254135
     0.00014588      0.00011519     -0.00046786
     0.00121241     -0.00029678      0.00025336
    -0.00006639      0.00017990     -0.00038663
    -0.04557652     -0.00093421     -0.00449352
    -0.00617691     -0.00489022     -0.00171455
    -0.06272921     -0.05957220     -0.03232231
     0.04419402      0.12752333     -0.20806130
     0.65443694      0.21082435      0.05121412
     0.05071092      0.38366597      0.54309435
     0.01411090     -0.00184157     -0.01650243
     0.01460100     -0.00250697      0.03022233
     0.04591441      0.06186020      0.00690993
vibration 79
     0.00005667      0.00005925     -0.00000790
     0.00001703     -0.00026679      0.00000026
    -0.00019437     -0.00007144     -0.00000379
     0.00000739      0.00015067      0.00002298
     0.00008406      0.00005536      0.00000180
     0.00004378      0.00000646      0.00000591
    -0.00001569      0.00031632      0.00000778
    -0.00005355      0.00015854      0.00003110
    -0.00046291     -0.09476333     -0.00059296
     0.00172205     -0.00109670     -0.00227608
    -0.00003127     -0.00002219      0.00000105
     0.00004799      0.00002501      0.00000240
    -0.00003290     -0.00007484      0.00000424
    -0.00002258     -0.00000944      0.00001003
    -0.21831670      0.57280559     -0.35411900
    -0.00885872      0.01447304      0.02100738
     0.00040655      0.00088256      0.00002119
     0.23191385      0.56640735      0.33610079
    -0.00762133     -0.01860262      0.02427511
    -0.01285914      0.00388565     -0.00202605
     0.00157200     -0.00518546      0.00802709
    -0.00059472      0.00001385     -0.00006038
     0.00096493      0.00075924      0.00045408
    -0.00055683     -0.00051873     -0.00015021
     0.00059605      0.00172935     -0.00264936
     0.00577664      0.00187273      0.00047537
     0.00029941      0.00275894      0.00397849
    -0.00094824      0.00047496      0.00180907
    -0.00305062      0.00053480     -0.00640549
    -0.00728622     -0.00955098     -0.00097924
vibration 80
     0.00000919     -0.00000260     -0.00021995
    -0.00000461      0.00000330      0.00002191
     0.00006272     -0.00001236      0.00017484
    -0.00000696      0.00000893     -0.00022375
    -0.00005040     -0.00005688      0.00038440
     0.00001813      0.00003806      0.00016322
    -0.00003018     -0.00003268      0.00006772
     0.00003718      0.00000834      0.00009400
     0.00001269      0.00239114      0.00038364
     0.00801628     -0.00064114     -0.09459163
    -0.00000102     -0.00000157      0.00000261
     0.00000192      0.00000431      0.00000584
    -0.00000374     -0.00000161     -0.00000512
    -0.00000142      0.00000170      0.00000685
     0.00497760     -0.01327219      0.00824606
    -0.24894805      0.38616679      0.54294973
     0.00002055      0.00004475     -0.00000273
    -0.00637687     -0.01544819     -0.00933527
     0.00111263      0.00055501     -0.00362058
     0.06417028     -0.01754255     -0.00944323
     0.08921802     -0.36069862      0.58457761
    -0.00004042      0.00000016     -0.00001696
    -0.00001452     -0.00001600     -0.00006688
     0.00002152     -0.00008650     -0.00103896
    -0.00177588     -0.00425616      0.00556769
     0.00066288      0.00020792     -0.00007128
     0.00090509      0.00513837      0.00681871
    -0.00029184      0.00001706      0.00026132
     0.00026746     -0.00004337      0.00049820
     0.00014941      0.00019856      0.00001202
vibration 81
     0.00006180     -0.00006789      0.00001245
    -0.00002044     -0.00002751     -0.00005401
     0.00008856      0.00108889     -0.00003845
     0.00045214     -0.00003258      0.00034208
     0.00021777     -0.00017229      0.00003732
     0.00006137     -0.00044862      0.00000250
     0.00007866      0.00001903     -0.00022751
    -0.00016501      0.00001963     -0.00017627
    -0.00369277     -0.00199272      0.05147984
    -0.06900720      0.03838452     -0.00554737
    -0.00000837      0.00001185      0.00000269
    -0.00004226      0.00000199     -0.00000653
    -0.00007033     -0.00015558     -0.00000329
    -0.00001169     -0.00000350     -0.00000007
    -0.05477975      0.15145256     -0.07878456
     0.08877197     -0.14842614     -0.23345328
     0.00083913      0.00161464      0.00005475
    -0.04651444     -0.12077066     -0.05740712
     0.14140317     -0.00710741     -0.47372856
     0.71253718     -0.20163400      0.10044862
     0.01436594     -0.10880639      0.19870687
     0.00047767      0.00002027      0.00003852
     0.00002837      0.00004876      0.00007669
     0.00019794      0.00015842      0.00004528
    -0.00009159     -0.00046175      0.00083414
    -0.00220741     -0.00079033     -0.00018619
     0.00000869     -0.00075978     -0.00119377
     0.00040815     -0.00003181     -0.00028042
    -0.00022973      0.00005798     -0.00058082
    -0.00047268     -0.00060423     -0.00008630
vibration 82
     0.00004358     -0.00004457      0.00000339
     0.00000402     -0.00000798      0.00006812
    -0.00000043      0.00074815     -0.00003722
    -0.00100922      0.00007624     -0.00051120
     0.00015700     -0.00012434      0.00005134
     0.00006324     -0.00032452      0.00000694
    -0.00001120     -0.00002762      0.00029339
     0.00036428     -0.00003746      0.00032155
     0.00511248     -0.00025425     -0.07901294
    -0.04501752      0.02508917     -0.00405237
    -0.00000199      0.00001865     -0.00000563
    -0.00006034     -0.00002758     -0.00000567
     0.00011009      0.00023063      0.00000091
     0.00001056      0.00000828     -0.00000379
     0.07832551     -0.21606750      0.11127982
     0.05696422     -0.09539321     -0.15014772
    -0.00135696     -0.00266785     -0.00009573
     0.08193747      0.20905141      0.10252809
    -0.21555178      0.01023993      0.72258223
     0.46557188     -0.13156301      0.06544439
     0.00989499     -0.07287819      0.13253863
     0.00092231      0.00006255      0.00007663
    -0.00016153     -0.00011028     -0.00010073
     0.00008991      0.00008463     -0.00000009
    -0.00008461     -0.00039853      0.00062662
    -0.00092054     -0.00035053     -0.00008114
     0.00002361     -0.00034976     -0.00056404
     0.00015319     -0.00009843     -0.00044023
     0.00059829     -0.00020635      0.00146633
     0.00117693      0.00144913      0.00018907
vibration 83
    -0.00033996      0.00033034     -0.00002639
    -0.00000572      0.00057384     -0.00001864
    -0.00002540     -0.00020310      0.00000013
     0.00019769     -0.00006845      0.00001120
     0.00003400      0.00002291      0.00000217
    -0.00002164      0.00005569     -0.00000306
    -0.00006023      0.00001000      0.00002197
    -0.00006463      0.00002048     -0.00003058
     0.00005236      0.00001716     -0.00027096
    -0.00003443      0.00001176     -0.00000199
     0.00037009     -0.00133039      0.00003868
     0.04774848      0.00526581      0.00439164
    -0.03360120     -0.06119718     -0.00239081
     0.00210495     -0.00115580      0.00023568
     0.00017644     -0.00067144      0.00031672
     0.00007896     -0.00007270     -0.00013179
     0.37712915      0.72048451      0.02618213
     0.00012035      0.00042039      0.00016069
    -0.00089250      0.00003622      0.00278768
     0.00041647     -0.00006663      0.00005742
     0.00003187     -0.00003487      0.00009224
    -0.56799178     -0.03747470     -0.05235045
    -0.00305654     -0.00301966     -0.00050757
     0.00290235      0.00161737      0.00031066
    -0.00220710     -0.00488307      0.00742825
    -0.03450217     -0.00954048     -0.00299796
    -0.00097212     -0.00573209     -0.00849716
     0.00545384      0.00021470     -0.00632907
     0.00364856      0.00002807      0.00819595
     0.02706434      0.03994527      0.00414172
vibration 84
     0.00059202     -0.00010473      0.00005096
     0.00022007      0.00040323      0.00001281
     0.00002649      0.00027862     -0.00000013
     0.00014708     -0.00005264      0.00002293
    -0.00008034     -0.00006632     -0.00000878
     0.00003301     -0.00011405      0.00000236
    -0.00005600      0.00000860      0.00002223
    -0.00004966      0.00001630     -0.00003869
     0.00006269      0.00000673     -0.00013414
     0.00007642      0.00006545      0.00000355
     0.00030283      0.00291084      0.00000049
    -0.07180363     -0.00283309     -0.00666685
    -0.02176166     -0.04657294     -0.00144504
     0.00242447     -0.00053880      0.00024483
    -0.00002011     -0.00008045      0.00001921
     0.00014068     -0.00031374     -0.00034844
     0.26049558      0.50789072      0.01794576
    -0.00003881     -0.00001372     -0.00003920
    -0.00052169      0.00002337      0.00158193
    -0.00097636      0.00020420     -0.00013812
     0.00003548     -0.00033444      0.00041002
     0.80995787      0.04671872      0.07483568
    -0.00147569     -0.00159792     -0.00026328
    -0.00308175     -0.00148471     -0.00031683
     0.00225820      0.00277803     -0.00525383
     0.03659603      0.00982274      0.00321576
     0.00138243      0.00349697      0.00627518
     0.00111950      0.00079137     -0.00187084
     0.00082332      0.00064769      0.00273920
     0.01363517      0.02045903      0.00208756
[INT]
    1.646742
    0.275561
    1.931788
    0.095562
    5.643623
    0.177442
    0.692451
    0.893996
    0.570214
    0.675992
    0.216930
    0.311930
    3.262217
    0.182433
    8.253578
    0.572171
    1.943578
    9.287851
   11.289026
    5.117145
    0.046390
    1.405136
    8.696632
    7.347393
    5.542593
    0.043987
   10.956857
   17.200208
    0.546024
   18.257328
   13.419616
   11.648644
    5.593117
    7.247195
    0.187076
   15.928931
    6.169177
    7.758747
    2.901534
   57.555546
    5.189507
   79.706007
    0.785601
    0.675999
   77.022201
   22.384476
   19.263425
  269.558574
  158.662249
  101.950400
  260.112724
   50.546036
    2.034911
   22.176624
   22.517541
   13.913130
   34.637625
    6.477724
    7.829562
   10.266999
   11.984732
    8.880298
    7.788291
    3.444732
    6.793274
   16.554278
   25.402646
    1.284888
  317.291523
  237.518682
   21.622787
   26.590936
   29.234016
   42.604486
    8.144038
    8.871021
   13.396765
   20.701275
   19.701355
   16.161110
   15.489005
   10.826463
    8.259047
   20.529735

======= END OF MOLDEN-FORMATTED INPUT FILE =======


        *************************************************************
        *                                                           *
        *  Thank you very much for using Q-Chem.  Have a nice day.  *
        *                                                           *
        *************************************************************


