r0157.ten.osc.edu 10.25.154
Q-Chem Developer Version! Running on 10.25.154.*
                  Welcome to Q-Chem
     A Quantum Leap Into The Future Of Chemistry


 Q-Chem 5.0, Q-Chem, Inc., Pleasanton, CA (2017)

 Yihan Shao,  Zhengting Gan,  E. Epifanovsky,  A. T. B. Gilbert,  M. Wormit,  
 J. Kussmann,  A. W. Lange,  A. Behn,  Jia Deng,  Xintian Feng,  D. Ghosh,  
 M. Goldey,  P. R. Horn,  L. D. Jacobson,  I. Kaliman,  T. Kus,  A. Landau,  
 Jie Liu,  E. I. Proynov,  R. M. Richard,  R. P. Steele,  E. J. Sundstrom,  
 H. L. Woodcock III,  P. M. Zimmerman,  D. Zuev,  B. Albrecht,  E. Alguire,  
 S. A. Baeppler,  Z. Benda,  Y. A. Bernard,  E. J. Berquist,  K. B. Bravaya,  
 D. Casanova,  Chun-Min Chang,  Yunqing Chen,  A. Chien,  K. D. Closser,  
 M. P. Coons,  S. Dasgupta,  M. Diedenhofen,  Hainam Do,  R. G. Edgar,  
 Po-Tung Fang,  S. Fatehi,  Qingguo Feng,  Qinghui Ge,  A. Ghysels,  
 J. Gomes,  J. Gonthier,  A. Gunina,  M. W. D. Hanson-Heine,  
 P. H. P. Harbach,  A. W. Hauser,  J. E. Herr,  E. G. Hohenstein,  
 Z. C. Holden,  Kerwin Hui,  T.-C. Jagau,  Hyunjun Ji,  B. Kaduk,  
 K. Khistyaev,  Jaehoon Kim,  P. Klunzinger,  K. Koh,  D. Kosenkov,  
 T. Kowalczyk,  C. M. Krauter,  A. Kunitsa,  Ka Un Lao,  A. Laurent,  
 K. V. Lawler,  Joonho Lee,  D. Lefrancois,  S. Lehtola,  D. S. Levine,  
 Yi-Pei Li,  You-Sheng Lin,  Fenglai Liu,  E. Livshits,  A. Luenser,  
 P. Manohar,  E. Mansoor,  S. F. Manzer,  Shan-Ping Mao,  Yuezhi Mao,  
 N. Mardirossian,  A. V. Marenich,  L. A. Martinez-Martinez,  S. A. Maurer,  
 N. J. Mayhall,  S. C. McKenzie,  J.-M. Mewes,  A. F. Morrison,  K. Nanda,  
 T. S. Nguyen-Beck,  R. Olivares-Amaya,  J. A. Parkhill,  T. M. Perrine,  
 F. Plasser,  S. Prager,  A. Prociuk,  D. R. Rehn,  F. Rob,  M. Schneider,  
 N. Sergueev,  S. M. Sharada,  S. Sharma,  D. W. Small,  T. Stauch,  
 T. Stein,  Yu-Chuan Su,  A. J. W. Thom,  T. Tsuchimochi,  L. Vogt,  
 O. Vydrov,  M. A. Watson,  J. Wenzel,  M. de Wergifosse,  T. A. Wesolowski,  
 A. White,  J. Witte,  A. Yamada,  Jun Yang,  K. Yao,  S. Yeganeh,  
 S. R. Yost,  Zhi-Qiang You,  A. Zech,  Igor Ying Zhang,  Xing Zhang,  
 Yan Zhao,  Ying Zhu,  B. R. Brooks,  G. K. L. Chan,  C. J. Cramer,  
 M. S. Gordon,  W. J. Hehre,  A. Klamt,  M. W. Schmidt,  C. D. Sherrill,  
 D. G. Truhlar,  A. Aspuru-Guzik,  R. Baer,  A. T. Bell,  N. A. Besley,  
 Jeng-Da Chai,  A. Dreuw,  B. D. Dunietz,  T. R. Furlani,  Chao-Ping Hsu,  
 Yousung Jung,  Jing Kong,  D. S. Lambrecht,  WanZhen Liang,  C. Ochsenfeld,  
 V. A. Rassolov,  L. V. Slipchenko,  J. E. Subotnik,  T. Van Voorhis,  
 J. M. Herbert,  A. I. Krylov,  P. M. W. Gill,  M. Head-Gordon

 Contributors to earlier versions of Q-Chem not listed above: 
 R. D. Adamson,  B. Austin,  J. Baker,  G. J. O. Beran,  K. Brandhorst,  
 S. T. Brown,  E. F. C. Byrd,  A. K. Chakraborty,  C.-L. Cheng,  
 Siu Hung Chien,  D. M. Chipman,  D. L. Crittenden,  H. Dachsel,  
 R. A. DiStasio Jr.,  R. J. Doerksen,  A. D. Dutoi,  L. Fusti-Molnar,  
 W. A. Goddard III,  A. Golubeva-Zadorozhnaya,  S. R. Gwaltney,  G. Hawkins,  
 A. Heyden,  S. Hirata,  G. Kedziora,  F. J. Keil,  C. Kelley,  Jihan Kim,  
 R. A. King,  R. Z. Khaliullin,  P. P. Korambath,  W. Kurlancheek,  
 A. M. Lee,  M. S. Lee,  S. V. Levchenko,  Ching Yeh Lin,  D. Liotard,  
 R. C. Lochan,  I. Lotan,  P. E. Maslen,  N. Nair,  D. P. O'Neill,  
 D. Neuhauser,  E. Neuscamman,  C. M. Oana,  R. Olson,  B. Peters,  
 R. Peverati,  P. A. Pieniazek,  Y. M. Rhee,  J. Ritchie,  M. A. Rohrdanz,  
 E. Rosta,  N. J. Russ,  H. F. Schaefer III,  N. E. Schultz,  N. Shenvi,  
 A. C. Simmonett,  A. Sodt,  D. Stuck,  K. S. Thanthiriwatte,  V. Vanovschi,  
 Tao Wang,  A. Warshel,  C. F. Williams,  Q. Wu,  X. Xu,  W. Zhang

 Please cite Q-Chem as follows:
 Y. Shao et al., Mol. Phys. 113, 184-215 (2015)
 DOI: 10.1080/00268976.2014.952696

 Q-Chem 5.0.1 for Intel X86 EM64T Linux

 Parts of Q-Chem use Armadillo 5.200.1 (Boston Tea Smuggler).
 http://arma.sourceforge.net/

 Q-Chem begins on Tue Oct 24 09:20:37 2017  

Host: r0157.ten.osc.edu
0

     Scratch files written to /tmp/pbstmp.1324379/00//
Processing $rem in /users/PAS0291/osu6415/.qchemrc.
molden_format             true

Checking the input file for inconsistencies... 	...done.

--------------------------------------------------------------
User input:
--------------------------------------------------------------
$molecule
0 1
C -1.04319878 -0.73431226 -0.62300699
C 0.34724632 -0.01755193 -0.68209636
C -2.11393603 -0.04812289 0.19806959
C 0.32536007 1.44027688 -0.24203795
O -3.32750840 -0.54824476 -0.13289469
O -1.95062305 0.77773591 1.05950081
O -0.49115404 2.12346660 -1.08087186
O 0.95161429 1.96378677 0.64088968
C -0.71934264 3.50330889 -0.74647020
C -4.44420639 -0.05668367 0.63190489
C -0.64505850 -2.06772828 0.08641938
C 0.17128616 -2.94153464 -0.88853798
C 1.54451051 -2.21182258 -0.85629187
C 1.24840221 -1.02853272 0.10189103
O 0.32688533 -1.62637603 1.03581610
H -1.45190273 -0.92382375 -1.61463696
H 0.66935457 0.02215005 -1.72433565
H 0.21686981 4.06314743 -0.76327162
H -4.54221538 1.02333044 0.51260636
H 0.24968313 -3.96121084 -0.50853728
H -0.27801337 -2.98470443 -1.88263103
H 2.31884328 -2.84269058 -0.41744747
H 1.89395318 -1.87858408 -1.83337895
H -1.40169958 3.87744279 -1.50708066
H -1.16929692 3.57452760 0.24491126
H -4.31430173 -0.29073605 1.68964140
H -5.31698995 -0.56674113 0.23013945
H -1.46492145 -2.56726980 0.59843461
C 2.45592591 -0.49325576 0.84005398
O 3.30393404 0.10379528 -0.12913610
H 2.96792349 -1.32714166 1.34253070
H 2.14326909 0.23612016 1.58990361
C 4.29080208 0.94159732 0.44542646
H 4.88494287 1.34593180 -0.37484860
H 4.95108525 0.37859898 1.12034117
H 3.82791444 1.76678971 1.00038911
$end

$rem
sym_ignore      true
jobtype         opt
method          b3lyp
basis           6-311++G(d,p)
dft_d           d3_op
mem_total       62000
MEM_STATIC      4000
ao2mo_disk      350000
max_scf_cycles  200
geom_opt_max_cycles 1000
geom_opt_tol_displacement 1
GEOM_OPT_TOL_GRADIENT       1
GEOM_OPT_TOL_ENERGY         1
$end

--------------------------------------------------------------
 Adding empirical dispersion correction 
 ----------------------------------------------------------------
 Doing -D3(op) with
 s6 =   1.00000
 s8 =   0.78311
 a1 =   0.30000
 a2 =   4.25000
 n  =  10.00000
 -D3 energy without 3body term =     -0.0402133710 hartrees
 ----------------------------------------------------------------
             Standard Nuclear Orientation (Angstroms)
    I     Atom           X                Y                Z
 ----------------------------------------------------------------
    1      C      -1.0431987800    -0.7343122600    -0.6230069900
    2      C       0.3472463200    -0.0175519300    -0.6820963600
    3      C      -2.1139360300    -0.0481228900     0.1980695900
    4      C       0.3253600700     1.4402768800    -0.2420379500
    5      O      -3.3275084000    -0.5482447600    -0.1328946900
    6      O      -1.9506230500     0.7777359100     1.0595008100
    7      O      -0.4911540400     2.1234666000    -1.0808718600
    8      O       0.9516142900     1.9637867700     0.6408896800
    9      C      -0.7193426400     3.5033088900    -0.7464702000
   10      C      -4.4442063900    -0.0566836700     0.6319048900
   11      C      -0.6450585000    -2.0677282800     0.0864193800
   12      C       0.1712861600    -2.9415346400    -0.8885379800
   13      C       1.5445105100    -2.2118225800    -0.8562918700
   14      C       1.2484022100    -1.0285327200     0.1018910300
   15      O       0.3268853300    -1.6263760300     1.0358161000
   16      H      -1.4519027300    -0.9238237500    -1.6146369600
   17      H       0.6693545700     0.0221500500    -1.7243356500
   18      H       0.2168698100     4.0631474300    -0.7632716200
   19      H      -4.5422153800     1.0233304400     0.5126063600
   20      H       0.2496831300    -3.9612108400    -0.5085372800
   21      H      -0.2780133700    -2.9847044300    -1.8826310300
   22      H       2.3188432800    -2.8426905800    -0.4174474700
   23      H       1.8939531800    -1.8785840800    -1.8333789500
   24      H      -1.4016995800     3.8774427900    -1.5070806600
   25      H      -1.1692969200     3.5745276000     0.2449112600
   26      H      -4.3143017300    -0.2907360500     1.6896414000
   27      H      -5.3169899500    -0.5667411300     0.2301394500
   28      H      -1.4649214500    -2.5672698000     0.5984346100
   29      C       2.4559259100    -0.4932557600     0.8400539800
   30      O       3.3039340400     0.1037952800    -0.1291361000
   31      H       2.9679234900    -1.3271416600     1.3425307000
   32      H       2.1432690900     0.2361201600     1.5899036100
   33      C       4.2908020800     0.9415973200     0.4454264600
   34      H       4.8849428700     1.3459318000    -0.3748486000
   35      H       4.9510852500     0.3785989800     1.1203411700
   36      H       3.8279144400     1.7667897100     1.0003891100
 ----------------------------------------------------------------
 Nuclear Repulsion Energy =  1517.5097325945 hartrees
 There are       69 alpha and       69 beta electrons
 Requested basis set is 6-311++G(d,p)
 There are 198 shells and 522 basis functions

 Total QAlloc Memory Limit  62000 MB
 Mega-Array Size      3911 MB
 MEM_STATIC part      4000 MB
 A cutoff of  1.0D-11 yielded  15398 shell pairs
 There are    108763 function pairs (    115819 Cartesian)
 
 -------------------------------------------------------
 OpenMP Integral Computing Module                       
 Release: version 1.0, May 2013, Q-Chem Inc. Pittsburgh 
 -------------------------------------------------------
 Integral Job Info:
 Integral job number is                      11
 Integral operator is                         1
 short-range coefficients                     0
 long-range coefficients              100000000
 Omega coefficients                           0
 if combine SR and LR in K                    0
 Integral screening is                        0
 Integral computing path is                   2
 max size of driver memory is            800000
 size of driver memory is                593474
 size of scratch memory is              2361544
 max col of scratch BK array               1296
 max len of scratch array in speh3          155
 max len of scratch index in speh4           18
 max int batch size is                      520
 min int batch size is                       52
 fixed nKL is                                52
 max L of basis functions is                  2
 order of int derivative is                   0
 number of shells is                        198
 number of basis is                         540
 number of cartesian basis is               540
 number of contracted shell pairs         15398
 number of primitive shell pairs          33929
 maxK2 (contraction) of shell pair           36
 max number of K2 of shell pair               1
 max number of CS2 of shell pair           2947
 max number of PS2 of shell pair           4962
 mem total for path MDJ                  194056
 -------------------------------------------------------
 Smallest overlap matrix eigenvalue = 5.08E-07

 Q-Chem warning in module /fs/scratch/osu6415/qchem-kaunlao-vdw/stvman/mkSTV.C, line 281:

 Overlap eigenvalue is smaller than square root of threshold

 Linear dependence detected in AO basis
 Number of orthogonalized atomic orbitals = 521
 Maximum deviation from orthogonality = 1.594E-10

 Scale SEOQF with 1.000000e-02/1.000000e-01/1.000000e-01

 Standard Electronic Orientation quadrupole field applied
 Nucleus-field energy     =     0.0000000223 hartrees
 Guess from superposition of atomic densities
 Warning:  Energy on first SCF cycle will be non-variational
 A restricted hybrid HF-DFT SCF calculation will be
 performed using Pulay DIIS extrapolation
 Exchange:     0.2000 Hartree-Fock + 0.0800 Slater + 0.7200 B88
 Correlation:  0.1900 VWN1RPA + 0.8100 LYP
 Using SG-1 standard quadrature grid
 Dispersion:   Grimme D3
 SCF converges when DIIS error is below 1.0E-08
 using 20 threads for integral computing
 -------------------------------------------------------
 OpenMP Integral computing Module                
 Release: version 1.0, May 2013, Q-Chem Inc. Pittsburgh 
 -------------------------------------------------------
 -------------------------------------------------------
 OpenMP BLAS3 based DFT computing Module                
 Release: version 1.0, May 2013, Q-Chem Inc. Pittsburgh 
 -------------------------------------------------------
 ---------------------------------------
  Cycle       Energy         DIIS Error
 ---------------------------------------
    1    -923.3625410702      2.77E-02
    2    -919.4203565052      3.42E-03
    3    -918.9010158967      5.74E-03
    4    -919.7008282497      1.30E-03
    5    -919.7434487026      3.80E-04
    6    -919.7465283284      1.32E-04
    7    -919.7469443611      3.45E-05
    8    -919.7469739819      9.38E-06
    9    -919.7469763982      2.65E-06
   10    -919.7469765228      1.57E-06
   11    -919.7469765814      3.12E-07
   12    -919.7469765835      9.92E-08
   13    -919.7469765834      2.32E-08
   14    -919.7469765854      1.06E-08
   15    -919.7469765762      4.49E-09 Convergence criterion met
 ---------------------------------------
 SCF time:  CPU 1280.99 s  wall 83.80 s
 SCF   energy in the final basis set = -919.74697658
 Total energy in the final basis set = -919.74697658
 
 --------------------------------------------------------------
 
                    Orbital Energies (a.u.)
 --------------------------------------------------------------
 
 Alpha MOs
 -- Occupied --
-19.177 -19.164 -19.132 -19.124 -19.120 -19.109 -10.308 -10.302
-10.239 -10.237 -10.232 -10.221 -10.210 -10.206 -10.206 -10.201
-10.180 -10.175  -1.118  -1.106  -1.066  -1.034  -1.031  -1.020
 -0.831  -0.793  -0.780  -0.749  -0.723  -0.704  -0.655  -0.639
 -0.604  -0.591  -0.570  -0.552  -0.534  -0.515  -0.504  -0.494
 -0.491  -0.485  -0.481  -0.477  -0.473  -0.462  -0.457  -0.442
 -0.426  -0.420  -0.418  -0.409  -0.395  -0.391  -0.374  -0.370
 -0.364  -0.360  -0.359  -0.352  -0.341  -0.330  -0.321  -0.320
 -0.306  -0.291  -0.276  -0.274  -0.258
 -- Virtual --
 -0.018  -0.010  -0.002   0.001   0.006   0.010   0.014   0.018
  0.024   0.026   0.032   0.035   0.039   0.044   0.047   0.049
  0.053   0.059   0.063   0.067   0.072   0.080   0.081   0.088
  0.090   0.095   0.099   0.101   0.106   0.109   0.114   0.116
  0.119   0.120   0.121   0.124   0.127   0.129   0.130   0.138
  0.139   0.141   0.143   0.147   0.150   0.151   0.153   0.156
  0.158   0.161   0.163   0.166   0.169   0.173   0.177   0.179
  0.180   0.182   0.186   0.188   0.192   0.198   0.199   0.204
  0.205   0.212   0.214   0.221   0.223   0.226   0.234   0.238
  0.240   0.241   0.248   0.254   0.258   0.260   0.264   0.267
  0.270   0.276   0.278   0.285   0.286   0.292   0.296   0.298
  0.307   0.307   0.311   0.317   0.321   0.324   0.328   0.335
  0.339   0.344   0.347   0.350   0.357   0.360   0.365   0.369
  0.370   0.374   0.376   0.382   0.385   0.391   0.393   0.398
  0.399   0.405   0.412   0.416   0.419   0.428   0.437   0.440
  0.454   0.457   0.469   0.476   0.483   0.487   0.495   0.500
  0.510   0.520   0.530   0.537   0.545   0.550   0.565   0.573
  0.577   0.585   0.595   0.602   0.607   0.616   0.621   0.624
  0.628   0.641   0.645   0.650   0.658   0.661   0.664   0.673
  0.677   0.681   0.686   0.700   0.701   0.707   0.711   0.718
  0.723   0.733   0.736   0.739   0.745   0.746   0.754   0.762
  0.768   0.775   0.777   0.787   0.795   0.804   0.809   0.819
  0.836   0.839   0.866   0.882   0.903   0.935   0.966   0.972
  0.986   1.003   1.007   1.033   1.040   1.046   1.050   1.067
  1.077   1.083   1.094   1.107   1.120   1.129   1.154   1.168
  1.192   1.201   1.210   1.211   1.227   1.231   1.244   1.250
  1.266   1.274   1.281   1.294   1.307   1.321   1.330   1.337
  1.352   1.371   1.378   1.392   1.397   1.407   1.413   1.424
  1.433   1.453   1.463   1.466   1.472   1.478   1.500   1.515
  1.519   1.534   1.543   1.548   1.555   1.561   1.566   1.581
  1.587   1.591   1.597   1.609   1.617   1.623   1.628   1.633
  1.644   1.660   1.669   1.678   1.684   1.693   1.703   1.706
  1.710   1.714   1.727   1.734   1.740   1.745   1.765   1.774
  1.782   1.791   1.798   1.811   1.814   1.832   1.844   1.850
  1.861   1.867   1.883   1.893   1.916   1.921   1.937   1.944
  1.947   1.972   1.983   2.004   2.010   2.029   2.042   2.053
  2.072   2.082   2.100   2.108   2.112   2.127   2.136   2.147
  2.152   2.166   2.182   2.187   2.214   2.225   2.241   2.255
  2.275   2.284   2.309   2.334   2.336   2.386   2.405   2.428
  2.438   2.449   2.462   2.471   2.488   2.502   2.508   2.508
  2.516   2.530   2.532   2.535   2.543   2.550   2.551   2.578
  2.598   2.602   2.628   2.646   2.649   2.676   2.684   2.692
  2.701   2.729   2.738   2.757   2.805   2.811   2.820   2.847
  2.855   2.867   2.881   2.885   2.886   2.904   2.911   2.913
  2.940   2.969   2.975   2.991   2.998   3.022   3.028   3.034
  3.046   3.059   3.061   3.066   3.086   3.105   3.117   3.126
  3.139   3.162   3.170   3.187   3.219   3.221   3.229   3.240
  3.261   3.268   3.287   3.310   3.335   3.383   3.385   3.392
  3.430   3.468   3.591   3.598   3.613   3.666   3.690   3.731
  3.772   3.791   3.796   3.820   3.836   3.842   3.865   3.943
  3.973   4.017   4.052   4.074   4.093   4.110   4.115   4.125
  4.148   4.152   4.178   4.191   4.263   4.298   4.437   4.497
  5.040   5.080   5.135   5.142   5.167   5.221   5.309   5.320
  5.385   5.427   5.431   5.512   5.629   5.639   5.650   5.717
  5.890   5.912  23.799  23.841  23.852  23.881  23.898  23.907
 23.926  23.940  23.947  23.965  23.985  24.039  49.904  49.924
 49.975  49.995  50.035  50.056
 --------------------------------------------------------------
 
          Ground-State Mulliken Net Atomic Charges

     Atom                 Charge (a.u.)
  ----------------------------------------
      1 C                     0.235171
      2 C                     0.225125
      3 C                    -0.886901
      4 C                    -0.559973
      5 O                    -0.024542
      6 O                    -0.185671
      7 O                     0.001816
      8 O                    -0.177311
      9 C                    -0.188438
     10 C                    -0.237844
     11 C                     0.312126
     12 C                    -0.492077
     13 C                    -0.304338
     14 C                    -0.829614
     15 O                    -0.027795
     16 H                     0.289246
     17 H                     0.288403
     18 H                     0.165717
     19 H                     0.172322
     20 H                     0.182912
     21 H                     0.122008
     22 H                     0.174879
     23 H                     0.182098
     24 H                     0.147923
     25 H                     0.192394
     26 H                     0.184161
     27 H                     0.151266
     28 H                     0.277610
     29 C                     0.110280
     30 O                    -0.069945
     31 H                     0.153970
     32 H                     0.231780
     33 C                    -0.234489
     34 H                     0.140661
     35 H                     0.128310
     36 H                     0.148757
  ----------------------------------------
  Sum of atomic charges =     0.000000

 -----------------------------------------------------------------
                    Cartesian Multipole Moments
 -----------------------------------------------------------------
    Charge (ESU x 10^10)
                -0.0000
    Dipole Moment (Debye)
         X      -1.8901      Y      -0.9222      Z      -2.1839
       Tot       3.0319
    Quadrupole Moments (Debye-Ang)
        XX     -93.1447     XY      -0.2729     YY    -100.0031
        XZ       0.5404     YZ      -2.0268     ZZ    -110.8085
    Octopole Moments (Debye-Ang^2)
       XXX     -55.7719    XXY      14.6866    XYY     -13.2106
       YYY      33.7342    XXZ      28.0077    XYZ       3.7392
       YYZ     -11.5475    XZZ      -3.4020    YZZ       2.5071
       ZZZ       0.7093
    Hexadecapole Moments (Debye-Ang^3)
      XXXX   -2937.3861   XXXY      63.7863   XXYY    -871.3835
      XYYY     -17.0825   YYYY   -1837.9187   XXXZ     -18.0604
      XXYZ     -27.2984   XYYZ      -1.3929   YYYZ     -46.9121
      XXZZ    -635.6800   XYZZ      14.2046   YYZZ    -423.8649
      XZZZ      -3.1383   YZZZ      -0.3686   ZZZZ    -488.6459
 -----------------------------------------------------------------
 Calculating analytic gradient of the SCF energy
 Gradient of SCF Energy
            1           2           3           4           5           6
    1  -0.0001071   0.0002027   0.0000395  -0.0003101  -0.0000004  -0.0000180
    2   0.0002643  -0.0000750  -0.0002731  -0.0000729   0.0000055   0.0001420
    3  -0.0004066   0.0002656   0.0002346   0.0001750  -0.0000111  -0.0001476
            7           8           9          10          11          12
    1  -0.0000130   0.0001842  -0.0000060   0.0000124   0.0000464  -0.0000058
    2  -0.0000160   0.0000608   0.0000002  -0.0000148  -0.0000044  -0.0000096
    3  -0.0000186  -0.0001990  -0.0000233  -0.0000118   0.0000741   0.0000095
           13          14          15          16          17          18
    1   0.0000444   0.0000037  -0.0000236   0.0000045  -0.0000023  -0.0000189
    2   0.0000067   0.0000146  -0.0000015  -0.0000418  -0.0000406  -0.0000087
    3   0.0000431   0.0000268   0.0000031   0.0000105   0.0000017  -0.0000384
           19          20          21          22          23          24
    1  -0.0000103   0.0000212   0.0000209   0.0000126   0.0000107  -0.0000119
    2  -0.0000196  -0.0000020  -0.0000271   0.0000063  -0.0000100  -0.0000190
    3  -0.0000312   0.0000373   0.0000253   0.0000250   0.0000201  -0.0000445
           25          26          27          28          29          30
    1  -0.0000239  -0.0000067  -0.0000018  -0.0000020  -0.0000205   0.0000024
    2  -0.0000068  -0.0000080  -0.0000244  -0.0000068   0.0000322  -0.0000015
    3  -0.0000431  -0.0000167  -0.0000148  -0.0000088  -0.0000097   0.0000057
           31          32          33          34          35          36
    1   0.0000074  -0.0000002  -0.0000039  -0.0000076  -0.0000053  -0.0000137
    2   0.0000235   0.0000109   0.0000415   0.0000212   0.0000309   0.0000231
    3   0.0000188   0.0000224   0.0000191   0.0000037   0.0000083  -0.0000043
 Max gradient component =       4.066E-04
 RMS gradient           =       8.541E-05
 Gradient time:  CPU 423.31 s  wall 34.41 s
 Geometry Optimization Parameters
   NAtoms,    NIC,     NZ,  NCons,   NDum,   NFix, NCnnct, MaxDiis
       36     276       0       0       0       0       0       0


** GEOMETRY OPTIMIZATION IN DELOCALIZED INTERNAL COORDINATES **
   Searching for a Minimum

   Optimization Cycle:   1

                       Coordinates (Angstroms)
     ATOM                X               Y               Z
      1  C        -1.0431987800   -0.7343122600   -0.6230069900
      2  C         0.3472463200   -0.0175519300   -0.6820963600
      3  C        -2.1139360300   -0.0481228900    0.1980695900
      4  C         0.3253600700    1.4402768800   -0.2420379500
      5  O        -3.3275084000   -0.5482447600   -0.1328946900
      6  O        -1.9506230500    0.7777359100    1.0595008100
      7  O        -0.4911540400    2.1234666000   -1.0808718600
      8  O         0.9516142900    1.9637867700    0.6408896800
      9  C        -0.7193426400    3.5033088900   -0.7464702000
     10  C        -4.4442063900   -0.0566836700    0.6319048900
     11  C        -0.6450585000   -2.0677282800    0.0864193800
     12  C         0.1712861600   -2.9415346400   -0.8885379800
     13  C         1.5445105100   -2.2118225800   -0.8562918700
     14  C         1.2484022100   -1.0285327200    0.1018910300
     15  O         0.3268853300   -1.6263760300    1.0358161000
     16  H        -1.4519027300   -0.9238237500   -1.6146369600
     17  H         0.6693545700    0.0221500500   -1.7243356500
     18  H         0.2168698100    4.0631474300   -0.7632716200
     19  H        -4.5422153800    1.0233304400    0.5126063600
     20  H         0.2496831300   -3.9612108400   -0.5085372800
     21  H        -0.2780133700   -2.9847044300   -1.8826310300
     22  H         2.3188432800   -2.8426905800   -0.4174474700
     23  H         1.8939531800   -1.8785840800   -1.8333789500
     24  H        -1.4016995800    3.8774427900   -1.5070806600
     25  H        -1.1692969200    3.5745276000    0.2449112600
     26  H        -4.3143017300   -0.2907360500    1.6896414000
     27  H        -5.3169899500   -0.5667411300    0.2301394500
     28  H        -1.4649214500   -2.5672698000    0.5984346100
     29  C         2.4559259100   -0.4932557600    0.8400539800
     30  O         3.3039340400    0.1037952800   -0.1291361000
     31  H         2.9679234900   -1.3271416600    1.3425307000
     32  H         2.1432690900    0.2361201600    1.5899036100
     33  C         4.2908020800    0.9415973200    0.4454264600
     34  H         4.8849428700    1.3459318000   -0.3748486000
     35  H         4.9510852500    0.3785989800    1.1203411700
     36  H         3.8279144400    1.7667897100    1.0003891100
   Point Group: c1    Number of degrees of freedom:   102


   Energy is   -919.746976576


 Attempting to Generate Delocalized Internal Coordinates

102 Hessian modes will be used to form the next step
  Hessian Eigenvalues:
     0.002992    0.006142    0.007119    0.007357    0.007444    0.009755
     0.010356    0.010618    0.010802    0.013069    0.013487    0.021546
     0.021774    0.022529    0.025810    0.033663    0.035833    0.037972
     0.040105    0.044601    0.048547    0.049779    0.052906    0.055025
     0.055937    0.056579    0.057495    0.062040    0.063814    0.064723
     0.065796    0.074183    0.082906    0.092876    0.097573    0.100716
     0.101173    0.101552    0.101985    0.105209    0.105922    0.106185
     0.109249    0.119645    0.123781    0.135347    0.154613    0.160000
     0.160000    0.160000    0.160000    0.160000    0.160000    0.160000
     0.160000    0.160000    0.173096    0.220084    0.233275    0.239026
     0.249384    0.249683    0.249796    0.250000    0.250000    0.250000
     0.250000    0.250000    0.256513    0.265237    0.278981    0.300836
     0.309746    0.310394    0.334214    0.336826    0.337601    0.340272
     0.346059    0.346093    0.346283    0.346878    0.346927    0.346971
     0.346980    0.347019    0.347032    0.347470    0.348255    0.349091
     0.350249    0.350377    0.350672    0.351087    0.395871    0.398603
     0.425391    0.430205    0.538901    0.542483    1.026027    1.036155

 Minimum Search - Taking Simple RFO Step
 Searching for Lamda that Minimizes Along All modes
 Value Taken    Lamda =  -0.00001455
 Step Taken.  Stepsize is  0.043453

                             Maximum     Tolerance    Cnvgd?
         Gradient           0.000163      0.000001      NO
         Displacement       0.016014      0.000001      NO
         Energy change     *********      0.000000      NO


 New Cartesian Coordinates Obtained by Inverse Iteration

 Displacement from previous Coordinates is:  0.061701
 Adding empirical dispersion correction 
 ----------------------------------------------------------------
 Doing -D3(op) with
 s6 =   1.00000
 s8 =   0.78311
 a1 =   0.30000
 a2 =   4.25000
 n  =  10.00000
 -D3 energy without 3body term =     -0.0402112642 hartrees
 ----------------------------------------------------------------
             Standard Nuclear Orientation (Angstroms)
    I     Atom           X                Y                Z
 ----------------------------------------------------------------
    1      C      -1.0428401505    -0.7344630937    -0.6222961476
    2      C       0.3472568873    -0.0170775554    -0.6825713403
    3      C      -2.1139942981    -0.0474060642     0.1975628335
    4      C       0.3248726550     1.4404534748    -0.2414499705
    5      O      -3.3277073369    -0.5451256467    -0.1365257647
    6      O      -1.9503504234     0.7711974322     1.0658285985
    7      O      -0.4851111861     2.1258584841    -1.0847933357
    8      O       0.9372861019     1.9600173122     0.6534437130
    9      C      -0.7189849124     3.5037719439    -0.7464135456
   10      C      -4.4445804402    -0.0561945925     0.6297255052
   11      C      -0.6446949159    -2.0672305918     0.0880825959
   12      C       0.1711792705    -2.9418736583    -0.8864665923
   13      C       1.5442329758    -2.2118513196    -0.8557966278
   14      C       1.2486664444    -1.0277839603     0.1016202124
   15      O       0.3277214742    -1.6249052017     1.0365545971
   16      H      -1.4512851384    -0.9243297767    -1.6139685082
   17      H       0.6697947886     0.0230423848    -1.7246677629
   18      H       0.2162179414     4.0655233347    -0.7525877034
   19      H      -4.5415343028     1.0244614916     0.5154493757
   20      H       0.2499555145    -3.9611881848    -0.5055726789
   21      H      -0.2787256039    -2.9859809874    -1.8802453613
   22      H       2.3189597927    -2.8421933604    -0.4168770478
   23      H       1.8930213184    -1.8793871050    -1.8333803435
   24      H      -1.3954329613     3.8798863583    -1.5113084158
   25      H      -1.1776793464     3.5698014515     0.2413199873
   26      H      -4.3156810275    -0.2953048955     1.6864559590
   27      H      -5.3174957565    -0.5635872336     0.2248961594
   28      H      -1.4642480905    -2.5661903461     0.6011633183
   29      C       2.4565974786    -0.4921083749     0.8388531961
   30      O       3.3048124487     0.1030823624    -0.1312961979
   31      H       2.9681873940    -1.3255614784     1.3424501545
   32      H       2.1443928216     0.2385527473     1.5876370977
   33      C       4.2925865582     0.9406799946     0.4419762679
   34      H       4.8871070845     1.3432018779    -0.3789136863
   35      H       4.9523208111     0.3779853701     1.1176850052
   36      H       3.8306132194     1.7671661764     0.9957838237
 ----------------------------------------------------------------
 Nuclear Repulsion Energy =  1517.4348371659 hartrees
 There are       69 alpha and       69 beta electrons
 Applying Cartesian multipole field
    Component          Value
    ---------          -----
     (2,0,0)        1.00000E-12
     (0,2,0)        2.00000E-11
     (0,0,2)       -3.00000E-11
 Nucleus-field energy     =     0.0000000223 hartrees
 Requested basis set is 6-311++G(d,p)
 There are 198 shells and 522 basis functions
 A cutoff of  1.0D-11 yielded  15399 shell pairs
 There are    108783 function pairs (    115843 Cartesian)
 Smallest overlap matrix eigenvalue = 5.08E-07

 Q-Chem warning in module /fs/scratch/osu6415/qchem-kaunlao-vdw/stvman/mkSTV.C, line 281:

 Overlap eigenvalue is smaller than square root of threshold

 Linear dependence detected in AO basis
 Number of orthogonalized atomic orbitals = 521
 Maximum deviation from orthogonality = 2.077E-10
 Guess MOs from SCF MO coefficient file
 Reading MOs from coefficient file
 Reading MOs from coefficient file
 A restricted hybrid HF-DFT SCF calculation will be
 performed using Pulay DIIS extrapolation
 Exchange:     0.2000 Hartree-Fock + 0.0800 Slater + 0.7200 B88
 Correlation:  0.1900 VWN1RPA + 0.8100 LYP
 Using SG-1 standard quadrature grid
 Dispersion:   Grimme D3
 SCF converges when DIIS error is below 1.0E-08
 Geometry optimization detected.  Setting ReadMinima to 0
 Setting SaveMinima to 0
 using 20 threads for integral computing
 -------------------------------------------------------
 OpenMP Integral computing Module                
 Release: version 1.0, May 2013, Q-Chem Inc. Pittsburgh 
 -------------------------------------------------------
 -------------------------------------------------------
 OpenMP BLAS3 based DFT computing Module                
 Release: version 1.0, May 2013, Q-Chem Inc. Pittsburgh 
 -------------------------------------------------------
 ---------------------------------------
  Cycle       Energy         DIIS Error
 ---------------------------------------
    1    -919.7457300739      1.42E-04
    2    -919.7469693704      9.36E-06
    3    -919.7469722637      9.08E-06
    4    -919.7469740575      4.30E-06
    5    -919.7469744348      1.69E-06
    6    -919.7469744999      6.91E-07
    7    -919.7469745112      2.49E-07
    8    -919.7469745112      4.00E-08
    9    -919.7469745136      1.72E-08
   10    -919.7469745170      6.71E-09 Convergence criterion met
 ---------------------------------------
 SCF time:  CPU 844.89 s  wall 53.41 s
 SCF   energy in the final basis set = -919.74697452
 Total energy in the final basis set = -919.74697452
 
 --------------------------------------------------------------
 
                    Orbital Energies (a.u.)
 --------------------------------------------------------------
 
 Alpha MOs
 -- Occupied --
-19.177 -19.164 -19.132 -19.124 -19.120 -19.109 -10.308 -10.302
-10.239 -10.237 -10.232 -10.221 -10.210 -10.206 -10.206 -10.201
-10.180 -10.175  -1.118  -1.106  -1.066  -1.034  -1.031  -1.021
 -0.831  -0.793  -0.780  -0.749  -0.723  -0.704  -0.655  -0.639
 -0.604  -0.591  -0.570  -0.552  -0.534  -0.515  -0.504  -0.494
 -0.491  -0.485  -0.481  -0.477  -0.473  -0.462  -0.457  -0.442
 -0.426  -0.420  -0.418  -0.409  -0.395  -0.391  -0.373  -0.370
 -0.364  -0.360  -0.359  -0.352  -0.341  -0.330  -0.322  -0.319
 -0.306  -0.291  -0.276  -0.274  -0.258
 -- Virtual --
 -0.018  -0.010  -0.002   0.001   0.006   0.010   0.014   0.018
  0.024   0.026   0.032   0.035   0.039   0.044   0.047   0.049
  0.053   0.059   0.063   0.067   0.072   0.080   0.081   0.088
  0.090   0.095   0.099   0.101   0.106   0.109   0.114   0.116
  0.118   0.120   0.121   0.124   0.127   0.129   0.130   0.138
  0.139   0.141   0.143   0.147   0.150   0.151   0.153   0.156
  0.158   0.161   0.163   0.166   0.169   0.173   0.177   0.179
  0.180   0.182   0.186   0.188   0.192   0.198   0.199   0.204
  0.205   0.212   0.214   0.221   0.223   0.226   0.234   0.238
  0.240   0.241   0.248   0.254   0.258   0.260   0.264   0.267
  0.270   0.276   0.278   0.285   0.286   0.292   0.296   0.298
  0.306   0.307   0.312   0.317   0.321   0.324   0.328   0.335
  0.339   0.344   0.347   0.350   0.357   0.360   0.365   0.369
  0.370   0.374   0.375   0.382   0.385   0.391   0.393   0.398
  0.399   0.405   0.413   0.416   0.419   0.428   0.437   0.440
  0.454   0.457   0.469   0.476   0.483   0.487   0.495   0.500
  0.510   0.520   0.529   0.537   0.545   0.550   0.565   0.573
  0.577   0.585   0.595   0.602   0.607   0.615   0.621   0.624
  0.628   0.641   0.645   0.650   0.659   0.661   0.664   0.673
  0.677   0.681   0.686   0.700   0.702   0.707   0.711   0.718
  0.723   0.733   0.736   0.739   0.745   0.746   0.754   0.762
  0.768   0.775   0.778   0.787   0.795   0.805   0.808   0.819
  0.836   0.840   0.866   0.882   0.903   0.935   0.967   0.972
  0.986   1.003   1.007   1.034   1.040   1.046   1.050   1.066
  1.077   1.082   1.094   1.107   1.119   1.129   1.154   1.168
  1.191   1.200   1.210   1.212   1.226   1.230   1.245   1.250
  1.266   1.274   1.281   1.294   1.307   1.321   1.330   1.336
  1.353   1.370   1.378   1.392   1.397   1.408   1.413   1.424
  1.433   1.453   1.463   1.466   1.471   1.478   1.500   1.514
  1.518   1.534   1.543   1.548   1.556   1.561   1.566   1.581
  1.587   1.591   1.596   1.609   1.616   1.623   1.627   1.633
  1.644   1.661   1.669   1.678   1.684   1.694   1.703   1.706
  1.710   1.715   1.727   1.734   1.740   1.745   1.764   1.774
  1.782   1.792   1.798   1.811   1.814   1.832   1.844   1.850
  1.861   1.867   1.883   1.893   1.915   1.921   1.935   1.943
  1.947   1.972   1.983   2.004   2.010   2.030   2.042   2.053
  2.072   2.082   2.100   2.108   2.112   2.127   2.136   2.147
  2.152   2.166   2.181   2.187   2.214   2.225   2.241   2.255
  2.275   2.284   2.308   2.333   2.336   2.386   2.405   2.429
  2.438   2.449   2.462   2.471   2.488   2.502   2.507   2.508
  2.516   2.530   2.532   2.535   2.543   2.550   2.551   2.577
  2.597   2.602   2.628   2.646   2.649   2.676   2.683   2.692
  2.701   2.729   2.738   2.757   2.805   2.811   2.820   2.848
  2.855   2.867   2.881   2.885   2.886   2.903   2.911   2.912
  2.939   2.968   2.975   2.991   2.998   3.022   3.028   3.034
  3.046   3.059   3.061   3.066   3.086   3.105   3.116   3.126
  3.139   3.162   3.171   3.186   3.219   3.221   3.229   3.240
  3.261   3.268   3.286   3.310   3.335   3.383   3.385   3.393
  3.430   3.468   3.591   3.598   3.613   3.666   3.690   3.730
  3.772   3.791   3.796   3.820   3.836   3.842   3.865   3.943
  3.974   4.018   4.052   4.074   4.093   4.110   4.115   4.125
  4.147   4.152   4.177   4.191   4.263   4.298   4.437   4.496
  5.040   5.082   5.134   5.141   5.167   5.221   5.309   5.320
  5.385   5.427   5.431   5.512   5.629   5.639   5.650   5.717
  5.891   5.911  23.799  23.841  23.852  23.880  23.898  23.907
 23.926  23.940  23.947  23.965  23.985  24.039  49.905  49.925
 49.974  49.995  50.035  50.056
 --------------------------------------------------------------
 
          Ground-State Mulliken Net Atomic Charges

     Atom                 Charge (a.u.)
  ----------------------------------------
      1 C                     0.235984
      2 C                     0.226027
      3 C                    -0.890285
      4 C                    -0.560532
      5 O                    -0.023621
      6 O                    -0.185420
      7 O                     0.002989
      8 O                    -0.175417
      9 C                    -0.187558
     10 C                    -0.237826
     11 C                     0.314687
     12 C                    -0.492688
     13 C                    -0.304326
     14 C                    -0.837588
     15 O                    -0.027315
     16 H                     0.289352
     17 H                     0.288410
     18 H                     0.165707
     19 H                     0.172293
     20 H                     0.182886
     21 H                     0.121993
     22 H                     0.174855
     23 H                     0.182047
     24 H                     0.148111
     25 H                     0.192195
     26 H                     0.184081
     27 H                     0.151295
     28 H                     0.277544
     29 C                     0.111028
     30 O                    -0.069146
     31 H                     0.153990
     32 H                     0.232494
     33 C                    -0.233766
     34 H                     0.140631
     35 H                     0.128493
     36 H                     0.148398
  ----------------------------------------
  Sum of atomic charges =    -0.000000

 -----------------------------------------------------------------
                    Cartesian Multipole Moments
 -----------------------------------------------------------------
    Charge (ESU x 10^10)
                -0.0000
    Dipole Moment (Debye)
         X      -1.8697      Y      -0.9099      Z      -2.2004
       Tot       3.0275
    Quadrupole Moments (Debye-Ang)
        XX     -93.0677     XY      -0.2362     YY     -99.9303
        XZ       0.5579     YZ      -2.0599     ZZ    -110.9140
    Octopole Moments (Debye-Ang^2)
       XXX     -55.4352    XXY      14.8482    XYY     -13.1580
       YYY      33.8719    XXZ      27.9848    XYZ       3.7539
       YYZ     -11.5772    XZZ      -3.3424    YZZ       2.3798
       ZZZ       0.5627
    Hexadecapole Moments (Debye-Ang^3)
      XXXX   -2936.6071   XXXY      64.3784   XXYY    -870.8910
      XYYY     -16.4550   YYYY   -1836.4951   XXXZ     -17.6556
      XXYZ     -27.2528   XYYZ      -1.2818   YYYZ     -47.0050
      XXZZ    -636.0430   XYZZ      14.2760   YYZZ    -424.0347
      XZZZ      -2.7171   YZZZ      -0.4109   ZZZZ    -489.5955
 -----------------------------------------------------------------
 Calculating analytic gradient of the SCF energy
 Gradient of SCF Energy
            1           2           3           4           5           6
    1   0.0001080  -0.0003074  -0.0000663   0.0006103   0.0001156   0.0000327
    2  -0.0001788  -0.0001360   0.0005390   0.0002629  -0.0001827  -0.0002393
    3   0.0000583   0.0004246  -0.0005804  -0.0009087   0.0002464   0.0002811
            7           8           9          10          11          12
    1  -0.0001900  -0.0003122   0.0000020  -0.0000100  -0.0000192   0.0000221
    2   0.0000408  -0.0000600  -0.0000632  -0.0000092  -0.0001080  -0.0000289
    3   0.0001333   0.0003438  -0.0000534  -0.0000131  -0.0000558   0.0000503
           13          14          15          16          17          18
    1   0.0000095  -0.0000062  -0.0000591  -0.0000275   0.0001108  -0.0000102
    2  -0.0000071   0.0000088   0.0000392   0.0000192   0.0000899  -0.0000085
    3   0.0000392  -0.0000394   0.0000349   0.0000261   0.0000212  -0.0000386
           19          20          21          22          23          24
    1   0.0000030   0.0000240   0.0000178   0.0000121   0.0000179  -0.0000247
    2  -0.0000154  -0.0000081  -0.0000207   0.0000072  -0.0000015  -0.0000181
    3  -0.0000356   0.0000299   0.0000250   0.0000313   0.0000251  -0.0000316
           25          26          27          28          29          30
    1  -0.0000430  -0.0000199   0.0000013   0.0000136   0.0000131   0.0000281
    2  -0.0000049  -0.0000107  -0.0000255  -0.0000154   0.0000792  -0.0001110
    3  -0.0000515  -0.0000140  -0.0000093   0.0000092  -0.0000758   0.0000735
           31          32          33          34          35          36
    1   0.0000037  -0.0000002  -0.0000207  -0.0000104   0.0000039  -0.0000225
    2   0.0000240   0.0000369   0.0000582   0.0000195   0.0000166   0.0000115
    3   0.0000272   0.0000143   0.0000346   0.0000027   0.0000076  -0.0000325
 Max gradient component =       9.087E-04
 RMS gradient           =       1.632E-04
 Gradient time:  CPU 422.42 s  wall 33.26 s
 Geometry Optimization Parameters
   NAtoms,    NIC,     NZ,  NCons,   NDum,   NFix, NCnnct, MaxDiis
       36     276       0       0       0       0       0       0

 Cartesian Hessian Update
 Hessian Updated using BFGS Update


** GEOMETRY OPTIMIZATION IN DELOCALIZED INTERNAL COORDINATES **
   Searching for a Minimum

   Optimization Cycle:   2

                       Coordinates (Angstroms)
     ATOM                X               Y               Z
      1  C        -1.0428401505   -0.7344630937   -0.6222961476
      2  C         0.3472568873   -0.0170775554   -0.6825713403
      3  C        -2.1139942981   -0.0474060642    0.1975628335
      4  C         0.3248726550    1.4404534748   -0.2414499705
      5  O        -3.3277073369   -0.5451256467   -0.1365257647
      6  O        -1.9503504234    0.7711974322    1.0658285985
      7  O        -0.4851111861    2.1258584841   -1.0847933357
      8  O         0.9372861019    1.9600173122    0.6534437130
      9  C        -0.7189849124    3.5037719439   -0.7464135456
     10  C        -4.4445804402   -0.0561945925    0.6297255052
     11  C        -0.6446949159   -2.0672305918    0.0880825959
     12  C         0.1711792705   -2.9418736583   -0.8864665923
     13  C         1.5442329758   -2.2118513196   -0.8557966278
     14  C         1.2486664444   -1.0277839603    0.1016202124
     15  O         0.3277214742   -1.6249052017    1.0365545971
     16  H        -1.4512851384   -0.9243297767   -1.6139685082
     17  H         0.6697947886    0.0230423848   -1.7246677629
     18  H         0.2162179414    4.0655233347   -0.7525877034
     19  H        -4.5415343028    1.0244614916    0.5154493757
     20  H         0.2499555145   -3.9611881848   -0.5055726789
     21  H        -0.2787256039   -2.9859809874   -1.8802453613
     22  H         2.3189597927   -2.8421933604   -0.4168770478
     23  H         1.8930213184   -1.8793871050   -1.8333803435
     24  H        -1.3954329613    3.8798863583   -1.5113084158
     25  H        -1.1776793464    3.5698014515    0.2413199873
     26  H        -4.3156810275   -0.2953048955    1.6864559590
     27  H        -5.3174957565   -0.5635872336    0.2248961594
     28  H        -1.4642480905   -2.5661903461    0.6011633183
     29  C         2.4565974786   -0.4921083749    0.8388531961
     30  O         3.3048124487    0.1030823624   -0.1312961979
     31  H         2.9681873940   -1.3255614784    1.3424501545
     32  H         2.1443928216    0.2385527473    1.5876370977
     33  C         4.2925865582    0.9406799946    0.4419762679
     34  H         4.8871070845    1.3432018779   -0.3789136863
     35  H         4.9523208111    0.3779853701    1.1176850052
     36  H         3.8306132194    1.7671661764    0.9957838237
   Point Group: c1    Number of degrees of freedom:   102


   Energy is   -919.746974517

 Hessian Updated using BFGS Update

 92 Hessian modes will be used to form the next step
  Hessian Eigenvalues:
     0.002772    0.004517    0.006948    0.007183    0.007491    0.010255
     0.010356    0.010612    0.013049    0.013483    0.021492    0.021758
     0.022466    0.025194    0.029607    0.034757    0.036600    0.039066
     0.041945    0.044375    0.048654    0.049455    0.052815    0.055065
     0.056036    0.057067    0.057498    0.062045    0.064156    0.064877
     0.065991    0.074167    0.084042    0.093498    0.097573    0.100727
     0.101170    0.101555    0.102082    0.105213    0.105922    0.106210
     0.109247    0.119818    0.126253    0.135395    0.155068    0.159996
     0.160097    0.174070    0.220086    0.234893    0.239093    0.249443
     0.249708    0.249797    0.249998    0.250349    0.256548    0.265259
     0.278981    0.301036    0.309735    0.310391    0.334222    0.336826
     0.337606    0.340285    0.346064    0.346093    0.346295    0.346878
     0.346927    0.346971    0.346980    0.347020    0.347031    0.347470
     0.348255    0.349097    0.350249    0.350377    0.350672    0.351214
     0.395877    0.398734    0.425624    0.430222    0.538940    0.542725
     1.026123    1.036438

 Minimum Search - Taking Simple RFO Step
 Searching for Lamda that Minimizes Along All modes
 Value Taken    Lamda =  -0.00001763
 Step Taken.  Stepsize is  0.030817

                             Maximum     Tolerance    Cnvgd?
         Gradient           0.000331      0.000001      NO
         Displacement       0.009822      0.000001      NO
         Energy change      0.000002      0.000000      NO


 New Cartesian Coordinates Obtained by Inverse Iteration

 Displacement from previous Coordinates is:  0.099684
 Adding empirical dispersion correction 
 ----------------------------------------------------------------
 Doing -D3(op) with
 s6 =   1.00000
 s8 =   0.78311
 a1 =   0.30000
 a2 =   4.25000
 n  =  10.00000
 -D3 energy without 3body term =     -0.0401904072 hartrees
 ----------------------------------------------------------------
             Standard Nuclear Orientation (Angstroms)
    I     Atom           X                Y                Z
 ----------------------------------------------------------------
    1      C      -1.0434478193    -0.7389148586    -0.6164372136
    2      C       0.3449541014    -0.0183206733    -0.6784976006
    3      C      -2.1166031513    -0.0532282029     0.2019805949
    4      C       0.3207818115     1.4377333148    -0.2327290967
    5      O      -3.3302005429    -0.5454868795    -0.1406918888
    6      O      -1.9555827284     0.7673940527     1.0688116137
    7      O      -0.4839389119     2.1261369659    -1.0786373495
    8      O       0.9352734609     1.9558063470     0.6615822910
    9      C      -0.7137155066     3.5049077155    -0.7408096845
   10      C      -4.4500218201    -0.0526562855     0.6187290882
   11      C      -0.6420326220    -2.0703507705     0.0944780359
   12      C       0.1720538187    -2.9446293293    -0.8818381093
   13      C       1.5438697781    -2.2120528275    -0.8566086928
   14      C       1.2500404648    -1.0285079752     0.1020520355
   15      O       0.3327680929    -1.6266504925     1.0398626609
   16      H      -1.4513817261    -0.9304289761    -1.6080164061
   17      H       0.6650463676     0.0246943864    -1.7212243053
   18      H       0.2235231205     4.0632778423    -0.7445796810
   19      H      -4.5416836249     1.0285268813     0.5050595802
   20      H       0.2538546426    -3.9634305621    -0.5002137555
   21      H      -0.2811177537    -2.9904301146    -1.8740546018
   22      H       2.3214146872    -2.8409932297    -0.4206598561
   23      H       1.8882902800    -1.8790297323    -1.8355489036
   24      H      -1.3868271599     3.8834879220    -1.5074253706
   25      H      -1.1745912571     3.5725941637     0.2458003647
   26      H      -4.3290270631    -0.2934356362     1.6760163874
   27      H      -5.3223863193    -0.5559151297     0.2076057920
   28      H      -1.4596060363    -2.5697786376     0.6102570122
   29      C       2.4595434145    -0.4915016924     0.8357479267
   30      O       3.3030565296     0.1069101217    -0.1365807181
   31      H       2.9744779875    -1.3245937928     1.3365111285
   32      H       2.1484615654     0.2376214718     1.5864817691
   33      C       4.2918066099     0.9448662189     0.4344875442
   34      H       4.8827069134     1.3497058913    -0.3878750702
   35      H       4.9548408955     0.3818983208     1.1067200407
   36      H       3.8308365912     1.7697129522     0.9916018083
 ----------------------------------------------------------------
 Nuclear Repulsion Energy =  1517.2335460494 hartrees
 There are       69 alpha and       69 beta electrons
 Applying Cartesian multipole field
    Component          Value
    ---------          -----
     (2,0,0)        1.00000E-12
     (0,2,0)        2.00000E-11
     (0,0,2)       -3.00000E-11
 Nucleus-field energy     =     0.0000000223 hartrees
 Requested basis set is 6-311++G(d,p)
 There are 198 shells and 522 basis functions
 A cutoff of  1.0D-11 yielded  15400 shell pairs
 There are    108772 function pairs (    115832 Cartesian)
 Smallest overlap matrix eigenvalue = 5.07E-07

 Q-Chem warning in module /fs/scratch/osu6415/qchem-kaunlao-vdw/stvman/mkSTV.C, line 281:

 Overlap eigenvalue is smaller than square root of threshold

 Linear dependence detected in AO basis
 Number of orthogonalized atomic orbitals = 521
 Maximum deviation from orthogonality = 8.678E-11
 Guess MOs from SCF MO coefficient file
 Reading MOs from coefficient file
 Reading MOs from coefficient file
 A restricted hybrid HF-DFT SCF calculation will be
 performed using Pulay DIIS extrapolation
 Exchange:     0.2000 Hartree-Fock + 0.0800 Slater + 0.7200 B88
 Correlation:  0.1900 VWN1RPA + 0.8100 LYP
 Using SG-1 standard quadrature grid
 Dispersion:   Grimme D3
 SCF converges when DIIS error is below 1.0E-08
 Geometry optimization detected.  Setting ReadMinima to 0
 Setting SaveMinima to 0
 using 20 threads for integral computing
 -------------------------------------------------------
 OpenMP Integral computing Module                
 Release: version 1.0, May 2013, Q-Chem Inc. Pittsburgh 
 -------------------------------------------------------
 -------------------------------------------------------
 OpenMP BLAS3 based DFT computing Module                
 Release: version 1.0, May 2013, Q-Chem Inc. Pittsburgh 
 -------------------------------------------------------
 ---------------------------------------
  Cycle       Energy         DIIS Error
 ---------------------------------------
    1    -919.7468155287      1.21E-04
    2    -919.7469773625      1.64E-05
    3    -919.7469656900      2.76E-05
    4    -919.7469856189      5.13E-06
    5    -919.7469861377      2.14E-06
    6    -919.7469862513      5.32E-07
    7    -919.7469862573      2.18E-07
    8    -919.7469862586      4.89E-08
    9    -919.7469862587      1.30E-08
   10    -919.7469862582      5.58E-09 Convergence criterion met
 ---------------------------------------
 SCF time:  CPU 853.53 s  wall 53.45 s
 SCF   energy in the final basis set = -919.74698626
 Total energy in the final basis set = -919.74698626
 
 --------------------------------------------------------------
 
                    Orbital Energies (a.u.)
 --------------------------------------------------------------
 
 Alpha MOs
 -- Occupied --
-19.177 -19.164 -19.132 -19.124 -19.120 -19.109 -10.308 -10.302
-10.239 -10.237 -10.232 -10.221 -10.210 -10.206 -10.206 -10.201
-10.180 -10.175  -1.118  -1.106  -1.066  -1.034  -1.031  -1.021
 -0.831  -0.793  -0.780  -0.749  -0.723  -0.704  -0.655  -0.639
 -0.604  -0.591  -0.570  -0.552  -0.534  -0.515  -0.504  -0.494
 -0.491  -0.485  -0.481  -0.477  -0.473  -0.462  -0.457  -0.442
 -0.426  -0.420  -0.418  -0.409  -0.395  -0.391  -0.374  -0.370
 -0.364  -0.360  -0.359  -0.352  -0.341  -0.330  -0.322  -0.320
 -0.306  -0.291  -0.276  -0.274  -0.258
 -- Virtual --
 -0.018  -0.010  -0.002   0.001   0.006   0.010   0.014   0.018
  0.024   0.026   0.032   0.035   0.039   0.044   0.047   0.049
  0.053   0.059   0.063   0.067   0.072   0.080   0.081   0.088
  0.090   0.095   0.099   0.101   0.106   0.109   0.114   0.116
  0.118   0.120   0.121   0.124   0.127   0.129   0.130   0.138
  0.139   0.141   0.143   0.147   0.150   0.151   0.153   0.156
  0.158   0.161   0.163   0.166   0.169   0.173   0.177   0.179
  0.180   0.182   0.186   0.188   0.192   0.197   0.199   0.204
  0.205   0.212   0.214   0.220   0.223   0.226   0.234   0.238
  0.240   0.241   0.248   0.254   0.258   0.260   0.264   0.267
  0.270   0.277   0.278   0.285   0.286   0.292   0.296   0.298
  0.307   0.307   0.311   0.317   0.321   0.324   0.328   0.335
  0.340   0.344   0.347   0.350   0.358   0.360   0.365   0.369
  0.370   0.374   0.375   0.382   0.385   0.391   0.393   0.398
  0.399   0.405   0.412   0.416   0.419   0.428   0.437   0.440
  0.454   0.456   0.469   0.476   0.483   0.487   0.495   0.500
  0.510   0.520   0.529   0.537   0.545   0.550   0.565   0.573
  0.578   0.585   0.595   0.602   0.607   0.615   0.621   0.624
  0.628   0.641   0.646   0.650   0.659   0.661   0.664   0.673
  0.677   0.681   0.686   0.700   0.701   0.707   0.711   0.718
  0.723   0.733   0.736   0.739   0.745   0.746   0.754   0.762
  0.768   0.775   0.777   0.787   0.795   0.805   0.809   0.819
  0.836   0.839   0.866   0.882   0.903   0.935   0.967   0.972
  0.987   1.003   1.007   1.034   1.040   1.046   1.050   1.067
  1.077   1.082   1.094   1.107   1.119   1.129   1.154   1.168
  1.191   1.200   1.210   1.212   1.226   1.230   1.244   1.250
  1.267   1.274   1.280   1.294   1.307   1.321   1.330   1.336
  1.353   1.370   1.378   1.392   1.397   1.408   1.413   1.424
  1.433   1.453   1.463   1.466   1.471   1.477   1.500   1.514
  1.519   1.534   1.543   1.548   1.556   1.561   1.566   1.580
  1.587   1.591   1.597   1.609   1.616   1.622   1.628   1.633
  1.644   1.661   1.669   1.678   1.684   1.694   1.703   1.706
  1.710   1.714   1.728   1.734   1.740   1.745   1.764   1.774
  1.782   1.793   1.798   1.811   1.814   1.832   1.844   1.849
  1.861   1.867   1.883   1.893   1.915   1.920   1.936   1.943
  1.948   1.972   1.983   2.004   2.010   2.029   2.042   2.053
  2.072   2.082   2.100   2.108   2.112   2.127   2.136   2.147
  2.152   2.166   2.181   2.187   2.214   2.225   2.241   2.255
  2.275   2.284   2.308   2.333   2.336   2.386   2.405   2.429
  2.438   2.449   2.462   2.471   2.488   2.502   2.507   2.508
  2.516   2.530   2.532   2.535   2.543   2.550   2.551   2.577
  2.597   2.602   2.628   2.646   2.649   2.675   2.683   2.692
  2.701   2.729   2.737   2.757   2.805   2.811   2.820   2.847
  2.855   2.867   2.882   2.885   2.886   2.903   2.911   2.912
  2.939   2.969   2.976   2.991   2.997   3.022   3.028   3.034
  3.046   3.058   3.061   3.066   3.086   3.104   3.116   3.126
  3.140   3.162   3.170   3.186   3.218   3.221   3.228   3.239
  3.261   3.268   3.287   3.310   3.335   3.383   3.385   3.392
  3.430   3.468   3.591   3.598   3.613   3.666   3.690   3.730
  3.772   3.791   3.796   3.820   3.836   3.842   3.865   3.943
  3.974   4.018   4.052   4.074   4.094   4.110   4.115   4.125
  4.147   4.152   4.178   4.191   4.263   4.297   4.437   4.496
  5.040   5.082   5.134   5.141   5.167   5.221   5.309   5.320
  5.385   5.427   5.431   5.511   5.629   5.639   5.650   5.717
  5.890   5.911  23.799  23.841  23.852  23.880  23.898  23.907
 23.926  23.940  23.947  23.965  23.985  24.040  49.904  49.925
 49.974  49.995  50.035  50.056
 --------------------------------------------------------------
 
          Ground-State Mulliken Net Atomic Charges

     Atom                 Charge (a.u.)
  ----------------------------------------
      1 C                     0.238784
      2 C                     0.227216
      3 C                    -0.892071
      4 C                    -0.567396
      5 O                    -0.023494
      6 O                    -0.184740
      7 O                     0.003327
      8 O                    -0.174873
      9 C                    -0.188021
     10 C                    -0.238122
     11 C                     0.315809
     12 C                    -0.493657
     13 C                    -0.302301
     14 C                    -0.834429
     15 O                    -0.027836
     16 H                     0.289696
     17 H                     0.288803
     18 H                     0.165775
     19 H                     0.172379
     20 H                     0.183014
     21 H                     0.121725
     22 H                     0.174633
     23 H                     0.181980
     24 H                     0.148040
     25 H                     0.192288
     26 H                     0.183943
     27 H                     0.151281
     28 H                     0.277443
     29 C                     0.109559
     30 O                    -0.069122
     31 H                     0.154013
     32 H                     0.232853
     33 C                    -0.233992
     34 H                     0.140628
     35 H                     0.128490
     36 H                     0.148375
  ----------------------------------------
  Sum of atomic charges =     0.000000

 -----------------------------------------------------------------
                    Cartesian Multipole Moments
 -----------------------------------------------------------------
    Charge (ESU x 10^10)
                 0.0000
    Dipole Moment (Debye)
         X      -1.8685      Y      -0.9064      Z      -2.2082
       Tot       3.0314
    Quadrupole Moments (Debye-Ang)
        XX     -93.0247     XY      -0.2179     YY     -99.8862
        XZ       0.5705     YZ      -2.0615     ZZ    -110.9892
    Octopole Moments (Debye-Ang^2)
       XXX     -55.4613    XXY      14.9557    XYY     -13.0111
       YYY      34.2395    XXZ      27.6455    XYZ       3.7581
       YYZ     -11.6571    XZZ      -3.3223    YZZ       2.4388
       ZZZ       0.0543
    Hexadecapole Moments (Debye-Ang^3)
      XXXX   -2937.5911   XXXY      63.4952   XXYY    -871.6796
      XYYY     -16.7221   YYYY   -1837.5459   XXXZ     -16.6199
      XXYZ     -27.3819   XYYZ      -1.3961   YYYZ     -47.3415
      XXZZ    -636.7399   XYZZ      14.1980   YYZZ    -424.0353
      XZZZ      -2.3892   YZZZ      -0.9443   ZZZZ    -487.8028
 -----------------------------------------------------------------
 Calculating analytic gradient of the SCF energy
 Gradient of SCF Energy
            1           2           3           4           5           6
    1   0.0001291  -0.0000949   0.0000500  -0.0003916   0.0000183  -0.0000492
    2   0.0000128   0.0000996  -0.0003916  -0.0000125   0.0000835   0.0001092
    3  -0.0001181   0.0000592   0.0004573   0.0000280  -0.0000926  -0.0000769
            7           8           9          10          11          12
    1   0.0001567   0.0000795   0.0000249  -0.0000065  -0.0001009   0.0000553
    2   0.0000607  -0.0000094  -0.0000269   0.0000002  -0.0000390   0.0000037
    3  -0.0001042  -0.0000209  -0.0000636  -0.0000430   0.0000176   0.0000902
           13          14          15          16          17          18
    1   0.0000007   0.0000590   0.0000240   0.0000163   0.0001182  -0.0000217
    2   0.0000138  -0.0000233   0.0000062   0.0000294  -0.0000096  -0.0000029
    3  -0.0000135  -0.0000664   0.0000098  -0.0000325  -0.0000484  -0.0000365
           19          20          21          22          23          24
    1  -0.0000116   0.0000020   0.0000119   0.0000118   0.0000271  -0.0000151
    2  -0.0000172  -0.0000103  -0.0000115   0.0000047  -0.0000127  -0.0000157
    3  -0.0000193   0.0000260   0.0000178   0.0000460   0.0000367  -0.0000415
           25          26          27          28          29          30
    1  -0.0000271  -0.0000067   0.0000004   0.0000161  -0.0000233   0.0000098
    2  -0.0000269  -0.0000156  -0.0000159   0.0000088   0.0000673  -0.0000758
    3  -0.0000395  -0.0000130  -0.0000189   0.0000012  -0.0000643   0.0000525
           31          32          33          34          35          36
    1  -0.0000192  -0.0000051  -0.0000180  -0.0000056   0.0000017  -0.0000163
    2   0.0000271   0.0000697   0.0000607   0.0000170   0.0000227   0.0000196
    3   0.0000459   0.0000097   0.0000224   0.0000059   0.0000112  -0.0000239
 Max gradient component =       4.573E-04
 RMS gradient           =       8.394E-05
 Gradient time:  CPU 423.39 s  wall 33.40 s
 Geometry Optimization Parameters
   NAtoms,    NIC,     NZ,  NCons,   NDum,   NFix, NCnnct, MaxDiis
       36     276       0       0       0       0       0       0

 Cartesian Hessian Update
 Hessian Updated using BFGS Update


** GEOMETRY OPTIMIZATION IN DELOCALIZED INTERNAL COORDINATES **
   Searching for a Minimum

   Optimization Cycle:   3

                       Coordinates (Angstroms)
     ATOM                X               Y               Z
      1  C        -1.0434478193   -0.7389148586   -0.6164372136
      2  C         0.3449541014   -0.0183206733   -0.6784976006
      3  C        -2.1166031513   -0.0532282029    0.2019805949
      4  C         0.3207818115    1.4377333148   -0.2327290967
      5  O        -3.3302005429   -0.5454868795   -0.1406918888
      6  O        -1.9555827284    0.7673940527    1.0688116137
      7  O        -0.4839389119    2.1261369659   -1.0786373495
      8  O         0.9352734609    1.9558063470    0.6615822910
      9  C        -0.7137155066    3.5049077155   -0.7408096845
     10  C        -4.4500218201   -0.0526562855    0.6187290882
     11  C        -0.6420326220   -2.0703507705    0.0944780359
     12  C         0.1720538187   -2.9446293293   -0.8818381093
     13  C         1.5438697781   -2.2120528275   -0.8566086928
     14  C         1.2500404648   -1.0285079752    0.1020520355
     15  O         0.3327680929   -1.6266504925    1.0398626609
     16  H        -1.4513817261   -0.9304289761   -1.6080164061
     17  H         0.6650463676    0.0246943864   -1.7212243053
     18  H         0.2235231205    4.0632778423   -0.7445796810
     19  H        -4.5416836249    1.0285268813    0.5050595802
     20  H         0.2538546426   -3.9634305621   -0.5002137555
     21  H        -0.2811177537   -2.9904301146   -1.8740546018
     22  H         2.3214146872   -2.8409932297   -0.4206598561
     23  H         1.8882902800   -1.8790297323   -1.8355489036
     24  H        -1.3868271599    3.8834879220   -1.5074253706
     25  H        -1.1745912571    3.5725941637    0.2458003647
     26  H        -4.3290270631   -0.2934356362    1.6760163874
     27  H        -5.3223863193   -0.5559151297    0.2076057920
     28  H        -1.4596060363   -2.5697786376    0.6102570122
     29  C         2.4595434145   -0.4915016924    0.8357479267
     30  O         3.3030565296    0.1069101217   -0.1365807181
     31  H         2.9744779875   -1.3245937928    1.3365111285
     32  H         2.1484615654    0.2376214718    1.5864817691
     33  C         4.2918066099    0.9448662189    0.4344875442
     34  H         4.8827069134    1.3497058913   -0.3878750702
     35  H         4.9548408955    0.3818983208    1.1067200407
     36  H         3.8308365912    1.7697129522    0.9916018083
   Point Group: c1    Number of degrees of freedom:   102


   Energy is   -919.746986258

 Hessian Updated using BFGS Update

 94 Hessian modes will be used to form the next step
  Hessian Eigenvalues:
     0.002460    0.005491    0.006585    0.007210    0.007430    0.010261
     0.010354    0.010604    0.013014    0.013485    0.021512    0.021774
     0.022520    0.025737    0.033268    0.035677    0.036742    0.040042
     0.043778    0.046702    0.048747    0.050534    0.052979    0.055637
     0.056001    0.056629    0.057931    0.062042    0.064017    0.064660
     0.065739    0.074322    0.083177    0.092788    0.098147    0.100702
     0.101167    0.101537    0.102604    0.105210    0.105923    0.106171
     0.109240    0.119969    0.123785    0.135348    0.156748    0.159942
     0.160000    0.160412    0.173038    0.220097    0.233134    0.239027
     0.249269    0.249675    0.249842    0.249925    0.250000    0.251249
     0.256570    0.265318    0.279014    0.301071    0.310030    0.310476
     0.334142    0.336825    0.337600    0.340257    0.346065    0.346095
     0.346499    0.346879    0.346927    0.346970    0.346980    0.347021
     0.347035    0.347470    0.348261    0.349148    0.350249    0.350391
     0.350672    0.351067    0.395873    0.398541    0.425271    0.430217
     0.539007    0.542442    1.025985    1.036132

 Minimum Search - Taking Simple RFO Step
 Searching for Lamda that Minimizes Along All modes
 Value Taken    Lamda =  -0.00001339
 Step Taken.  Stepsize is  0.044307

                             Maximum     Tolerance    Cnvgd?
         Gradient           0.000220      0.000001      NO
         Displacement       0.017494      0.000001      NO
         Energy change     -0.000012      0.000000      NO


 New Cartesian Coordinates Obtained by Inverse Iteration

 Displacement from previous Coordinates is:  0.149324
 Adding empirical dispersion correction 
 ----------------------------------------------------------------
 Doing -D3(op) with
 s6 =   1.00000
 s8 =   0.78311
 a1 =   0.30000
 a2 =   4.25000
 n  =  10.00000
 -D3 energy without 3body term =     -0.0402157767 hartrees
 ----------------------------------------------------------------
             Standard Nuclear Orientation (Angstroms)
    I     Atom           X                Y                Z
 ----------------------------------------------------------------
    1      C      -1.0405095620    -0.7384565382    -0.6170706044
    2      C       0.3481211313    -0.0181175033    -0.6783765316
    3      C      -2.1171270166    -0.0478059443     0.1923956573
    4      C       0.3243421338     1.4373084655    -0.2305807385
    5      O      -3.3289520878    -0.5450354844    -0.1495387468
    6      O      -1.9597192953     0.7790910210     1.0538858980
    7      O      -0.4925396923     2.1238898272    -1.0662575294
    8      O       0.9453325265     1.9561362844     0.6587561833
    9      C      -0.7242768902     3.5011042665    -0.7231829433
   10      C      -4.4514558748    -0.0489569634     0.6037707611
   11      C      -0.6411069265    -2.0667810355     0.1010080019
   12      C       0.1701520536    -2.9470138401    -0.8722585763
   13      C       1.5424068874    -2.2149832511    -0.8540136939
   14      C       1.2528240556    -1.0283857714     0.1023010626
   15      O       0.3358420453    -1.6215761400     1.0434399836
   16      H      -1.4447917950    -0.9354917423    -1.6090468344
   17      H       0.6671063433     0.0253263733    -1.7213225886
   18      H       0.2104948679     4.0634423720    -0.7368961300
   19      H      -4.5455711201     1.0310480385     0.4812477724
   20      H       0.2522130538    -3.9637813826    -0.4853139363
   21      H      -0.2851815750    -2.9978127867    -1.8632289685
   22      H       2.3211305315    -2.8430931502    -0.4189823667
   23      H       1.8835525836    -1.8851167922    -1.8351793093
   24      H      -1.4078456760     3.8781590564    -1.4812435655
   25      H      -1.1738086746     3.5652281513     0.2688854165
   26      H      -4.3318688155    -0.2809125113     1.6631843574
   27      H      -5.3217664788    -0.5576876553     0.1950296099
   28      H      -1.4592429911    -2.5622224205     0.6197709378
   29      C       2.4647732560    -0.4920850625     0.8325475898
   30      O       3.3048588102     0.1078320393    -0.1419313184
   31      H       2.9814040537    -1.3256102361     1.3308291566
   32      H       2.1560316996     0.2362510742     1.5849476790
   33      C       4.2963872653     0.9439194650     0.4270679483
   34      H       4.8842675471     1.3502943363    -0.3967029870
   35      H       4.9617302178     0.3790627285     1.0953996175
   36      H       3.8382304983     1.7677714824     0.9880171055
 ----------------------------------------------------------------
 Nuclear Repulsion Energy =  1517.5244601204 hartrees
 There are       69 alpha and       69 beta electrons
 Applying Cartesian multipole field
    Component          Value
    ---------          -----
     (2,0,0)        1.00000E-12
     (0,2,0)        2.00000E-11
     (0,0,2)       -3.00000E-11
 Nucleus-field energy     =     0.0000000225 hartrees
 Requested basis set is 6-311++G(d,p)
 There are 198 shells and 522 basis functions
 A cutoff of  1.0D-11 yielded  15395 shell pairs
 There are    108722 function pairs (    115781 Cartesian)
 Smallest overlap matrix eigenvalue = 5.12E-07

 Q-Chem warning in module /fs/scratch/osu6415/qchem-kaunlao-vdw/stvman/mkSTV.C, line 281:

 Overlap eigenvalue is smaller than square root of threshold

 Linear dependence detected in AO basis
 Number of orthogonalized atomic orbitals = 521
 Maximum deviation from orthogonality = 1.547E-10
 Guess MOs from SCF MO coefficient file
 Reading MOs from coefficient file
 Reading MOs from coefficient file
 A restricted hybrid HF-DFT SCF calculation will be
 performed using Pulay DIIS extrapolation
 Exchange:     0.2000 Hartree-Fock + 0.0800 Slater + 0.7200 B88
 Correlation:  0.1900 VWN1RPA + 0.8100 LYP
 Using SG-1 standard quadrature grid
 Dispersion:   Grimme D3
 SCF converges when DIIS error is below 1.0E-08
 Geometry optimization detected.  Setting ReadMinima to 0
 Setting SaveMinima to 0
 using 20 threads for integral computing
 -------------------------------------------------------
 OpenMP Integral computing Module                
 Release: version 1.0, May 2013, Q-Chem Inc. Pittsburgh 
 -------------------------------------------------------
 -------------------------------------------------------
 OpenMP BLAS3 based DFT computing Module                
 Release: version 1.0, May 2013, Q-Chem Inc. Pittsburgh 
 -------------------------------------------------------
 ---------------------------------------
  Cycle       Energy         DIIS Error
 ---------------------------------------
    1    -919.7448080593      1.72E-04
    2    -919.7469654950      2.12E-05
    3    -919.7469521042      3.25E-05
    4    -919.7469805320      7.33E-06
    5    -919.7469816630      2.74E-06
    6    -919.7469818580      6.43E-07
    7    -919.7469818686      3.00E-07
    8    -919.7469818705      8.09E-08
    9    -919.7469818724      2.63E-08
   10    -919.7469818746      1.37E-08
   11    -919.7469818698      4.30E-09 Convergence criterion met
 ---------------------------------------
 SCF time:  CPU 914.96 s  wall 58.65 s
 SCF   energy in the final basis set = -919.74698187
 Total energy in the final basis set = -919.74698187
 
 --------------------------------------------------------------
 
                    Orbital Energies (a.u.)
 --------------------------------------------------------------
 
 Alpha MOs
 -- Occupied --
-19.177 -19.164 -19.132 -19.124 -19.120 -19.109 -10.308 -10.302
-10.239 -10.237 -10.232 -10.220 -10.210 -10.206 -10.206 -10.201
-10.180 -10.175  -1.118  -1.106  -1.066  -1.034  -1.031  -1.020
 -0.831  -0.793  -0.780  -0.749  -0.723  -0.704  -0.655  -0.639
 -0.604  -0.591  -0.570  -0.552  -0.534  -0.515  -0.504  -0.494
 -0.491  -0.485  -0.481  -0.477  -0.473  -0.462  -0.457  -0.442
 -0.426  -0.420  -0.418  -0.409  -0.395  -0.391  -0.374  -0.370
 -0.364  -0.360  -0.359  -0.352  -0.341  -0.330  -0.322  -0.320
 -0.306  -0.291  -0.276  -0.274  -0.258
 -- Virtual --
 -0.018  -0.010  -0.002   0.001   0.006   0.010   0.014   0.018
  0.025   0.026   0.032   0.035   0.039   0.044   0.047   0.049
  0.053   0.059   0.063   0.067   0.072   0.080   0.081   0.088
  0.090   0.095   0.099   0.101   0.106   0.109   0.114   0.116
  0.118   0.120   0.121   0.124   0.127   0.128   0.130   0.138
  0.139   0.141   0.143   0.147   0.150   0.151   0.153   0.156
  0.158   0.161   0.163   0.167   0.169   0.174   0.177   0.179
  0.180   0.182   0.186   0.188   0.192   0.198   0.199   0.204
  0.205   0.212   0.214   0.221   0.223   0.226   0.234   0.238
  0.240   0.241   0.248   0.255   0.258   0.260   0.264   0.267
  0.270   0.277   0.278   0.285   0.286   0.292   0.296   0.298
  0.307   0.307   0.311   0.317   0.322   0.324   0.328   0.335
  0.340   0.344   0.347   0.350   0.358   0.360   0.365   0.369
  0.370   0.374   0.376   0.382   0.385   0.391   0.393   0.398
  0.399   0.404   0.412   0.416   0.419   0.428   0.437   0.440
  0.454   0.457   0.470   0.476   0.483   0.487   0.495   0.500
  0.510   0.520   0.529   0.537   0.545   0.549   0.565   0.573
  0.578   0.585   0.595   0.602   0.607   0.616   0.620   0.624
  0.628   0.641   0.645   0.650   0.659   0.661   0.664   0.673
  0.677   0.681   0.686   0.700   0.702   0.707   0.711   0.717
  0.723   0.733   0.737   0.739   0.745   0.746   0.755   0.761
  0.768   0.775   0.777   0.787   0.795   0.804   0.809   0.819
  0.836   0.839   0.866   0.882   0.904   0.935   0.967   0.972
  0.987   1.003   1.007   1.034   1.040   1.046   1.051   1.067
  1.077   1.082   1.094   1.106   1.120   1.129   1.153   1.168
  1.191   1.200   1.209   1.212   1.226   1.231   1.245   1.251
  1.266   1.275   1.282   1.293   1.308   1.321   1.330   1.336
  1.353   1.370   1.378   1.392   1.397   1.408   1.415   1.424
  1.433   1.453   1.464   1.467   1.472   1.478   1.499   1.515
  1.520   1.535   1.542   1.548   1.555   1.561   1.566   1.580
  1.587   1.591   1.597   1.609   1.616   1.623   1.628   1.633
  1.643   1.661   1.669   1.678   1.684   1.693   1.703   1.706
  1.710   1.714   1.728   1.735   1.740   1.746   1.764   1.774
  1.782   1.792   1.799   1.811   1.814   1.832   1.844   1.850
  1.861   1.867   1.883   1.893   1.915   1.920   1.936   1.943
  1.947   1.973   1.983   2.004   2.010   2.029   2.042   2.054
  2.072   2.082   2.101   2.108   2.112   2.127   2.136   2.147
  2.152   2.166   2.181   2.187   2.214   2.225   2.241   2.255
  2.275   2.283   2.309   2.333   2.336   2.386   2.405   2.429
  2.438   2.449   2.462   2.471   2.488   2.502   2.507   2.508
  2.516   2.530   2.532   2.535   2.543   2.550   2.551   2.578
  2.598   2.603   2.628   2.646   2.648   2.676   2.683   2.693
  2.702   2.729   2.738   2.757   2.805   2.811   2.820   2.847
  2.855   2.868   2.881   2.885   2.886   2.904   2.912   2.913
  2.941   2.969   2.976   2.991   2.997   3.022   3.029   3.033
  3.046   3.059   3.062   3.066   3.086   3.105   3.116   3.126
  3.140   3.162   3.171   3.186   3.219   3.220   3.229   3.240
  3.261   3.268   3.287   3.309   3.335   3.383   3.385   3.392
  3.430   3.468   3.591   3.598   3.613   3.666   3.689   3.732
  3.772   3.791   3.796   3.820   3.836   3.842   3.865   3.943
  3.973   4.018   4.052   4.074   4.094   4.110   4.115   4.125
  4.147   4.152   4.178   4.191   4.264   4.297   4.437   4.497
  5.039   5.080   5.137   5.141   5.168   5.220   5.309   5.321
  5.385   5.427   5.431   5.511   5.629   5.639   5.650   5.717
  5.890   5.912  23.799  23.841  23.852  23.880  23.898  23.907
 23.926  23.940  23.947  23.965  23.986  24.040  49.904  49.925
 49.974  49.994  50.035  50.057
 --------------------------------------------------------------
 
          Ground-State Mulliken Net Atomic Charges

     Atom                 Charge (a.u.)
  ----------------------------------------
      1 C                     0.230301
      2 C                     0.221037
      3 C                    -0.890874
      4 C                    -0.553920
      5 O                    -0.024094
      6 O                    -0.186773
      7 O                     0.002466
      8 O                    -0.176736
      9 C                    -0.188587
     10 C                    -0.237646
     11 C                     0.318471
     12 C                    -0.492245
     13 C                    -0.302794
     14 C                    -0.833288
     15 O                    -0.027799
     16 H                     0.289158
     17 H                     0.288056
     18 H                     0.165521
     19 H                     0.172310
     20 H                     0.183026
     21 H                     0.121550
     22 H                     0.174087
     23 H                     0.181942
     24 H                     0.147898
     25 H                     0.192723
     26 H                     0.184017
     27 H                     0.151352
     28 H                     0.277659
     29 C                     0.112652
     30 O                    -0.069360
     31 H                     0.154071
     32 H                     0.232327
     33 C                    -0.234114
     34 H                     0.140724
     35 H                     0.128449
     36 H                     0.148433
  ----------------------------------------
  Sum of atomic charges =     0.000000

 -----------------------------------------------------------------
                    Cartesian Multipole Moments
 -----------------------------------------------------------------
    Charge (ESU x 10^10)
                 0.0000
    Dipole Moment (Debye)
         X      -1.8769      Y      -0.9270      Z      -2.1929
       Tot       3.0316
    Quadrupole Moments (Debye-Ang)
        XX     -93.0231     XY      -0.2631     YY     -99.9603
        XZ       0.5736     YZ      -2.0252     ZZ    -110.9596
    Octopole Moments (Debye-Ang^2)
       XXX     -55.6249    XXY      14.8365    XYY     -13.0964
       YYY      33.7289    XXZ      27.4300    XYZ       3.7121
       YYZ     -11.3373    XZZ      -3.4136    YZZ       2.3747
       ZZZ       0.2876
    Hexadecapole Moments (Debye-Ang^3)
      XXXX   -2941.9877   XXXY      64.9471   XXYY    -872.6429
      XYYY     -15.3187   YYYY   -1837.8789   XXXZ     -17.1815
      XXYZ     -27.9801   XYYZ      -2.0388   YYYZ     -47.6863
      XXZZ    -637.2991   XYZZ      14.8602   YYZZ    -423.2100
      XZZZ      -4.4447   YZZZ      -1.6693   ZZZZ    -482.5536
 -----------------------------------------------------------------
 Calculating analytic gradient of the SCF energy
 Gradient of SCF Energy
            1           2           3           4           5           6
    1   0.0001279  -0.0001449  -0.0000255   0.0003110  -0.0000330   0.0000920
    2  -0.0001451   0.0001229  -0.0000831  -0.0001321  -0.0000089   0.0002385
    3  -0.0002214   0.0000972   0.0001151   0.0000682  -0.0000637  -0.0002989
            7           8           9          10          11          12
    1  -0.0003081  -0.0000546  -0.0000065   0.0000013  -0.0000500   0.0000706
    2  -0.0001778   0.0000305   0.0000173  -0.0000156   0.0001251  -0.0000267
[...]
     0.00459841     -0.05214645      0.01924263
     0.02385707      0.00292920      0.05221697
    -0.13512098      0.10986063     -0.07480210
     0.01952902      0.01526137     -0.04924798
    -0.00444855      0.00232072     -0.00518443
    -0.00412539      0.00125240      0.00847737
    -0.00038237      0.00091912     -0.00430276
     0.00181477      0.00108725      0.00092988
    -0.00405436     -0.00277023      0.00310693
    -0.00098483      0.00336939      0.00304922
    -0.00003870     -0.00002581      0.00010578
    -0.00105892     -0.00036621      0.00007335
     0.01572757     -0.03770158     -0.03781382
    -0.00001942     -0.00014998      0.00000499
     0.00033381      0.00019375     -0.00075685
     0.00037659     -0.00005487      0.00035465
    -0.00066860      0.00064996      0.00052444
vibration 93
     0.00049895      0.00031206      0.00143595
     0.00091465      0.00014194     -0.00400663
    -0.00000582     -0.00006178     -0.00003360
    -0.00037017     -0.00009624     -0.00058872
     0.00000965      0.00001075      0.00001270
     0.00001715      0.00002355      0.00003069
     0.00005684     -0.00002922      0.00009960
     0.00070273     -0.00067446      0.00056590
     0.00008727     -0.00007442      0.00005528
     0.00000072      0.00002987      0.00003740
     0.00007523      0.00014732     -0.00011953
    -0.00009445     -0.00076932      0.00002131
     0.00316590     -0.00004965     -0.00162452
     0.00111859     -0.00087213     -0.00009236
    -0.00022493      0.00004643      0.00010303
    -0.00670443     -0.00340701     -0.01709396
    -0.01376547     -0.00136051      0.04744236
     0.00030819      0.00020198     -0.00007468
     0.00002810     -0.00036127      0.00004650
    -0.00104613      0.00960201     -0.00384922
     0.00170463      0.00012306      0.00418366
    -0.02251384      0.02006940     -0.01279567
    -0.01186362     -0.01299862      0.03563424
    -0.00102226      0.00062189     -0.00116247
    -0.00030572      0.00006791      0.00050564
    -0.00004755      0.00008822     -0.00040079
    -0.00008808     -0.00004034     -0.00001626
    -0.00311813     -0.00188231      0.00183465
     0.02846897     -0.06620385     -0.04895721
     0.00054094      0.00004114     -0.00039871
    -0.09125799      0.13404319     -0.08731655
    -0.27041626      0.65924305      0.66485533
    -0.00421877      0.00065071      0.00247404
     0.02522847      0.01994725     -0.03556356
     0.01424936     -0.01392001      0.01486851
     0.01020600     -0.00489043     -0.00566456
vibration 94
    -0.00558038     -0.00276997     -0.01436727
     0.00410376      0.00062890     -0.01319535
    -0.00047650     -0.00005274     -0.00023846
    -0.00006544     -0.00002043     -0.00031617
     0.00004790     -0.00000459      0.00001958
     0.00005906      0.00004512      0.00003082
     0.00000121     -0.00000106      0.00002627
     0.00006927      0.00003812      0.00006215
    -0.00009630     -0.00013698      0.00007658
     0.00003860     -0.00000344      0.00006396
     0.00763934      0.00368207     -0.00392874
     0.02392260     -0.04858833      0.06281562
     0.00103359      0.01667132     -0.03384372
    -0.00005116      0.00043778     -0.00019354
    -0.00014285     -0.00003383      0.00001649
     0.06553336      0.03656978      0.16883220
    -0.04817006     -0.00513404      0.16120354
     0.00174111      0.00106756     -0.00001256
    -0.00000349      0.00017273     -0.00007876
    -0.05291755      0.60643890     -0.22851973
    -0.23568866     -0.03034179     -0.51868619
     0.10381633     -0.08428352      0.05368832
    -0.11600591     -0.11578430      0.34675368
    -0.00043340      0.00019694     -0.00049386
    -0.00000608      0.00018275     -0.00005862
    -0.00016288      0.00009502     -0.00032165
    -0.00014033     -0.00012565     -0.00012307
    -0.08300483     -0.05034214      0.05175182
    -0.00065699      0.00158405      0.00062751
     0.00002917      0.00002996      0.00004985
     0.00479559     -0.00656456      0.00452338
     0.00484886     -0.01285671     -0.01239484
    -0.00002091     -0.00013530      0.00003224
     0.00046820      0.00026505     -0.00074353
     0.00014956      0.00009741      0.00008557
    -0.00053682      0.00093747      0.00071632
vibration 95
     0.00322740      0.00168173      0.00818570
    -0.00041295     -0.00006539      0.00112177
     0.00016192      0.00006636      0.00012375
    -0.00012010     -0.00003962     -0.00012482
    -0.00000192     -0.00001203     -0.00001975
    -0.00000885     -0.00005986     -0.00004266
     0.00003154     -0.00003198      0.00004241
     0.00010303     -0.00002214      0.00008766
    -0.00029356     -0.00005104      0.00030504
    -0.00005747      0.00002290      0.00008097
    -0.00018285     -0.00004606      0.00018601
     0.00035250     -0.00038088      0.00095114
    -0.00017094      0.00160763     -0.00283161
    -0.00015943      0.00002179      0.00000704
    -0.00001810      0.00000032     -0.00002060
    -0.03810670     -0.01967245     -0.09703949
     0.00466140      0.00043919     -0.01396477
     0.00194824      0.00103929     -0.00003201
     0.00009720     -0.00076477      0.00008727
    -0.00048331      0.00516600     -0.00202505
    -0.00396727     -0.00042211     -0.00929402
     0.01222773     -0.00985932      0.00642130
    -0.00920754     -0.00913485      0.02715518
    -0.00008744      0.00000541      0.00000768
     0.00161663     -0.00025460     -0.00371859
    -0.00009638      0.00028709     -0.00140543
     0.00035443      0.00022211      0.00019838
     0.00242369      0.00128285     -0.00133369
     0.00067047     -0.00334372     -0.00168409
     0.00037625      0.00023948     -0.00004830
    -0.00463917      0.00521408     -0.00360767
    -0.01362656      0.02763282      0.02932459
     0.04300860      0.02102048     -0.07617700
    -0.50271337     -0.35181628      0.72475244
     0.09530996     -0.07867167      0.07099038
    -0.10135256      0.18348200      0.10526365
vibration 96
    -0.02762886     -0.01451143     -0.07013491
     0.00395600      0.00074378     -0.01107193
    -0.00168278     -0.00056501     -0.00110344
     0.00005768      0.00051211     -0.00027924
     0.00020152      0.00012118      0.00016654
     0.00016846      0.00052244      0.00039390
     0.00006339     -0.00010419      0.00007447
     0.00003694     -0.00006424      0.00002788
     0.00007027     -0.00007478      0.00018795
     0.00058995     -0.00049090      0.00021357
     0.00399712      0.00193723     -0.00343879
    -0.00261824      0.00115540     -0.00655447
     0.00413054     -0.01657895      0.02820575
     0.00066807     -0.00062110      0.00022651
     0.00032312      0.00013984      0.00038334
     0.32729970      0.16903592      0.83226204
    -0.04436490     -0.00344522      0.13649544
     0.00022582      0.00018312      0.00004038
    -0.00081531      0.00858309     -0.00099047
     0.00235585     -0.01666005      0.00653261
     0.03135235      0.00322023      0.07322614
    -0.13957622      0.11280282     -0.07489285
     0.08846974      0.08626158     -0.25822746
    -0.00113377      0.00046029     -0.00129880
     0.00023847      0.00015039     -0.00052648
    -0.00045987     -0.00020823      0.00177731
    -0.00364747     -0.00241192     -0.00195800
    -0.05075170     -0.02937500      0.03096245
     0.00074198     -0.00165993     -0.00051138
    -0.00000373      0.00000375     -0.00002023
    -0.00651564      0.00804132     -0.00566668
    -0.00474835      0.01201742      0.01193119
     0.00486042      0.00239557     -0.00852555
    -0.05656931     -0.03954918      0.08154986
     0.01031675     -0.00864692      0.00763290
    -0.01111336      0.02022804      0.01151420
vibration 97
    -0.00780044     -0.00429309     -0.01992228
     0.00379104      0.00062553     -0.01193826
    -0.00049461     -0.00022151     -0.00027793
    -0.00011709     -0.00018033     -0.00034458
     0.00004395      0.00008995      0.00002225
     0.00002952      0.00019310      0.00013618
     0.00001819      0.00001408      0.00002920
     0.00013688      0.00010511      0.00014350
    -0.00235396     -0.00093734      0.00156648
     0.00132385     -0.00739377      0.00641369
    -0.00281295     -0.00108534      0.00035785
    -0.01381748      0.02307862     -0.03438439
    -0.00934515      0.03907546     -0.06670443
     0.00024234      0.00137763     -0.00094574
     0.00011123     -0.00019519      0.00070382
     0.09417504      0.04717622      0.23766158
    -0.04390804     -0.00697479      0.14748339
     0.02016816      0.01173445      0.00008986
    -0.00497076      0.07464066     -0.00780587
     0.02389722     -0.29701236      0.11168075
     0.13928693      0.01732051      0.30104324
     0.32911575     -0.26377207      0.17758778
    -0.21169254     -0.20651102      0.61524254
    -0.00035148     -0.00022304      0.00034034
     0.00823734     -0.00079438     -0.01880356
    -0.00942696      0.01480489     -0.06853336
    -0.00059986     -0.00194457      0.00078501
     0.02111341      0.01340078     -0.01313980
    -0.00088360      0.00161227     -0.00032009
     0.00005142      0.00001230      0.00006727
     0.01107845     -0.01386502      0.00992365
     0.00206070     -0.00650153     -0.00548656
     0.00019070      0.00012414     -0.00050845
    -0.00320526     -0.00225785      0.00441549
     0.00158777     -0.00096139      0.00127277
    -0.00083668      0.00169970      0.00100638
vibration 98
     0.00103786      0.00038162      0.00271494
    -0.00050000     -0.00007522      0.00148228
     0.00001559      0.00018279     -0.00011854
     0.00006643     -0.00003307      0.00004918
    -0.00000858      0.00029652     -0.00029904
    -0.00001983      0.00006886     -0.00010498
     0.00001018      0.00003053     -0.00003622
    -0.00001678      0.00001211     -0.00003607
    -0.01000030     -0.00323495      0.00615674
     0.01084027     -0.06980667      0.06160960
     0.00104785      0.00054320     -0.00053734
     0.00148401     -0.00232413      0.00368220
     0.00091987     -0.00410343      0.00705497
    -0.00005528     -0.00017250      0.00012630
     0.00000511      0.00003920     -0.00009232
    -0.01217924     -0.00589318     -0.03033036
     0.00542260      0.00084633     -0.01801506
     0.07973347      0.04600583      0.00043594
    -0.04502961      0.69194902     -0.07227746
    -0.00238287      0.03011735     -0.01137627
    -0.01511367     -0.00188572     -0.03275904
    -0.03424739      0.02746455     -0.01846553
     0.02253122      0.02195585     -0.06545351
     0.00340265     -0.00336722      0.00701173
     0.03532250     -0.00427367     -0.08024472
    -0.08994458      0.14386707     -0.66928683
     0.00653292     -0.01102875      0.01401257
    -0.01106387     -0.00657749      0.00699799
     0.00009438     -0.00018620      0.00004979
     0.00000027      0.00000542     -0.00000915
    -0.00130050      0.00167789     -0.00115763
    -0.00017254      0.00060637      0.00054039
    -0.00007969     -0.00007956      0.00017775
     0.00123215      0.00084074     -0.00171935
    -0.00040903      0.00031896     -0.00033119
     0.00013835     -0.00026675     -0.00009977
vibration 99
    -0.00013174     -0.00003188     -0.00028941
     0.00024476      0.00005405     -0.00038858
    -0.00002711     -0.00016514     -0.00014095
    -0.00001258      0.00003152      0.00023994
     0.00001177      0.00006303     -0.00002189
    -0.00002407      0.00012659      0.00004300
    -0.00029667     -0.00006448      0.00014036
    -0.00011487     -0.00013740      0.00001895
     0.07637727      0.02510596     -0.04922427
     0.00157582     -0.00914445      0.00828510
    -0.00005442     -0.00005336      0.00004978
    -0.00021091      0.00033294     -0.00052580
    -0.00013214      0.00070516     -0.00123116
     0.00002123      0.00002361     -0.00002709
    -0.00001605     -0.00000505      0.00001200
     0.00143886      0.00075121      0.00385549
    -0.00107350     -0.00042050      0.00310415
    -0.61057373     -0.35166237     -0.00365513
    -0.00602637      0.09094095     -0.00942941
     0.00028886     -0.00424835      0.00162424
     0.00215793      0.00024775      0.00462753
     0.00570098     -0.00458872      0.00307280
    -0.00398729     -0.00387362      0.01162006
    -0.01616804      0.02154510     -0.04383571
    -0.27723282      0.03342648      0.62976909
    -0.01201498      0.01931119     -0.08942732
    -0.00077994     -0.00235576      0.00106931
     0.00065179      0.00044387     -0.00045023
    -0.00001753      0.00006436     -0.00002221
    -0.00000749     -0.00001019      0.00000872
     0.00031957     -0.00052072      0.00032672
     0.00006124     -0.00016348     -0.00014951
     0.00015161      0.00017295     -0.00033420
    -0.00237840     -0.00157450      0.00332125
     0.00069813     -0.00064247      0.00060129
    -0.00014131      0.00026563      0.00000369
vibration 100
    -0.00210480     -0.00074420     -0.00546873
     0.00092887      0.00086189     -0.00217539
    -0.00080064     -0.00036329      0.00043644
     0.00002171      0.00017182     -0.00001896
     0.00027323      0.00024913     -0.00007444
     0.00012498     -0.00000190     -0.00014802
     0.00003427     -0.00007958      0.00001444
     0.00000346     -0.00005158     -0.00001290
    -0.00005436     -0.00000307      0.00030899
     0.00038144     -0.00085461      0.00066867
    -0.06399630     -0.03888744      0.04097672
     0.00194319     -0.01021158      0.00427298
     0.00249973     -0.00100536     -0.00015407
     0.00126068      0.00072206     -0.00013833
    -0.00034136     -0.00015929     -0.00027213
     0.02449275      0.01073110      0.06297336
    -0.00738683     -0.00095465      0.02399685
     0.00011774     -0.00001308      0.00002550
    -0.00085394      0.01020637     -0.00100924
    -0.01224538      0.11904692     -0.04275496
    -0.00757520     -0.00096761     -0.01088470
    -0.01771934      0.01453963     -0.01004985
    -0.00225339     -0.00248638      0.00835725
    -0.00079001      0.00033912     -0.00085404
     0.00123041     -0.00018891     -0.00270273
    -0.00068424      0.00112821     -0.00617508
    -0.00170212     -0.00130292     -0.00080930
     0.73784262      0.44969678     -0.47261497
     0.00015986     -0.00012971     -0.00007304
    -0.00006187     -0.00004110      0.00000946
    -0.00108831      0.00096083     -0.00088040
    -0.00060168      0.00088742      0.00084694
     0.00023338      0.00012733     -0.00021294
    -0.00218898     -0.00153471      0.00307096
    -0.00025566      0.00019455     -0.00035902
    -0.00008068      0.00015829      0.00001223
vibration 101
    -0.00006025     -0.00001398     -0.00013844
     0.00006475      0.00001007      0.00002717
    -0.00010813     -0.00006613     -0.00007453
    -0.00029887     -0.00101846     -0.00069453
     0.00005587      0.00000972      0.00001782
     0.00003544      0.00005506      0.00003123
     0.00026372     -0.00004664      0.00026014
     0.00019985      0.00037599      0.00037214
    -0.05337930      0.01233635     -0.07722582
     0.00024896      0.00045390      0.00011672
    -0.00012925     -0.00008443      0.00007754
    -0.00002110     -0.00002701     -0.00004076
     0.00001034      0.00000416     -0.00001210
    -0.00000213     -0.00003030     -0.00000710
     0.00000709      0.00000977      0.00000500
     0.00066142      0.00041690      0.00168777
    -0.00020297      0.00029717      0.00057138
     0.24107925      0.14477989     -0.02032013
     0.00032494     -0.00334190      0.00035092
    -0.00003065      0.00031199     -0.00011681
     0.00027319      0.00002557      0.00061056
    -0.00002517      0.00003167     -0.00001824
    -0.00004710     -0.00006205      0.00013403
     0.55253375     -0.30011771      0.62717316
    -0.16253994      0.01453886      0.31009004
     0.00005062      0.00005856     -0.00010728
    -0.00340773     -0.00199611     -0.00168417
     0.00149142      0.00094788     -0.00098878
     0.00005324     -0.00011709     -0.00004212
    -0.00000750      0.00000836      0.00000220
    -0.00041486      0.00065388     -0.00028942
    -0.00019744      0.00065378      0.00086830
     0.00009593     -0.00004322     -0.00007266
    -0.00048089     -0.00035674      0.00071575
    -0.00027674      0.00026736     -0.00027485
    -0.00027146      0.00056525      0.00042974
vibration 102
    -0.00000662      0.00004559     -0.00005367
     0.00001472     -0.00000707     -0.00003274
     0.00051408     -0.00074393     -0.00086478
     0.00003409     -0.00000619     -0.00002080
     0.00020930      0.00023192      0.00020339
    -0.00009403      0.00035511      0.00040325
    -0.00001265     -0.00000424      0.00000925
    -0.00001234      0.00000036      0.00000332
    -0.00009168      0.00013102     -0.00050018
    -0.06042927     -0.05324224     -0.04962437
    -0.00006479     -0.00004331      0.00004898
    -0.00001994     -0.00004651     -0.00003599
     0.00002433     -0.00000909     -0.00000098
     0.00001615     -0.00000461     -0.00000093
    -0.00000510      0.00001101      0.00000407
     0.00020258      0.00036634      0.00132794
    -0.00015324      0.00002863      0.00041982
    -0.00032759     -0.00014151     -0.00007230
    -0.03182636      0.29432515     -0.04951439
    -0.00011341      0.00062674     -0.00022155
     0.00025150     -0.00000746      0.00061334
    -0.00024415      0.00021617     -0.00014012
    -0.00005872     -0.00006971      0.00018406
     0.00276615     -0.00145300      0.00305516
    -0.00133203      0.00019860      0.00286026
     0.03069338     -0.08444933      0.29621508
     0.71274536      0.42270187      0.34412706
     0.00055678      0.00030612     -0.00044894
     0.00002133     -0.00003132     -0.00001145
    -0.00000727     -0.00000159      0.00000033
    -0.00014861      0.00020309     -0.00010808
    -0.00004807      0.00018619      0.00022037
     0.00003504     -0.00000033     -0.00002396
    -0.00021901     -0.00015859      0.00031377
    -0.00009428      0.00008170     -0.00010570
    -0.00004554      0.00009986      0.00006173
[INT]
    0.409239
    0.927914
    1.404210
    4.180918
    2.006403
    3.324499
    1.932870
    2.828473
    0.505563
    1.173299
    0.129009
    0.381796
    3.293653
    1.243403
    3.106075
    4.572644
    4.456295
    6.517505
    0.779994
   26.026938
    3.025006
    8.197878
    0.479483
   12.103548
   19.094295
   16.091263
    0.900188
    4.291167
    3.773659
    2.299208
    3.135702
    7.511772
   18.014417
    1.822777
    5.355318
    4.940481
   13.750460
   18.052533
   32.912849
    1.629478
   27.250877
   11.404801
    5.041599
   42.888133
   16.788293
   29.492788
   47.573367
  121.444673
   81.410962
   36.017255
    3.847950
   30.277185
  200.712619
  179.098630
  129.576738
   42.986407
   10.602594
  150.608989
   76.191017
   17.573825
    7.010241
   12.671411
   11.956619
    5.477759
   11.369692
   12.391506
    3.764627
   96.022958
   38.503678
    5.891642
   13.841001
   12.436870
    1.592927
    7.406403
   11.926053
    4.355401
    3.970858
   15.429913
    5.892959
    6.967076
    8.338626
   13.472853
   61.056505
  386.731237
   53.149461
   98.535941
   39.496013
   33.557025
   39.046773
   25.990445
   28.806135
    3.560476
    8.679684
    4.671648
   29.541733
    4.515218
   27.879806
   24.633369
   14.754964
   23.373969
   15.015965
   14.391718

======= END OF MOLDEN-FORMATTED INPUT FILE =======


        *************************************************************
        *                                                           *
        *  Thank you very much for using Q-Chem.  Have a nice day.  *
        *                                                           *
        *************************************************************


