r0213.ten.osc.edu 10.25.156
Q-Chem Developer Version! Running on 10.25.156.*
                  Welcome to Q-Chem
     A Quantum Leap Into The Future Of Chemistry


 Q-Chem 5.0, Q-Chem, Inc., Pleasanton, CA (2017)

 Yihan Shao,  Zhengting Gan,  E. Epifanovsky,  A. T. B. Gilbert,  M. Wormit,  
 J. Kussmann,  A. W. Lange,  A. Behn,  Jia Deng,  Xintian Feng,  D. Ghosh,  
 M. Goldey,  P. R. Horn,  L. D. Jacobson,  I. Kaliman,  T. Kus,  A. Landau,  
 Jie Liu,  E. I. Proynov,  R. M. Richard,  R. P. Steele,  E. J. Sundstrom,  
 H. L. Woodcock III,  P. M. Zimmerman,  D. Zuev,  B. Albrecht,  E. Alguire,  
 S. A. Baeppler,  Z. Benda,  Y. A. Bernard,  E. J. Berquist,  K. B. Bravaya,  
 D. Casanova,  Chun-Min Chang,  Yunqing Chen,  A. Chien,  K. D. Closser,  
 M. P. Coons,  S. Dasgupta,  M. Diedenhofen,  Hainam Do,  R. G. Edgar,  
 Po-Tung Fang,  S. Fatehi,  Qingguo Feng,  Qinghui Ge,  A. Ghysels,  
 J. Gomes,  J. Gonthier,  A. Gunina,  M. W. D. Hanson-Heine,  
 P. H. P. Harbach,  A. W. Hauser,  J. E. Herr,  E. G. Hohenstein,  
 Z. C. Holden,  Kerwin Hui,  T.-C. Jagau,  Hyunjun Ji,  B. Kaduk,  
 K. Khistyaev,  Jaehoon Kim,  P. Klunzinger,  K. Koh,  D. Kosenkov,  
 T. Kowalczyk,  C. M. Krauter,  A. Kunitsa,  Ka Un Lao,  A. Laurent,  
 K. V. Lawler,  Joonho Lee,  D. Lefrancois,  S. Lehtola,  D. S. Levine,  
 Yi-Pei Li,  You-Sheng Lin,  Fenglai Liu,  E. Livshits,  A. Luenser,  
 P. Manohar,  E. Mansoor,  S. F. Manzer,  Shan-Ping Mao,  Yuezhi Mao,  
 N. Mardirossian,  A. V. Marenich,  L. A. Martinez-Martinez,  S. A. Maurer,  
 N. J. Mayhall,  S. C. McKenzie,  J.-M. Mewes,  A. F. Morrison,  K. Nanda,  
 T. S. Nguyen-Beck,  R. Olivares-Amaya,  J. A. Parkhill,  T. M. Perrine,  
 F. Plasser,  S. Prager,  A. Prociuk,  D. R. Rehn,  F. Rob,  M. Schneider,  
 N. Sergueev,  S. M. Sharada,  S. Sharma,  D. W. Small,  T. Stauch,  
 T. Stein,  Yu-Chuan Su,  A. J. W. Thom,  T. Tsuchimochi,  L. Vogt,  
 O. Vydrov,  M. A. Watson,  J. Wenzel,  M. de Wergifosse,  T. A. Wesolowski,  
 A. White,  J. Witte,  A. Yamada,  Jun Yang,  K. Yao,  S. Yeganeh,  
 S. R. Yost,  Zhi-Qiang You,  A. Zech,  Igor Ying Zhang,  Xing Zhang,  
 Yan Zhao,  Ying Zhu,  B. R. Brooks,  G. K. L. Chan,  C. J. Cramer,  
 M. S. Gordon,  W. J. Hehre,  A. Klamt,  M. W. Schmidt,  C. D. Sherrill,  
 D. G. Truhlar,  A. Aspuru-Guzik,  R. Baer,  A. T. Bell,  N. A. Besley,  
 Jeng-Da Chai,  A. Dreuw,  B. D. Dunietz,  T. R. Furlani,  Chao-Ping Hsu,  
 Yousung Jung,  Jing Kong,  D. S. Lambrecht,  WanZhen Liang,  C. Ochsenfeld,  
 V. A. Rassolov,  L. V. Slipchenko,  J. E. Subotnik,  T. Van Voorhis,  
 J. M. Herbert,  A. I. Krylov,  P. M. W. Gill,  M. Head-Gordon

 Contributors to earlier versions of Q-Chem not listed above: 
 R. D. Adamson,  B. Austin,  J. Baker,  G. J. O. Beran,  K. Brandhorst,  
 S. T. Brown,  E. F. C. Byrd,  A. K. Chakraborty,  C.-L. Cheng,  
 Siu Hung Chien,  D. M. Chipman,  D. L. Crittenden,  H. Dachsel,  
 R. A. DiStasio Jr.,  R. J. Doerksen,  A. D. Dutoi,  L. Fusti-Molnar,  
 W. A. Goddard III,  A. Golubeva-Zadorozhnaya,  S. R. Gwaltney,  G. Hawkins,  
 A. Heyden,  S. Hirata,  G. Kedziora,  F. J. Keil,  C. Kelley,  Jihan Kim,  
 R. A. King,  R. Z. Khaliullin,  P. P. Korambath,  W. Kurlancheek,  
 A. M. Lee,  M. S. Lee,  S. V. Levchenko,  Ching Yeh Lin,  D. Liotard,  
 R. C. Lochan,  I. Lotan,  P. E. Maslen,  N. Nair,  D. P. O'Neill,  
 D. Neuhauser,  E. Neuscamman,  C. M. Oana,  R. Olson,  B. Peters,  
 R. Peverati,  P. A. Pieniazek,  Y. M. Rhee,  J. Ritchie,  M. A. Rohrdanz,  
 E. Rosta,  N. J. Russ,  H. F. Schaefer III,  N. E. Schultz,  N. Shenvi,  
 A. C. Simmonett,  A. Sodt,  D. Stuck,  K. S. Thanthiriwatte,  V. Vanovschi,  
 Tao Wang,  A. Warshel,  C. F. Williams,  Q. Wu,  X. Xu,  W. Zhang

 Please cite Q-Chem as follows:
 Y. Shao et al., Mol. Phys. 113, 184-215 (2015)
 DOI: 10.1080/00268976.2014.952696

 Q-Chem 5.0.1 for Intel X86 EM64T Linux

 Parts of Q-Chem use Armadillo 5.200.1 (Boston Tea Smuggler).
 http://arma.sourceforge.net/

 Q-Chem begins on Tue Oct 24 09:21:18 2017  

Host: r0213.ten.osc.edu
0

     Scratch files written to /tmp/pbstmp.1324380/01//
Processing $rem in /users/PAS0291/osu6415/.qchemrc.
molden_format             true

Checking the input file for inconsistencies... 	...done.

--------------------------------------------------------------
User input:
--------------------------------------------------------------
$molecule
0 1
C -0.86945419 1.06311381 0.42951370
C 0.27247162 -0.01469160 0.59448057
C -2.23577405 0.62193269 -0.06119123
C 0.02692502 -1.42951274 0.07619637
O -3.02484812 0.28728806 0.98423644
O -2.61965032 0.65055298 -1.20331422
O -1.27821836 -1.72648881 -0.04119651
O 0.89642800 -2.23801671 -0.14239886
C -1.59548019 -3.04744541 -0.51754830
C -4.34382404 -0.17385549 0.65190302
C -0.19666950 2.07961906 -0.54007719
C 0.70860331 3.00216800 0.28784500
C 1.81462288 1.99501443 0.70856836
C 1.44491763 0.73532720 -0.13266122
O 0.75492661 1.28479501 -1.26440731
H -1.04278188 1.52181714 1.40427374
H 0.51247826 -0.15104205 1.65141353
H -1.20574037 -3.80186529 0.16698085
H -4.28795947 -1.05464387 0.00991525
H 1.11044348 3.79735788 -0.34237041
H 0.19118491 3.46261895 1.13213558
H 2.81031935 2.34518115 0.43494043
H 1.82583590 1.78181969 1.77791090
H -2.68152417 -3.08677055 -0.55725364
H -1.17052648 -3.20185986 -1.50972161
H -4.90726184 0.60651731 0.13763212
H -4.81414374 -0.42259184 1.60092900
H -0.88134342 2.54982019 -1.23993788
C 2.65563460 -0.04889834 -0.59387490
O 3.32738608 -0.50890253 0.56618667
H 3.30121357 0.62839786 -1.17266153
H 2.36330725 -0.88197186 -1.23554074
C 4.27096699 -1.52720292 0.28864184
H 4.73679215 -1.79957773 1.23619563
H 5.04959376 -1.17474412 -0.40311532
H 3.77861781 -2.40830867 -0.14056280
$end

$rem
sym_ignore      true
jobtype         ts
method          b3lyp
basis           6-311++G(d,p)
dft_d           d3_op
mem_total       62000
MEM_STATIC      4000
ao2mo_disk      350000
max_scf_cycles  200
geom_opt_max_cycles 1000
geom_opt_tol_displacement 1
GEOM_OPT_TOL_GRADIENT       1
GEOM_OPT_TOL_ENERGY         1
$end

--------------------------------------------------------------
 Adding empirical dispersion correction 
 ----------------------------------------------------------------
 Doing -D3(op) with
 s6 =   1.00000
 s8 =   0.78311
 a1 =   0.30000
 a2 =   4.25000
 n  =  10.00000
 -D3 energy without 3body term =     -0.0402430404 hartrees
 ----------------------------------------------------------------
             Standard Nuclear Orientation (Angstroms)
    I     Atom           X                Y                Z
 ----------------------------------------------------------------
    1      C      -0.8694541900     1.0631138100     0.4295137000
    2      C       0.2724716200    -0.0146916000     0.5944805700
    3      C      -2.2357740500     0.6219326900    -0.0611912300
    4      C       0.0269250200    -1.4295127400     0.0761963700
    5      O      -3.0248481200     0.2872880600     0.9842364400
    6      O      -2.6196503200     0.6505529800    -1.2033142200
    7      O      -1.2782183600    -1.7264888100    -0.0411965100
    8      O       0.8964280000    -2.2380167100    -0.1423988600
    9      C      -1.5954801900    -3.0474454100    -0.5175483000
   10      C      -4.3438240400    -0.1738554900     0.6519030200
   11      C      -0.1966695000     2.0796190600    -0.5400771900
   12      C       0.7086033100     3.0021680000     0.2878450000
   13      C       1.8146228800     1.9950144300     0.7085683600
   14      C       1.4449176300     0.7353272000    -0.1326612200
   15      O       0.7549266100     1.2847950100    -1.2644073100
   16      H      -1.0427818800     1.5218171400     1.4042737400
   17      H       0.5124782600    -0.1510420500     1.6514135300
   18      H      -1.2057403700    -3.8018652900     0.1669808500
   19      H      -4.2879594700    -1.0546438700     0.0099152500
   20      H       1.1104434800     3.7973578800    -0.3423704100
   21      H       0.1911849100     3.4626189500     1.1321355800
   22      H       2.8103193500     2.3451811500     0.4349404300
   23      H       1.8258359000     1.7818196900     1.7779109000
   24      H      -2.6815241700    -3.0867705500    -0.5572536400
   25      H      -1.1705264800    -3.2018598600    -1.5097216100
   26      H      -4.9072618400     0.6065173100     0.1376321200
   27      H      -4.8141437400    -0.4225918400     1.6009290000
   28      H      -0.8813434200     2.5498201900    -1.2399378800
   29      C       2.6556346000    -0.0488983400    -0.5938749000
   30      O       3.3273860800    -0.5089025300     0.5661866700
   31      H       3.3012135700     0.6283978600    -1.1726615300
   32      H       2.3633072500    -0.8819718600    -1.2355407400
   33      C       4.2709669900    -1.5272029200     0.2886418400
   34      H       4.7367921500    -1.7995777300     1.2361956300
   35      H       5.0495937600    -1.1747441200    -0.4031153200
   36      H       3.7786178100    -2.4083086700    -0.1405628000
 ----------------------------------------------------------------
 Nuclear Repulsion Energy =  1515.7786291396 hartrees
 There are       69 alpha and       69 beta electrons
 Requested basis set is 6-311++G(d,p)
 There are 198 shells and 522 basis functions

 Total QAlloc Memory Limit  62000 MB
 Mega-Array Size      3911 MB
 MEM_STATIC part      4000 MB
 A cutoff of  1.0D-11 yielded  15424 shell pairs
 There are    108945 function pairs (    116063 Cartesian)
 
 -------------------------------------------------------
 OpenMP Integral Computing Module                       
 Release: version 1.0, May 2013, Q-Chem Inc. Pittsburgh 
 -------------------------------------------------------
 Integral Job Info:
 Integral job number is                      11
 Integral operator is                         1
 short-range coefficients                     0
 long-range coefficients              100000000
 Omega coefficients                           0
 if combine SR and LR in K                    0
 Integral screening is                        0
 Integral computing path is                   2
 max size of driver memory is            800000
 size of driver memory is                593474
 size of scratch memory is              2361544
 max col of scratch BK array               1296
 max len of scratch array in speh3          155
 max len of scratch index in speh4           18
 max int batch size is                      520
 min int batch size is                       52
 fixed nKL is                                52
 max L of basis functions is                  2
 order of int derivative is                   0
 number of shells is                        198
 number of basis is                         540
 number of cartesian basis is               540
 number of contracted shell pairs         15424
 number of primitive shell pairs          33990
 maxK2 (contraction) of shell pair           36
 max number of K2 of shell pair               1
 max number of CS2 of shell pair           2956
 max number of PS2 of shell pair           4974
 mem total for path MDJ                  195096
 -------------------------------------------------------
 Smallest overlap matrix eigenvalue = 7.53E-07

 Q-Chem warning in module /fs/scratch/osu6415/qchem-kaunlao-vdw/stvman/mkSTV.C, line 281:

 Overlap eigenvalue is smaller than square root of threshold

 Linear dependence detected in AO basis
 Number of orthogonalized atomic orbitals = 521
 Maximum deviation from orthogonality = 1.565E-10

 Scale SEOQF with 1.000000e-01/1.000000e-01/1.000000e-01

 Standard Electronic Orientation quadrupole field applied
 Nucleus-field energy     =     0.0000000462 hartrees
 Guess from superposition of atomic densities
 Warning:  Energy on first SCF cycle will be non-variational
 A restricted hybrid HF-DFT SCF calculation will be
 performed using Pulay DIIS extrapolation
 Exchange:     0.2000 Hartree-Fock + 0.0800 Slater + 0.7200 B88
 Correlation:  0.1900 VWN1RPA + 0.8100 LYP
 Using SG-1 standard quadrature grid
 Dispersion:   Grimme D3
 SCF converges when DIIS error is below 1.0E-08
 using 20 threads for integral computing
 -------------------------------------------------------
 OpenMP Integral computing Module                
 Release: version 1.0, May 2013, Q-Chem Inc. Pittsburgh 
 -------------------------------------------------------
 -------------------------------------------------------
 OpenMP BLAS3 based DFT computing Module                
 Release: version 1.0, May 2013, Q-Chem Inc. Pittsburgh 
 -------------------------------------------------------
 ---------------------------------------
  Cycle       Energy         DIIS Error
 ---------------------------------------
    1    -923.3619658310      2.77E-02
    2    -919.4116591556      3.44E-03
    3    -918.8738038647      5.83E-03
    4    -919.6925773634      1.33E-03
    5    -919.7375770763      3.84E-04
    6    -919.7407226624      1.34E-04
    7    -919.7411497002      3.40E-05
    8    -919.7411781917      9.68E-06
    9    -919.7411807614      2.76E-06
   10    -919.7411809002      1.58E-06
   11    -919.7411809603      3.04E-07
   12    -919.7411809626      1.10E-07
   13    -919.7411809623      3.08E-08
   14    -919.7411809656      1.29E-08
   15    -919.7411809630      3.93E-09 Convergence criterion met
 ---------------------------------------
 SCF time:  CPU 1281.36 s  wall 82.78 s
 SCF   energy in the final basis set = -919.74118096
 Total energy in the final basis set = -919.74118096
 
 --------------------------------------------------------------
 
                    Orbital Energies (a.u.)
 --------------------------------------------------------------
 
 Alpha MOs
 -- Occupied --
-19.179 -19.170 -19.131 -19.124 -19.118 -19.113 -10.312 -10.305
-10.241 -10.233 -10.230 -10.229 -10.214 -10.211 -10.207 -10.203
-10.176 -10.175  -1.123  -1.111  -1.065  -1.036  -1.031  -1.025
 -0.830  -0.789  -0.782  -0.749  -0.730  -0.706  -0.659  -0.641
 -0.605  -0.590  -0.570  -0.558  -0.536  -0.522  -0.506  -0.494
 -0.489  -0.489  -0.483  -0.479  -0.476  -0.465  -0.457  -0.441
 -0.429  -0.421  -0.418  -0.413  -0.399  -0.391  -0.374  -0.372
 -0.368  -0.359  -0.354  -0.351  -0.339  -0.330  -0.324  -0.320
 -0.309  -0.289  -0.280  -0.276  -0.260
 -- Virtual --
 -0.018  -0.009  -0.008  -0.000   0.001   0.010   0.012   0.020
  0.024   0.029   0.030   0.037   0.039   0.043   0.043   0.050
  0.055   0.059   0.061   0.064   0.078   0.079   0.083   0.085
  0.089   0.096   0.098   0.104   0.105   0.110   0.111   0.117
  0.118   0.121   0.122   0.123   0.129   0.131   0.134   0.136
  0.139   0.139   0.143   0.145   0.147   0.148   0.151   0.156
  0.160   0.163   0.164   0.166   0.168   0.168   0.171   0.175
  0.180   0.180   0.187   0.187   0.191   0.195   0.200   0.202
  0.205   0.209   0.216   0.219   0.222   0.226   0.229   0.236
  0.240   0.245   0.248   0.249   0.258   0.262   0.263   0.269
  0.275   0.278   0.279   0.284   0.289   0.294   0.298   0.300
  0.303   0.308   0.310   0.321   0.322   0.327   0.328   0.332
  0.339   0.342   0.346   0.349   0.350   0.357   0.359   0.361
  0.368   0.369   0.374   0.381   0.383   0.384   0.388   0.393
  0.394   0.405   0.408   0.414   0.422   0.433   0.440   0.452
  0.453   0.455   0.461   0.469   0.481   0.490   0.493   0.500
  0.513   0.514   0.521   0.530   0.546   0.554   0.556   0.562
  0.577   0.582   0.588   0.597   0.604   0.614   0.623   0.627
  0.631   0.643   0.647   0.648   0.661   0.663   0.668   0.672
  0.675   0.687   0.690   0.699   0.703   0.706   0.710   0.719
  0.724   0.731   0.738   0.741   0.744   0.753   0.755   0.761
  0.769   0.773   0.781   0.788   0.796   0.799   0.808   0.826
  0.829   0.846   0.870   0.886   0.898   0.912   0.941   0.967
  0.986   0.993   1.009   1.023   1.036   1.046   1.054   1.069
  1.078   1.083   1.097   1.113   1.117   1.134   1.141   1.167
  1.186   1.198   1.208   1.208   1.222   1.229   1.247   1.257
  1.268   1.270   1.283   1.296   1.315   1.326   1.339   1.347
  1.352   1.368   1.381   1.392   1.401   1.403   1.409   1.421
  1.436   1.443   1.451   1.466   1.469   1.484   1.491   1.497
  1.515   1.530   1.543   1.557   1.563   1.567   1.576   1.578
  1.579   1.585   1.599   1.612   1.615   1.625   1.632   1.636
  1.642   1.653   1.657   1.668   1.678   1.703   1.710   1.716
  1.718   1.722   1.734   1.739   1.745   1.748   1.766   1.773
  1.786   1.791   1.797   1.812   1.827   1.834   1.847   1.856
  1.866   1.878   1.890   1.899   1.901   1.915   1.934   1.947
  1.958   1.967   1.973   1.991   2.002   2.025   2.047   2.053
  2.064   2.088   2.096   2.110   2.117   2.125   2.127   2.140
  2.148   2.169   2.182   2.197   2.211   2.218   2.236   2.245
  2.255   2.288   2.324   2.329   2.354   2.373   2.387   2.426
  2.450   2.452   2.464   2.473   2.492   2.494   2.506   2.512
  2.518   2.526   2.527   2.539   2.542   2.556   2.559   2.581
  2.592   2.602   2.620   2.621   2.661   2.667   2.678   2.685
  2.705   2.731   2.755   2.771   2.785   2.803   2.816   2.841
  2.854   2.859   2.875   2.879   2.897   2.900   2.918   2.925
  2.932   2.948   2.964   2.980   3.001   3.022   3.032   3.043
  3.052   3.057   3.073   3.082   3.094   3.116   3.125   3.130
  3.133   3.158   3.176   3.194   3.211   3.224   3.233   3.243
  3.248   3.286   3.290   3.318   3.330   3.367   3.383   3.395
  3.402   3.459   3.588   3.605   3.623   3.670   3.682   3.742
  3.776   3.780   3.792   3.822   3.840   3.848   3.875   3.917
  3.950   3.999   4.050   4.064   4.098   4.116   4.127   4.136
  4.144   4.168   4.181   4.232   4.256   4.287   4.437   4.497
  5.027   5.075   5.101   5.137   5.150   5.218   5.283   5.301
  5.418   5.436   5.459   5.518   5.607   5.639   5.657   5.721
  5.884   5.918  23.786  23.829  23.850  23.863  23.891  23.905
 23.932  23.938  23.943  23.961  23.974  24.046  49.909  49.937
 49.975  50.002  50.037  50.045
 --------------------------------------------------------------
 
          Ground-State Mulliken Net Atomic Charges

     Atom                 Charge (a.u.)
  ----------------------------------------
      1 C                     0.050735
      2 C                    -0.294730
      3 C                    -0.455295
      4 C                    -0.486393
      5 O                     0.029016
      6 O                    -0.187334
      7 O                    -0.088043
      8 O                    -0.204972
      9 C                    -0.217485
     10 C                    -0.153297
     11 C                     0.089594
     12 C                    -0.631612
     13 C                    -0.168801
     14 C                    -0.460055
     15 O                    -0.026437
     16 H                     0.279962
     17 H                     0.241907
     18 H                     0.186153
     19 H                     0.172514
     20 H                     0.183675
     21 H                     0.126835
     22 H                     0.172475
     23 H                     0.197480
     24 H                     0.125690
     25 H                     0.196117
     26 H                     0.171305
     27 H                     0.155451
     28 H                     0.297657
     29 C                     0.190170
     30 O                    -0.049930
     31 H                     0.163936
     32 H                     0.203664
     33 C                    -0.230690
     34 H                     0.141166
     35 H                     0.127501
     36 H                     0.152071
  ----------------------------------------
  Sum of atomic charges =    -0.000000

 -----------------------------------------------------------------
                    Cartesian Multipole Moments
 -----------------------------------------------------------------
    Charge (ESU x 10^10)
                -0.0000
    Dipole Moment (Debye)
         X      -1.2871      Y      -0.3393      Z       2.1407
       Tot       2.5208
    Quadrupole Moments (Debye-Ang)
        XX     -97.3403     XY       5.6178     YY     -99.1788
        XZ      -5.4919     YZ       3.7072     ZZ    -112.4858
    Octopole Moments (Debye-Ang^2)
       XXX     -36.3410    XXY     -29.3466    XYY     -21.4170
       YYY     -14.8793    XXZ       5.7185    XYZ      -4.7423
       YYZ      -4.9339    XZZ       2.7077    YZZ     -11.7414
       ZZZ       5.1788
    Hexadecapole Moments (Debye-Ang^3)
      XXXX   -3240.8351   XXXY     -23.6456   XXYY    -861.0494
      XYYY      47.3447   YYYY   -1785.6311   XXXZ     -86.5634
      XXYZ     -13.4356   XYYZ      18.2279   YYYZ     -26.0698
      XXZZ    -703.1203   XYZZ      -0.8147   YYZZ    -373.3579
      XZZZ       3.9116   YZZZ     -15.0513   ZZZZ    -433.2571
 -----------------------------------------------------------------
 Calculating analytic gradient of the SCF energy
 Gradient of SCF Energy
            1           2           3           4           5           6
    1   0.0000244  -0.0001725   0.0002167   0.0000203  -0.0000144  -0.0001556
    2   0.0003650  -0.0002412  -0.0006708  -0.0000343   0.0000068   0.0004349
    3  -0.0005519   0.0003551   0.0000657   0.0001417   0.0000001   0.0000998
            7           8           9          10          11          12
    1   0.0000165  -0.0000126  -0.0000011   0.0000131   0.0000097  -0.0000400
    2   0.0000098   0.0000433   0.0000069  -0.0000034  -0.0000050   0.0000360
    3  -0.0000355  -0.0001198  -0.0000058  -0.0000011   0.0000442   0.0000095
           13          14          15          16          17          18
    1   0.0000604   0.0000342  -0.0000036   0.0000231   0.0000157  -0.0000015
    2  -0.0000491  -0.0000162   0.0000355  -0.0000262   0.0000758   0.0000035
    3   0.0000065   0.0000601  -0.0000187   0.0000199  -0.0000079  -0.0000232
           19          20          21          22          23          24
    1  -0.0000015   0.0000016   0.0000172   0.0000032  -0.0000090  -0.0000064
    2   0.0000079  -0.0000079  -0.0000028  -0.0000102   0.0000013   0.0000087
    3   0.0000061   0.0000185   0.0000256   0.0000289   0.0000089  -0.0000105
           25          26          27          28          29          30
    1  -0.0000127  -0.0000011   0.0000026  -0.0000004  -0.0000364   0.0000246
    2   0.0000136   0.0000059  -0.0000084   0.0000112   0.0000031   0.0000280
    3  -0.0000176   0.0000263   0.0000122   0.0000238  -0.0000100  -0.0000338
           31          32          33          34          35          36
    1  -0.0000085   0.0000073  -0.0000057  -0.0000006  -0.0000012  -0.0000056
    2   0.0000145   0.0000084  -0.0000361  -0.0000128   0.0000019   0.0000022
    3  -0.0000079  -0.0000284  -0.0000214  -0.0000220  -0.0000156  -0.0000219
 Max gradient component =       6.708E-04
 RMS gradient           =       1.161E-04
 Gradient time:  CPU 420.66 s  wall 31.87 s
 Geometry Optimization Parameters
   NAtoms,    NIC,     NZ,  NCons,   NDum,   NFix, NCnnct, MaxDiis
       36     276       0       0       0       0       0       0


** GEOMETRY OPTIMIZATION IN DELOCALIZED INTERNAL COORDINATES **
   Searching for a Transition State

   Optimization Cycle:   1

                       Coordinates (Angstroms)
     ATOM                X               Y               Z
      1  C        -0.8694541900    1.0631138100    0.4295137000
      2  C         0.2724716200   -0.0146916000    0.5944805700
      3  C        -2.2357740500    0.6219326900   -0.0611912300
      4  C         0.0269250200   -1.4295127400    0.0761963700
      5  O        -3.0248481200    0.2872880600    0.9842364400
      6  O        -2.6196503200    0.6505529800   -1.2033142200
      7  O        -1.2782183600   -1.7264888100   -0.0411965100
      8  O         0.8964280000   -2.2380167100   -0.1423988600
      9  C        -1.5954801900   -3.0474454100   -0.5175483000
     10  C        -4.3438240400   -0.1738554900    0.6519030200
     11  C        -0.1966695000    2.0796190600   -0.5400771900
     12  C         0.7086033100    3.0021680000    0.2878450000
     13  C         1.8146228800    1.9950144300    0.7085683600
     14  C         1.4449176300    0.7353272000   -0.1326612200
     15  O         0.7549266100    1.2847950100   -1.2644073100
     16  H        -1.0427818800    1.5218171400    1.4042737400
     17  H         0.5124782600   -0.1510420500    1.6514135300
     18  H        -1.2057403700   -3.8018652900    0.1669808500
     19  H        -4.2879594700   -1.0546438700    0.0099152500
     20  H         1.1104434800    3.7973578800   -0.3423704100
     21  H         0.1911849100    3.4626189500    1.1321355800
     22  H         2.8103193500    2.3451811500    0.4349404300
     23  H         1.8258359000    1.7818196900    1.7779109000
     24  H        -2.6815241700   -3.0867705500   -0.5572536400
     25  H        -1.1705264800   -3.2018598600   -1.5097216100
     26  H        -4.9072618400    0.6065173100    0.1376321200
     27  H        -4.8141437400   -0.4225918400    1.6009290000
     28  H        -0.8813434200    2.5498201900   -1.2399378800
     29  C         2.6556346000   -0.0488983400   -0.5938749000
     30  O         3.3273860800   -0.5089025300    0.5661866700
     31  H         3.3012135700    0.6283978600   -1.1726615300
     32  H         2.3633072500   -0.8819718600   -1.2355407400
     33  C         4.2709669900   -1.5272029200    0.2886418400
     34  H         4.7367921500   -1.7995777300    1.2361956300
     35  H         5.0495937600   -1.1747441200   -0.4031153200
     36  H         3.7786178100   -2.4083086700   -0.1405628000
   Point Group: c1    Number of degrees of freedom:   102


   Energy is   -919.741180963


 Attempting to Generate Delocalized Internal Coordinates

102 Hessian modes will be used to form the next step
  Hessian Eigenvalues:
     0.003193    0.005655    0.006888    0.007181    0.007267    0.010005
     0.010405    0.010778    0.010851    0.013364    0.013564    0.022012
     0.022783    0.023100    0.026016    0.032795    0.035814    0.037102
     0.040726    0.043950    0.048512    0.048749    0.051763    0.054807
     0.055615    0.057014    0.057089    0.062148    0.063501    0.064541
     0.066058    0.074687    0.082030    0.092547    0.098146    0.100765
     0.101209    0.101431    0.105257    0.105870    0.106144    0.106621
     0.109760    0.119795    0.122261    0.135743    0.154748    0.160000
     0.160000    0.160000    0.160000    0.160000    0.160000    0.160000
     0.160000    0.160000    0.173187    0.219930    0.231581    0.233577
     0.249360    0.249675    0.250000    0.250000    0.250000    0.250000
     0.250000    0.250690    0.253771    0.264548    0.281406    0.297359
     0.306261    0.309073    0.336572    0.336785    0.337317    0.340384
     0.345386    0.345773    0.346488    0.346564    0.346608    0.346637
     0.346801    0.347319    0.347550    0.347612    0.347629    0.347702
     0.347736    0.350460    0.351054    0.352640    0.396382    0.401051
     0.428772    0.431088    0.546261    0.563964    1.012539    1.022292
**WARNING** Hessian does not have the Desired Local Structure

 Transition State Search - Taking P-RFO Step
 Searching for Lamda that Maximizes Along the Lowest mode
 Value Taken    Lamda =   0.00319340
 Searching for Lamda that Minimizes Along All other modes
 Value Taken    Lamda =  -0.00002978
 Calculated Step too Large.  Step scaled by  0.001151
 Step Taken.  Stepsize is  0.300000

                             Maximum     Tolerance    Cnvgd?
         Gradient           0.000272      0.000001      NO
         Displacement       0.095474      0.000001      NO
         Energy change     *********      0.000000      NO


 New Cartesian Coordinates Obtained by Inverse Iteration

 Displacement from previous Coordinates is:  0.909768
 Adding empirical dispersion correction 
 ----------------------------------------------------------------
 Doing -D3(op) with
 s6 =   1.00000
 s8 =   0.78311
 a1 =   0.30000
 a2 =   4.25000
 n  =  10.00000
 -D3 energy without 3body term =     -0.0403649721 hartrees
 ----------------------------------------------------------------
             Standard Nuclear Orientation (Angstroms)
    I     Atom           X                Y                Z
 ----------------------------------------------------------------
    1      C      -0.8787319646     1.0796357047     0.4359576974
    2      C       0.2728161082     0.0143490643     0.6156209286
    3      C      -2.2246407901     0.6270736551    -0.0988125667
    4      C       0.0337523151    -1.4143128734     0.1335376320
    5      O      -3.0377540425     0.2670874167     0.9194215341
    6      O      -2.5769770282     0.6666426723    -1.2507320692
    7      O      -1.2700317233    -1.7223924792     0.0305361457
    8      O       0.9073323324    -2.2223883469    -0.0698584927
    9      C      -1.5811979587    -3.0566479803    -0.4115388630
   10      C      -4.3404616165    -0.2070475306     0.5439945551
   11      C      -0.1941707355     2.1163429414    -0.5017340009
   12      C       0.7185628096     3.0089692579     0.3525046464
   13      C       1.8452965460     2.0001185842     0.7097475931
   14      C       1.4409489909     0.7530267978    -0.1320936843
   15      O       0.7441812711     1.3263565502    -1.2478760254
   16      H      -1.0855016283     1.5220837896     1.4117109372
   17      H       0.5189379268    -0.0961138986     1.6741689683
   18      H      -1.1829679833    -3.7915240743     0.2891726759
   19      H      -4.2545661148    -1.0778445682    -0.1082261234
   20      H       1.1005017891     3.8371415471    -0.2468510283
   21      H       0.2107594977     3.4250181186     1.2252031105
   22      H       2.8260140160     2.3574051007     0.3944064271
   23      H       1.9072602286     1.7726208223     1.7743961143
   24      H      -2.6671570152    -3.1038550246    -0.4443858324
   25      H      -1.1604710056    -3.2326814604    -1.4019117275
   26      H      -4.9001520025     0.5728495616     0.0249322974
   27      H      -4.8334861381    -0.4754832940     1.4759761818
   28      H      -0.8743483510     2.6126412830    -1.1878235294
   29      C       2.6313069555    -0.0458102864    -0.6204282310
   30      O       3.3163798468    -0.5245859707     0.5241440733
   31      H       3.2767629607     0.6260476301    -1.2056544949
   32      H       2.3151015491    -0.8695380361    -1.2628366163
   33      C       4.2393687971    -1.5548321107     0.2224886430
   34      H       4.7176647533    -1.8413087536     1.1596137203
   35      H       5.0109171975    -1.2089127823    -0.4804108583
   36      H       3.7262192469    -2.4251800071    -0.2042944080
 ----------------------------------------------------------------
 Nuclear Repulsion Energy =  1517.0584984094 hartrees
 There are       69 alpha and       69 beta electrons
 Applying Cartesian multipole field
    Component          Value
    ---------          -----
     (2,0,0)        1.00000E-11
     (0,2,0)        2.00000E-11
     (0,0,2)       -3.00000E-11
 Nucleus-field energy     =     0.0000000465 hartrees
 Requested basis set is 6-311++G(d,p)
 There are 198 shells and 522 basis functions
 A cutoff of  1.0D-11 yielded  15449 shell pairs
 There are    109087 function pairs (    116199 Cartesian)
 Smallest overlap matrix eigenvalue = 7.48E-07

 Q-Chem warning in module /fs/scratch/osu6415/qchem-kaunlao-vdw/stvman/mkSTV.C, line 281:

 Overlap eigenvalue is smaller than square root of threshold

 Linear dependence detected in AO basis
 Number of orthogonalized atomic orbitals = 521
 Maximum deviation from orthogonality = 1.628E-10
 Guess MOs from SCF MO coefficient file
 Reading MOs from coefficient file
 Reading MOs from coefficient file
 A restricted hybrid HF-DFT SCF calculation will be
 performed using Pulay DIIS extrapolation
 Exchange:     0.2000 Hartree-Fock + 0.0800 Slater + 0.7200 B88
 Correlation:  0.1900 VWN1RPA + 0.8100 LYP
 Using SG-1 standard quadrature grid
 Dispersion:   Grimme D3
 SCF converges when DIIS error is below 1.0E-08
 Geometry optimization detected.  Setting ReadMinima to 0
 Setting SaveMinima to 0
 using 20 threads for integral computing
 -------------------------------------------------------
 OpenMP Integral computing Module                
 Release: version 1.0, May 2013, Q-Chem Inc. Pittsburgh 
 -------------------------------------------------------
 -------------------------------------------------------
 OpenMP BLAS3 based DFT computing Module                
 Release: version 1.0, May 2013, Q-Chem Inc. Pittsburgh 
 -------------------------------------------------------
 ---------------------------------------
  Cycle       Energy         DIIS Error
 ---------------------------------------
    1    -919.7442979803      9.48E-04
    2    -919.7405576877      1.12E-04
    3    -919.7405489446      1.25E-04
    4    -919.7409344773      3.90E-05
    5    -919.7409647555      1.55E-05
    6    -919.7409705966      4.34E-06
    7    -919.7409709645      2.02E-06
    8    -919.7409710647      3.99E-07
    9    -919.7409710691      1.14E-07
   10    -919.7409710682      3.64E-08
   11    -919.7409710668      1.32E-08
   12    -919.7409710674      5.50E-09 Convergence criterion met
 ---------------------------------------
 SCF time:  CPU 1052.56 s  wall 67.31 s
 SCF   energy in the final basis set = -919.74097107
 Total energy in the final basis set = -919.74097107
 
 --------------------------------------------------------------
 
                    Orbital Energies (a.u.)
 --------------------------------------------------------------
 
 Alpha MOs
 -- Occupied --
-19.179 -19.170 -19.131 -19.123 -19.118 -19.113 -10.312 -10.305
-10.241 -10.234 -10.230 -10.229 -10.214 -10.212 -10.206 -10.203
-10.176 -10.175  -1.123  -1.111  -1.065  -1.036  -1.030  -1.025
 -0.830  -0.789  -0.782  -0.749  -0.730  -0.706  -0.659  -0.640
 -0.605  -0.590  -0.570  -0.558  -0.536  -0.522  -0.506  -0.494
 -0.490  -0.489  -0.483  -0.479  -0.475  -0.465  -0.457  -0.441
 -0.429  -0.421  -0.418  -0.413  -0.399  -0.391  -0.374  -0.372
 -0.368  -0.359  -0.354  -0.351  -0.339  -0.330  -0.324  -0.320
 -0.308  -0.289  -0.280  -0.275  -0.259
 -- Virtual --
 -0.018  -0.010  -0.008  -0.000   0.001   0.011   0.012   0.020
  0.024   0.028   0.030   0.037   0.040   0.042   0.044   0.050
  0.055   0.059   0.061   0.064   0.077   0.079   0.082   0.086
  0.089   0.096   0.100   0.103   0.105   0.110   0.112   0.117
  0.118   0.121   0.122   0.124   0.129   0.130   0.135   0.136
  0.139   0.139   0.142   0.145   0.148   0.148   0.151   0.157
  0.160   0.163   0.164   0.166   0.168   0.168   0.172   0.176
  0.180   0.181   0.187   0.188   0.192   0.194   0.201   0.203
  0.205   0.209   0.216   0.220   0.223   0.226   0.229   0.236
  0.239   0.244   0.248   0.251   0.257   0.262   0.263   0.268
  0.275   0.277   0.279   0.284   0.290   0.294   0.297   0.300
  0.301   0.309   0.310   0.321   0.322   0.326   0.329   0.332
  0.340   0.342   0.346   0.348   0.351   0.357   0.358   0.361
  0.368   0.370   0.376   0.381   0.383   0.384   0.390   0.392
  0.395   0.404   0.408   0.417   0.423   0.433   0.438   0.452
  0.453   0.458   0.464   0.468   0.481   0.493   0.494   0.502
  0.511   0.515   0.520   0.530   0.546   0.553   0.556   0.564
  0.578   0.581   0.588   0.597   0.606   0.613   0.622   0.627
  0.629   0.643   0.647   0.648   0.661   0.664   0.669   0.674
  0.674   0.686   0.689   0.698   0.703   0.706   0.712   0.718
  0.724   0.730   0.739   0.741   0.744   0.750   0.756   0.763
  0.769   0.773   0.780   0.789   0.797   0.801   0.807   0.827
  0.830   0.845   0.871   0.889   0.899   0.912   0.944   0.967
  0.983   0.993   1.008   1.022   1.034   1.049   1.054   1.070
  1.078   1.087   1.096   1.113   1.120   1.132   1.145   1.167
  1.186   1.196   1.205   1.209   1.223   1.225   1.250   1.261
  1.267   1.269   1.287   1.302   1.314   1.326   1.339   1.348
  1.351   1.366   1.379   1.395   1.403   1.404   1.410   1.425
  1.436   1.444   1.454   1.468   1.474   1.487   1.495   1.498
  1.513   1.530   1.542   1.558   1.564   1.568   1.573   1.578
  1.579   1.584   1.597   1.613   1.614   1.625   1.630   1.636
  1.640   1.655   1.662   1.667   1.679   1.701   1.709   1.715
  1.719   1.721   1.734   1.735   1.743   1.749   1.768   1.775
  1.784   1.790   1.799   1.813   1.830   1.837   1.848   1.857
  1.867   1.878   1.888   1.897   1.901   1.915   1.938   1.946
  1.957   1.967   1.974   1.994   2.002   2.023   2.047   2.054
  2.066   2.088   2.098   2.108   2.117   2.127   2.128   2.139
  2.152   2.173   2.181   2.197   2.205   2.218   2.235   2.245
  2.256   2.284   2.323   2.329   2.351   2.374   2.388   2.428
  2.450   2.453   2.462   2.475   2.492   2.495   2.506   2.512
  2.520   2.527   2.527   2.540   2.543   2.554   2.560   2.583
  2.592   2.604   2.616   2.624   2.663   2.666   2.679   2.684
  2.705   2.732   2.758   2.770   2.785   2.808   2.813   2.839
  2.852   2.860   2.876   2.879   2.897   2.901   2.922   2.925
  2.939   2.947   2.968   2.983   2.999   3.023   3.029   3.042
  3.052   3.055   3.074   3.084   3.096   3.113   3.123   3.125
  3.135   3.162   3.179   3.194   3.214   3.227   3.235   3.243
  3.249   3.287   3.291   3.306   3.329   3.366   3.384   3.394
  3.398   3.458   3.587   3.605   3.622   3.668   3.682   3.737
  3.776   3.779   3.793   3.822   3.841   3.849   3.874   3.917
  3.952   4.001   4.048   4.063   4.103   4.115   4.127   4.136
  4.145   4.167   4.180   4.232   4.257   4.284   4.439   4.498
  5.030   5.074   5.102   5.138   5.152   5.216   5.286   5.302
  5.418   5.436   5.459   5.517   5.610   5.638   5.657   5.722
  5.885   5.918  23.786  23.829  23.850  23.863  23.890  23.905
 23.933  23.938  23.944  23.963  23.977  24.046  49.909  49.938
 49.977  50.000  50.036  50.046
 --------------------------------------------------------------
 
          Ground-State Mulliken Net Atomic Charges

     Atom                 Charge (a.u.)
  ----------------------------------------
      1 C                     0.114195
      2 C                    -0.273367
      3 C                    -0.487607
      4 C                    -0.464908
      5 O                     0.032655
      6 O                    -0.184821
      7 O                    -0.093159
      8 O                    -0.204533
      9 C                    -0.213632
     10 C                    -0.158751
     11 C                     0.068957
     12 C                    -0.614017
     13 C                    -0.179686
     14 C                    -0.492548
     15 O                    -0.024786
     16 H                     0.283009
     17 H                     0.243760
     18 H                     0.185821
     19 H                     0.174127
     20 H                     0.185534
     21 H                     0.122565
     22 H                     0.171806
     23 H                     0.194508
     24 H                     0.124174
     25 H                     0.195875
     26 H                     0.171764
     27 H                     0.155486
     28 H                     0.294880
     29 C                     0.165793
     30 O                    -0.047760
     31 H                     0.164590
     32 H                     0.202412
     33 C                    -0.232741
     34 H                     0.141025
     35 H                     0.126948
     36 H                     0.152432
  ----------------------------------------
  Sum of atomic charges =    -0.000000

 -----------------------------------------------------------------
                    Cartesian Multipole Moments
 -----------------------------------------------------------------
    Charge (ESU x 10^10)
                -0.0000
    Dipole Moment (Debye)
         X      -1.3336      Y      -0.3867      Z       2.1548
       Tot       2.5634
    Quadrupole Moments (Debye-Ang)
        XX     -97.5283     XY       5.7020     YY     -98.9762
        XZ      -5.4758     YZ       3.9500     ZZ    -112.6274
    Octopole Moments (Debye-Ang^2)
       XXX     -39.1315    XXY     -29.7045    XYY     -21.4781
       YYY     -16.6887    XXZ       3.1211    XYZ      -3.8898
       YYZ      -4.6272    XZZ       3.7989    YZZ     -12.1958
       ZZZ       5.4150
    Hexadecapole Moments (Debye-Ang^3)
      XXXX   -3223.8612   XXXY     -23.6812   XXYY    -859.3984
      XYYY      43.4272   YYYY   -1799.1754   XXXZ     -82.6223
      XXYZ     -10.7322   XYYZ      14.6230   YYYZ     -20.8950
      XXZZ    -699.3559   XYZZ      -1.9741   YYZZ    -375.8272
      XZZZ      -0.6134   YZZZ      -7.4616   ZZZZ    -422.9159
 -----------------------------------------------------------------
 Calculating analytic gradient of the SCF energy
 Gradient of SCF Energy
            1           2           3           4           5           6
    1  -0.0002304   0.0000909   0.0003840  -0.0002654   0.0006517  -0.0003488
    2  -0.0004041   0.0004242  -0.0005455   0.0003142  -0.0008167   0.0008668
    3  -0.0017873   0.0017237  -0.0003167  -0.0000537   0.0000164   0.0002564
            7           8           9          10          11          12
    1   0.0000271   0.0005225  -0.0001317  -0.0002365   0.0006937  -0.0005923
    2   0.0001442   0.0000943  -0.0000089  -0.0001391   0.0012178  -0.0006583
    3   0.0004778  -0.0000032   0.0000011  -0.0000940  -0.0003678   0.0007073
           13          14          15          16          17          18
    1   0.0008669  -0.0009030  -0.0001425  -0.0000191  -0.0000257   0.0000363
    2   0.0004835  -0.0010184   0.0000786  -0.0000697   0.0001716   0.0000304
    3  -0.0005668  -0.0001124  -0.0006052   0.0000741   0.0001480   0.0000223
           19          20          21          22          23          24
    1   0.0000162  -0.0000173   0.0000072  -0.0000158   0.0001053  -0.0000312
    2  -0.0000499  -0.0000152   0.0000694  -0.0000685   0.0000337   0.0000758
    3   0.0000742  -0.0000213   0.0002249   0.0001830   0.0000449  -0.0000727
           25          26          27          28          29          30
    1  -0.0000375   0.0000309   0.0000085  -0.0000677  -0.0001605  -0.0003979
    2   0.0000711   0.0000381  -0.0000112  -0.0000784  -0.0000076  -0.0002687
    3  -0.0000114   0.0000445  -0.0000128   0.0000974  -0.0002897   0.0001889
           31          32          33          34          35          36
    1   0.0000174   0.0000535   0.0001128   0.0000150  -0.0000436   0.0000269
    2   0.0000674   0.0001633  -0.0000832  -0.0000113  -0.0000221  -0.0000676
    3   0.0000462   0.0001537   0.0000272  -0.0000157  -0.0000215  -0.0001595
 Max gradient component =       1.787E-03
 RMS gradient           =       4.039E-04
 Gradient time:  CPU 420.11 s  wall 31.60 s
 Geometry Optimization Parameters
   NAtoms,    NIC,     NZ,  NCons,   NDum,   NFix, NCnnct, MaxDiis
       36     276       0       0       0       0       0       0

 Cartesian Hessian Update
 Hessian Updated using Powell/Murtagh-Sargent Update
  Mixing factors:     0.000018 Powell
                      0.999982 Murtagh-Sargent


** GEOMETRY OPTIMIZATION IN DELOCALIZED INTERNAL COORDINATES **
   Searching for a Transition State

   Optimization Cycle:   2

                       Coordinates (Angstroms)
     ATOM                X               Y               Z
      1  C        -0.8787319646    1.0796357047    0.4359576974
      2  C         0.2728161082    0.0143490643    0.6156209286
      3  C        -2.2246407901    0.6270736551   -0.0988125667
      4  C         0.0337523151   -1.4143128734    0.1335376320
      5  O        -3.0377540425    0.2670874167    0.9194215341
      6  O        -2.5769770282    0.6666426723   -1.2507320692
      7  O        -1.2700317233   -1.7223924792    0.0305361457
      8  O         0.9073323324   -2.2223883469   -0.0698584927
      9  C        -1.5811979587   -3.0566479803   -0.4115388630
     10  C        -4.3404616165   -0.2070475306    0.5439945551
     11  C        -0.1941707355    2.1163429414   -0.5017340009
     12  C         0.7185628096    3.0089692579    0.3525046464
     13  C         1.8452965460    2.0001185842    0.7097475931
     14  C         1.4409489909    0.7530267978   -0.1320936843
     15  O         0.7441812711    1.3263565502   -1.2478760254
     16  H        -1.0855016283    1.5220837896    1.4117109372
     17  H         0.5189379268   -0.0961138986    1.6741689683
     18  H        -1.1829679833   -3.7915240743    0.2891726759
     19  H        -4.2545661148   -1.0778445682   -0.1082261234
     20  H         1.1005017891    3.8371415471   -0.2468510283
     21  H         0.2107594977    3.4250181186    1.2252031105
     22  H         2.8260140160    2.3574051007    0.3944064271
     23  H         1.9072602286    1.7726208223    1.7743961143
     24  H        -2.6671570152   -3.1038550246   -0.4443858324
     25  H        -1.1604710056   -3.2326814604   -1.4019117275
     26  H        -4.9001520025    0.5728495616    0.0249322974
     27  H        -4.8334861381   -0.4754832940    1.4759761818
     28  H        -0.8743483510    2.6126412830   -1.1878235294
     29  C         2.6313069555   -0.0458102864   -0.6204282310
     30  O         3.3163798468   -0.5245859707    0.5241440733
     31  H         3.2767629607    0.6260476301   -1.2056544949
     32  H         2.3151015491   -0.8695380361   -1.2628366163
     33  C         4.2393687971   -1.5548321107    0.2224886430
     34  H         4.7176647533   -1.8413087536    1.1596137203
     35  H         5.0109171975   -1.2089127823   -0.4804108583
     36  H         3.7262192469   -2.4251800071   -0.2042944080
   Point Group: c1    Number of degrees of freedom:   102


   Energy is   -919.740971067

 Hessian Updated using Powell/Murtagh-Sargent Update
  Mixing factors:     0.994054 Powell
                      0.005946 Murtagh-Sargent

102 Hessian modes will be used to form the next step
  Hessian Eigenvalues:
    -0.000751    0.005691    0.007137    0.007236    0.009400    0.010187
     0.010407    0.010850    0.012155    0.013387    0.013577    0.022029
     0.022784    0.023108    0.026019    0.032795    0.035823    0.037304
     0.040728    0.044037    0.048620    0.048752    0.051763    0.054807
     0.055674    0.057035    0.057312    0.062149    0.063519    0.064567
     0.066060    0.074723    0.082050    0.092552    0.098151    0.100767
     0.101210    0.101431    0.105258    0.105870    0.106146    0.106652
     0.109760    0.119796    0.122336    0.135749    0.154785    0.160000
     0.160000    0.160000    0.160000    0.160000    0.160000    0.160000
     0.160000    0.160006    0.173251    0.219930    0.231718    0.233638
     0.249361    0.249709    0.250000    0.250000    0.250000    0.250000
     0.250176    0.250706    0.253796    0.264549    0.281406    0.297428
     0.306265    0.309076    0.336572    0.336790    0.337317    0.340385
     0.345388    0.345777    0.346494    0.346564    0.346608    0.346637
     0.346801    0.347319    0.347562    0.347612    0.347629    0.347703
     0.347736    0.350460    0.351054    0.352641    0.396383    0.401057
     0.428774    0.431093    0.546261    0.563965    1.012548    1.022293

 Transition State Search - Taking P-RFO Step
 Searching for Lamda that Maximizes Along the Lowest mode
 Value Taken    Lamda =   0.00011482
 Searching for Lamda that Minimizes Along All other modes
 Value Taken    Lamda =  -0.00049007
 Calculated Step too Large.  Step scaled by  0.730241
 Step Taken.  Stepsize is  0.300000

                             Maximum     Tolerance    Cnvgd?
         Gradient           0.001780      0.000001      NO
         Displacement       0.096046      0.000001      NO
         Energy change      0.000210      0.000000      NO


 New Cartesian Coordinates Obtained by Inverse Iteration

 Displacement from previous Coordinates is:  0.799792
 Adding empirical dispersion correction 
 ----------------------------------------------------------------
 Doing -D3(op) with
 s6 =   1.00000
 s8 =   0.78311
 a1 =   0.30000
 a2 =   4.25000
 n  =  10.00000
 -D3 energy without 3body term =     -0.0403558280 hartrees
 ----------------------------------------------------------------
             Standard Nuclear Orientation (Angstroms)
    I     Atom           X                Y                Z
 ----------------------------------------------------------------
    1      C      -0.8683506425     1.0742739200     0.4292288360
    2      C       0.2719037189    -0.0044811222     0.5950685672
    3      C      -2.2334768359     0.6336524227    -0.0651217430
    4      C       0.0227752399    -1.4187920925     0.0779843283
    5      O      -3.0163434534     0.2722153971     0.9760363221
    6      O      -2.6142373425     0.6599986747    -1.2083409878
    7      O      -1.2834653980    -1.7147316929    -0.0296592811
    8      O       0.8903905830    -2.2301038543    -0.1379643823
    9      C      -1.6059657108    -3.0366816426    -0.4996270530
   10      C      -4.3273600037    -0.2074064838     0.6380480245
   11      C      -0.1928723857     2.0913128077    -0.5385088638
   12      C       0.7155567221     3.0100525619     0.2903141941
   13      C       1.8189951598     1.9994009658     0.7094578119
   14      C       1.4450706854     0.7419493492    -0.1334345700
   15      O       0.7561258415     1.2947431540    -1.2643852914
   16      H      -1.0427367797     1.5320507069     1.4042581963
   17      H       0.5115959525    -0.1414973281     1.6520555299
   18      H      -1.2134702794    -3.7894855895     0.1851224760
   19      H      -4.2564840833    -1.0799037816    -0.0137148372
   20      H       1.1199227731     3.8036549439    -0.3403018535
   21      H       0.2004656309     3.4726417671     1.1349557055
   22      H       2.8161781638     2.3469171395     0.4379648020
   23      H       1.8282002971     1.7839999971     1.7783931304
   24      H      -2.6923067558    -3.0740247740    -0.5328049792
   25      H      -1.1872397586    -3.1950751096    -1.4938123383
   26      H      -4.9037548651     0.5691268228     0.1323909505
   27      H      -4.7935632690    -0.4747206704     1.5840350888
   28      H      -0.8767527645     2.5639768616    -1.2374628774
   29      C       2.6526315095    -0.0465231936    -0.5954929084
   30      O       3.3173482915    -0.5180915850     0.5640261314
   31      H       3.3040346012     0.6300802243    -1.1685396086
   32      H       2.3571541207    -0.8742868276    -1.2424036889
   33      C       4.2571082742    -1.5389702172     0.2827303650
   34      H       4.7175130799    -1.8209678843     1.2301222522
   35      H       5.0404147220    -1.1850276182    -0.4029396291
   36      H       3.7624640011    -2.4143252290    -0.1556124893
 ----------------------------------------------------------------
 Nuclear Repulsion Energy =  1516.8482726928 hartrees
 There are       69 alpha and       69 beta electrons
 Applying Cartesian multipole field
    Component          Value
    ---------          -----
     (2,0,0)        1.00000E-11
     (0,2,0)        2.00000E-11
     (0,0,2)       -3.00000E-11
 Nucleus-field energy     =     0.0000000462 hartrees
 Requested basis set is 6-311++G(d,p)
 There are 198 shells and 522 basis functions
 A cutoff of  1.0D-11 yielded  15436 shell pairs
 There are    109046 function pairs (    116165 Cartesian)
 Smallest overlap matrix eigenvalue = 7.53E-07

 Q-Chem warning in module /fs/scratch/osu6415/qchem-kaunlao-vdw/stvman/mkSTV.C, line 281:

 Overlap eigenvalue is smaller than square root of threshold

 Linear dependence detected in AO basis
 Number of orthogonalized atomic orbitals = 521
 Maximum deviation from orthogonality = 1.728E-10
 Guess MOs from SCF MO coefficient file
 Reading MOs from coefficient file
 Reading MOs from coefficient file
 A restricted hybrid HF-DFT SCF calculation will be
 performed using Pulay DIIS extrapolation
 Exchange:     0.2000 Hartree-Fock + 0.0800 Slater + 0.7200 B88
 Correlation:  0.1900 VWN1RPA + 0.8100 LYP
 Using SG-1 standard quadrature grid
 Dispersion:   Grimme D3
 SCF converges when DIIS error is below 1.0E-08
 Geometry optimization detected.  Setting ReadMinima to 0
 Setting SaveMinima to 0
 using 20 threads for integral computing
 -------------------------------------------------------
 OpenMP Integral computing Module                
 Release: version 1.0, May 2013, Q-Chem Inc. Pittsburgh 
 -------------------------------------------------------
 -------------------------------------------------------
 OpenMP BLAS3 based DFT computing Module                
 Release: version 1.0, May 2013, Q-Chem Inc. Pittsburgh 
 -------------------------------------------------------
 ---------------------------------------
  Cycle       Energy         DIIS Error
 ---------------------------------------
    1    -919.7314237578      8.86E-04
    2    -919.7406924253      1.13E-04
    3    -919.7406636204      1.26E-04
    4    -919.7410894087      3.04E-05
    5    -919.7411077340      1.23E-05
    6    -919.7411112315      3.99E-06
    7    -919.7411115343      2.00E-06
    8    -919.7411116276      4.35E-07
    9    -919.7411116325      1.13E-07
   10    -919.7411116334      4.25E-08
   11    -919.7411116349      1.42E-08
   12    -919.7411116328      6.85E-09 Convergence criterion met
 ---------------------------------------
 SCF time:  CPU 1056.14 s  wall 66.90 s
 SCF   energy in the final basis set = -919.74111163
 Total energy in the final basis set = -919.74111163
 
 --------------------------------------------------------------
 
                    Orbital Energies (a.u.)
 --------------------------------------------------------------
 
 Alpha MOs
 -- Occupied --
-19.178 -19.170 -19.131 -19.124 -19.118 -19.113 -10.312 -10.305
-10.241 -10.233 -10.230 -10.229 -10.214 -10.211 -10.207 -10.203
-10.176 -10.175  -1.123  -1.111  -1.065  -1.036  -1.031  -1.025
 -0.830  -0.789  -0.782  -0.749  -0.730  -0.706  -0.659  -0.641
 -0.605  -0.590  -0.570  -0.558  -0.536  -0.522  -0.506  -0.494
 -0.489  -0.489  -0.483  -0.479  -0.475  -0.465  -0.457  -0.441
 -0.429  -0.421  -0.418  -0.413  -0.399  -0.392  -0.374  -0.372
 -0.368  -0.359  -0.354  -0.351  -0.339  -0.330  -0.324  -0.320
 -0.308  -0.289  -0.280  -0.276  -0.260
 -- Virtual --
 -0.018  -0.009  -0.008  -0.001   0.001   0.010   0.012   0.020
  0.024   0.029   0.030   0.038   0.040   0.043   0.044   0.050
  0.055   0.059   0.061   0.064   0.078   0.078   0.083   0.085
  0.089   0.096   0.099   0.104   0.105   0.110   0.111   0.117
  0.118   0.121   0.122   0.123   0.129   0.131   0.134   0.136
  0.139   0.139   0.143   0.145   0.147   0.148   0.151   0.157
  0.160   0.163   0.164   0.166   0.168   0.168   0.171   0.175
  0.180   0.181   0.187   0.187   0.191   0.195   0.201   0.203
  0.205   0.209   0.216   0.220   0.223   0.226   0.229   0.236
  0.239   0.245   0.248   0.249   0.258   0.262   0.263   0.269
  0.276   0.278   0.279   0.283   0.289   0.294   0.298   0.300
  0.303   0.308   0.310   0.321   0.322   0.327   0.328   0.331
  0.339   0.342   0.346   0.349   0.350   0.357   0.359   0.361
  0.368   0.369   0.375   0.381   0.383   0.384   0.389   0.393
  0.395   0.405   0.407   0.415   0.423   0.433   0.440   0.452
  0.453   0.456   0.462   0.469   0.481   0.490   0.493   0.501
  0.512   0.514   0.521   0.529   0.547   0.554   0.556   0.562
  0.577   0.582   0.589   0.597   0.604   0.614   0.622   0.627
  0.631   0.643   0.647   0.648   0.662   0.664   0.668   0.673
  0.675   0.687   0.690   0.699   0.703   0.706   0.710   0.719
  0.724   0.731   0.739   0.741   0.744   0.753   0.754   0.761
  0.769   0.774   0.781   0.788   0.797   0.799   0.808   0.826
  0.829   0.846   0.871   0.886   0.899   0.913   0.940   0.967
  0.986   0.994   1.009   1.023   1.036   1.047   1.054   1.069
  1.079   1.084   1.097   1.113   1.118   1.136   1.142   1.168
  1.185   1.197   1.207   1.209   1.222   1.229   1.248   1.258
  1.268   1.272   1.283   1.297   1.315   1.328   1.338   1.348
  1.351   1.369   1.382   1.391   1.401   1.404   1.409   1.423
  1.436   1.444   1.452   1.467   1.472   1.484   1.492   1.498
  1.514   1.530   1.543   1.558   1.564   1.567   1.576   1.578
  1.580   1.585   1.599   1.612   1.615   1.625   1.632   1.636
  1.641   1.654   1.657   1.668   1.678   1.703   1.710   1.716
  1.718   1.722   1.734   1.739   1.746   1.749   1.766   1.773
  1.785   1.791   1.797   1.812   1.828   1.834   1.848   1.857
  1.867   1.878   1.890   1.898   1.901   1.915   1.933   1.948
  1.958   1.968   1.973   1.992   2.002   2.024   2.048   2.054
  2.064   2.088   2.096   2.110   2.118   2.125   2.127   2.141
  2.148   2.169   2.182   2.197   2.212   2.218   2.236   2.245
  2.255   2.287   2.325   2.330   2.354   2.373   2.388   2.427
  2.450   2.454   2.464   2.474   2.492   2.494   2.506   2.512
  2.519   2.526   2.527   2.539   2.543   2.556   2.560   2.582
  2.593   2.602   2.620   2.622   2.662   2.666   2.679   2.686
  2.706   2.731   2.756   2.771   2.785   2.803   2.816   2.840
  2.854   2.859   2.876   2.879   2.897   2.900   2.918   2.926
  2.932   2.947   2.965   2.981   3.001   3.023   3.032   3.043
  3.052   3.058   3.073   3.083   3.094   3.115   3.124   3.129
  3.133   3.158   3.176   3.195   3.211   3.226   3.233   3.243
  3.249   3.286   3.291   3.318   3.330   3.367   3.383   3.395
  3.401   3.459   3.588   3.605   3.623   3.669   3.683   3.741
  3.776   3.780   3.793   3.822   3.841   3.848   3.876   3.917
  3.950   4.000   4.050   4.062   4.099   4.116   4.128   4.136
  4.144   4.168   4.182   4.231   4.256   4.287   4.437   4.497
  5.026   5.077   5.101   5.138   5.151   5.217   5.283   5.302
  5.419   5.436   5.461   5.518   5.608   5.638   5.657   5.721
  5.884   5.918  23.786  23.830  23.850  23.863  23.891  23.905
 23.933  23.938  23.943  23.960  23.974  24.046  49.909  49.939
 49.975  50.002  50.037  50.046
 --------------------------------------------------------------
 
          Ground-State Mulliken Net Atomic Charges

     Atom                 Charge (a.u.)
  ----------------------------------------
      1 C                     0.062855
      2 C                    -0.300525
      3 C                    -0.453254
      4 C                    -0.484163
      5 O                     0.033415
      6 O                    -0.186959
      7 O                    -0.093329
      8 O                    -0.205141
      9 C                    -0.218444
     10 C                    -0.152612
     11 C                     0.080082
     12 C                    -0.630864
     13 C                    -0.169741
     14 C                    -0.460333
     15 O                    -0.026381
     16 H                     0.278924
     17 H                     0.243289
     18 H                     0.186105
     19 H                     0.173586
     20 H                     0.183495
     21 H                     0.127082
     22 H                     0.172259
     23 H                     0.196826
     24 H                     0.123619
     25 H                     0.196438
     26 H                     0.171294
     27 H                     0.156127
     28 H                     0.297176
     29 C                     0.192285
     30 O                    -0.049737
     31 H                     0.163684
     32 H                     0.203539
     33 C                    -0.231286
     34 H                     0.141257
     35 H                     0.127441
     36 H                     0.151993
  ----------------------------------------
  Sum of atomic charges =    -0.000000

 -----------------------------------------------------------------
                    Cartesian Multipole Moments
 -----------------------------------------------------------------
    Charge (ESU x 10^10)
                -0.0000
    Dipole Moment (Debye)
         X      -1.2804      Y      -0.3468      Z       2.1453
       Tot       2.5222
    Quadrupole Moments (Debye-Ang)
        XX     -97.4026     XY       5.7264     YY     -99.1678
        XZ      -5.4782     YZ       3.7314     ZZ    -112.5175
    Octopole Moments (Debye-Ang^2)
       XXX     -35.8478    XXY     -30.0852    XYY     -21.2842
       YYY     -15.4288    XXZ       5.4333    XYZ      -4.6189
       YYZ      -4.6123    XZZ       2.8142    YZZ     -12.0350
       ZZZ       5.2939
    Hexadecapole Moments (Debye-Ang^3)
      XXXX   -3232.1893   XXXY     -24.9653   XXYY    -858.3796
      XYYY      42.1076   YYYY   -1789.5243   XXXZ     -86.1693
      XXYZ     -12.7299   XYYZ      17.3585   YYYZ     -24.0396
      XXZZ    -701.0164   XYZZ      -2.0990   YYZZ    -373.7636
      XZZZ       3.0141   YZZZ     -12.4697   ZZZZ    -431.5779
 -----------------------------------------------------------------
 Calculating analytic gradient of the SCF energy
 Gradient of SCF Energy
            1           2           3           4           5           6
    1   0.0003523   0.0000566  -0.0005631  -0.0000828   0.0005614   0.0001179
    2  -0.0009297  -0.0000374   0.0024417   0.0006491  -0.0013925  -0.0007357
    3  -0.0004975   0.0009217   0.0000188  -0.0010748   0.0000223  -0.0001063
            7           8           9          10          11          12
    1  -0.0002664   0.0001955  -0.0001605  -0.0001482   0.0001148  -0.0001572
    2   0.0003495  -0.0000848  -0.0000400  -0.0001610   0.0002023  -0.0000744
    3   0.0005999   0.0004695  -0.0000154  -0.0000381  -0.0002100   0.0002003
           13          14          15          16          17          18
    1   0.0001970  -0.0001285  -0.0000933   0.0000722   0.0000128   0.0000180
    2   0.0000357  -0.0002556   0.0001488  -0.0000974   0.0000217   0.0000157
    3  -0.0000768  -0.0001112  -0.0001848  -0.0000213   0.0000818  -0.0000083
           19          20          21          22          23          24
    1  -0.0000294   0.0000225   0.0000260   0.0000345  -0.0000504  -0.0000471
    2  -0.0000677  -0.0000743   0.0000877  -0.0000558  -0.0000297   0.0000888
    3   0.0000216  -0.0000195   0.0000511   0.0001178  -0.0000068  -0.0000182
           25          26          27          28          29          30
    1  -0.0000083   0.0000400   0.0000126  -0.0000182   0.0000099  -0.0001537
    2   0.0000563   0.0000501  -0.0000255  -0.0000541   0.0001060  -0.0001317
    3  -0.0000070   0.0000136  -0.0000048   0.0000281  -0.0001666   0.0000531
           31          32          33          34          35          36
    1  -0.0000414   0.0000751   0.0000106   0.0000186  -0.0000154   0.0000154
    2   0.0000615   0.0000549  -0.0000628  -0.0000116  -0.0000143  -0.0000334
    3  -0.0000272   0.0001165  -0.0000033  -0.0000167  -0.0000178  -0.0000837
 Max gradient component =       2.442E-03
 RMS gradient           =       3.634E-04
 Gradient time:  CPU 419.86 s  wall 32.06 s
 Geometry Optimization Parameters
   NAtoms,    NIC,     NZ,  NCons,   NDum,   NFix, NCnnct, MaxDiis
       36     276       0       0       0       0       0       0

 Cartesian Hessian Update
 Hessian Updated using Powell/Murtagh-Sargent Update
  Mixing factors:     0.938017 Powell
                      0.061983 Murtagh-Sargent


** GEOMETRY OPTIMIZATION IN DELOCALIZED INTERNAL COORDINATES **
   Searching for a Transition State

   Optimization Cycle:   3

                       Coordinates (Angstroms)
     ATOM                X               Y               Z
      1  C        -0.8683506425    1.0742739200    0.4292288360
      2  C         0.2719037189   -0.0044811222    0.5950685672
      3  C        -2.2334768359    0.6336524227   -0.0651217430
      4  C         0.0227752399   -1.4187920925    0.0779843283
      5  O        -3.0163434534    0.2722153971    0.9760363221
      6  O        -2.6142373425    0.6599986747   -1.2083409878
      7  O        -1.2834653980   -1.7147316929   -0.0296592811
      8  O         0.8903905830   -2.2301038543   -0.1379643823
      9  C        -1.6059657108   -3.0366816426   -0.4996270530
     10  C        -4.3273600037   -0.2074064838    0.6380480245
     11  C        -0.1928723857    2.0913128077   -0.5385088638
     12  C         0.7155567221    3.0100525619    0.2903141941
     13  C         1.8189951598    1.9994009658    0.7094578119
     14  C         1.4450706854    0.7419493492   -0.1334345700
     15  O         0.7561258415    1.2947431540   -1.2643852914
     16  H        -1.0427367797    1.5320507069    1.4042581963
     17  H         0.5115959525   -0.1414973281    1.6520555299
     18  H        -1.2134702794   -3.7894855895    0.1851224760
     19  H        -4.2564840833   -1.0799037816   -0.0137148372
     20  H         1.1199227731    3.8036549439   -0.3403018535
     21  H         0.2004656309    3.4726417671    1.1349557055
     22  H         2.8161781638    2.3469171395    0.4379648020
     23  H         1.8282002971    1.7839999971    1.7783931304
     24  H        -2.6923067558   -3.0740247740   -0.5328049792
     25  H        -1.1872397586   -3.1950751096   -1.4938123383
     26  H        -4.9037548651    0.5691268228    0.1323909505
     27  H        -4.7935632690   -0.4747206704    1.5840350888
     28  H        -0.8767527645    2.5639768616   -1.2374628774
     29  C         2.6526315095   -0.0465231936   -0.5954929084
     30  O         3.3173482915   -0.5180915850    0.5640261314
     31  H         3.3040346012    0.6300802243   -1.1685396086
     32  H         2.3571541207   -0.8742868276   -1.2424036889
     33  C         4.2571082742   -1.5389702172    0.2827303650
     34  H         4.7175130799   -1.8209678843    1.2301222522
     35  H         5.0404147220   -1.1850276182   -0.4029396291
     36  H         3.7624640011   -2.4143252290   -0.1556124893
   Point Group: c1    Number of degrees of freedom:   102


   Energy is   -919.741111633

 Hessian Updated using Powell/Murtagh-Sargent Update
  Mixing factors:     0.991152 Powell
                      0.008848 Murtagh-Sargent

 94 Hessian modes will be used to form the next step
  Hessian Eigenvalues:
    -0.001026    0.005737    0.007093    0.007218    0.009242    0.010085
     0.010411    0.010863    0.013370    0.013565    0.014070    0.022025
     0.022810    0.023106    0.026085    0.032832    0.035824    0.037328
     0.040738    0.044070    0.048613    0.048761    0.051773    0.054815
     0.055664    0.057041    0.057251    0.062149    0.063517    0.064562
     0.066061    0.074720    0.082067    0.092576    0.098150    0.100766
     0.101210    0.101431    0.105258    0.105870    0.106146    0.106716
     0.109760    0.119811    0.122393    0.135749    0.154971    0.160000
     0.160002    0.160006    0.173248    0.219930    0.231744    0.233648
     0.249363    0.249713    0.250000    0.250024    0.250370    0.250718
     0.253810    0.264551    0.281406    0.297456    0.306267    0.309076
     0.336572    0.336793    0.337317    0.340385    0.345388    0.345777
     0.346494    0.346565    0.346608    0.346637    0.346802    0.347319
     0.347568    0.347612    0.347629    0.347703    0.347736    0.350460
     0.351054    0.352641    0.396383    0.401058    0.428774    0.431093
     0.546264    0.563973    1.012548    1.022294

 Transition State Search - Taking P-RFO Step
 Searching for Lamda that Maximizes Along the Lowest mode
 Value Taken    Lamda =   0.00019235
 Searching for Lamda that Minimizes Along All other modes
 Value Taken    Lamda =  -0.00051928
 Calculated Step too Large.  Step scaled by  0.676879
 Step Taken.  Stepsize is  0.300000

                             Maximum     Tolerance    Cnvgd?
         Gradient           0.003185      0.000001      NO
         Displacement       0.099351      0.000001      NO
         Energy change     -0.000141      0.000000      NO


 New Cartesian Coordinates Obtained by Inverse Iteration

 Displacement from previous Coordinates is:  0.684342
 Adding empirical dispersion correction 
 ----------------------------------------------------------------
 Doing -D3(op) with
 s6 =   1.00000
 s8 =   0.78311
 a1 =   0.30000
 a2 =   4.25000
 n  =  10.00000
 -D3 energy without 3body term =     -0.0402087417 hartrees
 ----------------------------------------------------------------
             Standard Nuclear Orientation (Angstroms)
    I     Atom           X                Y                Z
 ----------------------------------------------------------------
    1      C      -0.8779009526     1.0588694317     0.4439171435
    2      C       0.2737611014    -0.0099213073     0.6101432713
    3      C      -2.2312634944     0.6113853485    -0.0769010942
    4      C       0.0343689458    -1.4342148330     0.1130302486
    5      O      -3.0603135386     0.3239612504     0.9515559281
    6      O      -2.5704328931     0.5862920019    -1.2332169771
    7      O      -1.2688447078    -1.7355238043    -0.0146172880
    8      O       0.9061300350    -2.2459248625    -0.0829700954
    9      C      -1.5768321766    -3.0658156771    -0.4709325923
   10      C      -4.3691155072    -0.1433503800     0.5896309473
   11      C      -0.2012798855     2.0889986457    -0.5063049585
   12      C       0.7067129785     2.9940534969     0.3390732058
   13      C       1.8334764758     1.9905527365     0.7094914886
   14      C       1.4418950544     0.7378477514    -0.1299858988
   15      O       0.7423873478     1.3013123004    -1.2482261639
   16      H      -1.0739866671     1.5082424877     1.4186551237
   17      H       0.5207759458    -0.1308147956     1.6672378679
   18      H      -1.1931018523    -3.8067913839     0.2314173691
   19      H      -4.2956582246    -1.0489228890    -0.0150363351
   20      H       1.0872051874     3.8187683085    -0.2659313519
   21      H       0.1945004438     3.4147654523     1.2067134737
   22      H       2.8138335126     2.3506946714     0.3959740205
   23      H       1.8916337070     1.7692160994     1.7756149151
   24      H      -2.6621998722    -3.1094193616    -0.5223501535
   25      H      -1.1397960719    -3.2369730495    -1.4551061177
   26      H      -4.9085584524     0.6187672242     0.0247309338
   27      H      -4.8752370447    -0.3520972470     1.5298557003
   28      H      -0.8849614158     2.5767477882    -1.1951100751
   29      C       2.6416032757    -0.0503559366    -0.6133082381
   30      O       3.3390538066    -0.5035715922     0.5341009582
   31      H       3.2753134412     0.6239189930    -1.2084686826
   32      H       2.3352718461    -0.8858701495    -1.2455502825
   33      C       4.2754434085    -1.5242847236     0.2422981539
   34      H       4.7633231296    -1.7894067260     1.1807556642
   35      H       5.0377514450    -1.1777611261    -0.4703717791
   36      H       3.7725107088    -2.4084231235    -0.1677429999
 ----------------------------------------------------------------
 Nuclear Repulsion Energy =  1515.4022052545 hartrees
 There are       69 alpha and       69 beta electrons
 Applying Cartesian multipole field
    Component          Value
    ---------          -----
     (2,0,0)        1.00000E-11
     (0,2,0)        2.00000E-11
     (0,0,2)       -3.00000E-11
 Nucleus-field energy     =     0.0000000465 hartrees
 Requested basis set is 6-311++G(d,p)
 There are 198 shells and 522 basis functions
 A cutoff of  1.0D-11 yielded  15426 shell pairs
 There are    108954 function pairs (    116074 Cartesian)
 Smallest overlap matrix eigenvalue = 7.39E-07

 Q-Chem warning in module /fs/scratch/osu6415/qchem-kaunlao-vdw/stvman/mkSTV.C, line 281:

 Overlap eigenvalue is smaller than square root of threshold

 Linear dependence detected in AO basis
 Number of orthogonalized atomic orbitals = 521
 Maximum deviation from orthogonality = 1.995E-10
 Guess MOs from SCF MO coefficient file
 Reading MOs from coefficient file
 Reading MOs from coefficient file
 A restricted hybrid HF-DFT SCF calculation will be
 performed using Pulay DIIS extrapolation
 Exchange:     0.2000 Hartree-Fock + 0.0800 Slater + 0.7200 B88
 Correlation:  0.1900 VWN1RPA + 0.8100 LYP
 Using SG-1 standard quadrature grid
 Dispersion:   Grimme D3
 SCF converges when DIIS error is below 1.0E-08
 Geometry optimization detected.  Setting ReadMinima to 0
 Setting SaveMinima to 0
 using 20 threads for integral computing
 -------------------------------------------------------
 OpenMP Integral computing Module                
 Release: version 1.0, May 2013, Q-Chem Inc. Pittsburgh 
 -------------------------------------------------------
 -------------------------------------------------------
 OpenMP BLAS3 based DFT computing Module                
 Release: version 1.0, May 2013, Q-Chem Inc. Pittsburgh 
 -------------------------------------------------------
 ---------------------------------------
  Cycle       Energy         DIIS Error
 ---------------------------------------
    1    -919.7386608799      8.51E-04
    2    -919.7409180593      7.23E-05
    3    -919.7409967579      6.94E-05
    4    -919.7411067603      2.63E-05
    5    -919.7411221651      7.54E-06
    6    -919.7411229885      5.03E-06
    7    -919.7411235677      1.48E-06
    8    -919.7411236248      2.47E-07
    9    -919.7411236266      7.22E-08
   10    -919.7411236265      3.29E-08
   11    -919.7411236321      1.44E-08
   12    -919.7411236285      5.03E-09 Convergence criterion met
 ---------------------------------------
 SCF time:  CPU 1049.93 s  wall 68.06 s
 SCF   energy in the final basis set = -919.74112363
 Total energy in the final basis set = -919.74112363
 
 --------------------------------------------------------------
 
                    Orbital Energies (a.u.)
 --------------------------------------------------------------
 
 Alpha MOs
 -- Occupied --
-19.178 -19.171 -19.131 -19.124 -19.118 -19.112 -10.312 -10.305
-10.241 -10.233 -10.230 -10.229 -10.214 -10.212 -10.207 -10.203
-10.176 -10.175  -1.123  -1.111  -1.065  -1.036  -1.030  -1.025
 -0.829  -0.790  -0.782  -0.749  -0.729  -0.707  -0.659  -0.641
 -0.604  -0.590  -0.570  -0.558  -0.536  -0.522  -0.506  -0.494
 -0.489  -0.489  -0.483  -0.479  -0.476  -0.465  -0.457  -0.442
 -0.429  -0.421  -0.418  -0.412  -0.399  -0.391  -0.373  -0.372
 -0.368  -0.359  -0.354  -0.352  -0.339  -0.330  -0.324  -0.320
 -0.308  -0.289  -0.280  -0.275  -0.259
 -- Virtual --
 -0.018  -0.009  -0.008  -0.001   0.001   0.010   0.012   0.020
  0.024   0.028   0.030   0.037   0.039   0.042   0.043   0.050
  0.056   0.059   0.061   0.064   0.078   0.079   0.083   0.086
  0.088   0.096   0.099   0.103   0.105   0.110   0.112   0.116
  0.118   0.121   0.122   0.124   0.129   0.131   0.134   0.136
  0.139   0.139   0.143   0.146   0.147   0.149   0.151   0.157
  0.160   0.163   0.164   0.166   0.168   0.168   0.172   0.175
  0.180   0.181   0.187   0.188   0.192   0.195   0.200   0.202
  0.205   0.210   0.216   0.220   0.222   0.226   0.229   0.236
  0.240   0.245   0.249   0.250   0.258   0.261   0.263   0.268
  0.275   0.277   0.279   0.283   0.290   0.294   0.298   0.301
  0.301   0.308   0.311   0.322   0.322   0.327   0.329   0.333
  0.339   0.342   0.346   0.349   0.350   0.357   0.358   0.360
  0.368   0.369   0.375   0.381   0.384   0.385   0.388   0.392
  0.394   0.404   0.408   0.414   0.421   0.432   0.439   0.451
  0.453   0.455   0.462   0.466   0.480   0.491   0.494   0.501
  0.513   0.515   0.521   0.530   0.544   0.553   0.556   0.565
  0.578   0.582   0.588   0.598   0.605   0.612   0.623   0.627
  0.630   0.643   0.646   0.649   0.660   0.663   0.669   0.672
  0.675   0.687   0.691   0.698   0.703   0.706   0.712   0.719
  0.724   0.731   0.738   0.740   0.744   0.753   0.755   0.762
  0.769   0.773   0.781   0.788   0.796   0.800   0.807   0.827
  0.830   0.844   0.869   0.887   0.899   0.911   0.942   0.968
  0.983   0.994   1.006   1.023   1.035   1.048   1.054   1.069
  1.078   1.083   1.095   1.111   1.118   1.131   1.143   1.170
  1.189   1.200   1.205   1.211   1.224   1.230   1.245   1.260
  1.267   1.269   1.285   1.299   1.313   1.325   1.338   1.349
  1.352   1.366   1.378   1.390   1.402   1.404   1.409   1.420
  1.436   1.442   1.449   1.466   1.468   1.485   1.493   1.499
  1.515   1.529   1.541   1.557   1.563   1.567   1.574   1.577
  1.579   1.584   1.598   1.612   1.613   1.625   1.630   1.637
  1.641   1.654   1.660   1.668   1.678   1.703   1.709   1.715
  1.719   1.719   1.735   1.736   1.743   1.748   1.766   1.774
  1.786   1.789   1.799   1.812   1.828   1.837   1.847   1.856
  1.867   1.876   1.890   1.897   1.902   1.913   1.937   1.947
  1.957   1.966   1.971   1.994   2.002   2.025   2.048   2.054
  2.065   2.087   2.098   2.111   2.116   2.126   2.127   2.139
  2.152   2.173   2.182   2.194   2.205   2.215   2.234   2.244
  2.256   2.287   2.319   2.327   2.350   2.372   2.389   2.428
  2.450   2.452   2.464   2.474   2.493   2.496   2.506   2.512
  2.519   2.526   2.527   2.539   2.542   2.554   2.558   2.581
  2.591   2.603   2.617   2.622   2.661   2.667   2.677   2.683
  2.704   2.732   2.757   2.769   2.786   2.808   2.814   2.840
  2.853   2.861   2.875   2.879   2.898   2.903   2.921   2.927
  2.937   2.948   2.967   2.978   3.000   3.020   3.033   3.042
  3.053   3.056   3.075   3.083   3.094   3.114   3.125   3.128
  3.135   3.160   3.177   3.190   3.213   3.223   3.232   3.244
  3.247   3.286   3.289   3.309   3.330   3.367   3.384   3.396
  3.398   3.458   3.587   3.605   3.624   3.668   3.682   3.745
  3.776   3.780   3.793   3.822   3.839   3.848   3.875   3.918
  3.953   4.001   4.048   4.066   4.101   4.115   4.126   4.136
  4.145   4.168   4.182   4.230   4.257   4.285   4.438   4.496
  5.026   5.078   5.102   5.139   5.150   5.217   5.286   5.300
  5.415   5.436   5.459   5.518   5.608   5.639   5.658   5.722
  5.884   5.918  23.785  23.829  23.852  23.862  23.891  23.904
 23.932  23.939  23.943  23.962  23.975  24.046  49.910  49.935
 49.975  50.001  50.038  50.046
 --------------------------------------------------------------
 
          Ground-State Mulliken Net Atomic Charges

     Atom                 Charge (a.u.)
  ----------------------------------------
      1 C                     0.080281
      2 C                    -0.270283
      3 C                    -0.443584
      4 C                    -0.496135
      5 O                     0.024846
      6 O                    -0.190777
      7 O                    -0.085364
      8 O                    -0.204505
      9 C                    -0.217719
     10 C                    -0.154520
     11 C                     0.080303
     12 C                    -0.616942
     13 C                    -0.176433
     14 C                    -0.477439
     15 O                    -0.024636
     16 H                     0.285958
     17 H                     0.240470
     18 H                     0.186008
     19 H                     0.170723
     20 H                     0.185335
     21 H                     0.122463
     22 H                     0.172390
     23 H                     0.196764
     24 H                     0.127189
     25 H                     0.195776
     26 H                     0.171477
     27 H                     0.155141
     28 H                     0.295364
     29 C                     0.159186
     30 O                    -0.049083
     31 H                     0.164866
     32 H                     0.203660
     33 C                    -0.231608
     34 H                     0.141122
     35 H                     0.127186
     36 H                     0.152524
  ----------------------------------------
  Sum of atomic charges =    -0.000000

 -----------------------------------------------------------------
                    Cartesian Multipole Moments
 -----------------------------------------------------------------
    Charge (ESU x 10^10)
                -0.0000
    Dipole Moment (Debye)
         X      -1.3501      Y      -0.2744      Z       2.1237
       Tot       2.5314
    Quadrupole Moments (Debye-Ang)
        XX     -97.0908     XY       5.3157     YY     -99.0846
        XZ      -5.4528     YZ       3.7000     ZZ    -112.5569
[...]
     0.02627306      0.04688679     -0.04120030
    -0.07533984      0.05989771      0.12139851
     0.58835551      0.21515059     -0.18998760
    -0.00500690     -0.12963581      0.61270633
    -0.00053619     -0.00002805     -0.00002923
     0.00031774     -0.00016349     -0.00074854
    -0.00411186      0.00579718     -0.00381558
    -0.00204003     -0.00101614      0.00420983
     0.01077604     -0.00880418      0.01141742
     0.00047650      0.00247092      0.00117483
     0.00007232      0.00006602      0.00015278
    -0.00039156     -0.00192246      0.00097665
    -0.00797259     -0.02725597     -0.01999356
    -0.00017898     -0.00055291      0.00019003
    -0.00145037      0.00047149     -0.00286794
     0.00108651      0.00067159     -0.00124118
     0.00287322      0.00500390      0.00246497
vibration 93
    -0.00060691      0.00179263      0.00388085
     0.00079817     -0.00047301      0.00260784
    -0.00009804     -0.00004953      0.00007055
     0.00048719     -0.00034921      0.00016229
     0.00001297      0.00000764     -0.00001731
     0.00001086      0.00002271     -0.00001161
    -0.00017382      0.00003809     -0.00008504
    -0.00073936     -0.00025117      0.00055224
    -0.00009379      0.00009788      0.00030811
    -0.00000834      0.00009544      0.00001311
     0.00010391      0.00003106      0.00002207
    -0.00030712      0.00003992      0.00050150
    -0.00008918      0.00116349     -0.00248115
    -0.00123576     -0.00073477     -0.00005296
     0.00024072      0.00004115      0.00005282
     0.00768301     -0.02126933     -0.04626387
    -0.00767881      0.00319930     -0.03126951
     0.00014854     -0.00008408      0.00018746
     0.00009012     -0.00101553     -0.00071646
     0.00139926      0.00238434     -0.00193306
     0.00250543     -0.00205835     -0.00393402
    -0.00157206      0.00103762      0.00045028
     0.00067922     -0.00731973      0.03175054
    -0.00037685      0.00003818      0.00002636
     0.00178890     -0.00066107     -0.00382125
     0.00018594     -0.00026437      0.00021227
    -0.00003034      0.00000421      0.00009857
     0.00049330     -0.00034759      0.00025874
    -0.02901105     -0.07202443     -0.03815555
    -0.00063921     -0.00006104     -0.00056528
     0.10280284      0.09658289     -0.09820237
     0.26804461      0.76327024      0.54854571
     0.00462505      0.00247650      0.00071404
    -0.01027737      0.00847047     -0.02090131
    -0.02531615     -0.01277516      0.02453041
    -0.01727174     -0.01710164     -0.01195124
vibration 94
     0.00918760     -0.02437261     -0.05274338
    -0.01178960      0.00581658     -0.04956675
     0.00098234     -0.00001264     -0.00171792
    -0.00039114      0.00020749     -0.00058540
    -0.00012222     -0.00002028      0.00026853
     0.00001123     -0.00012197      0.00048969
     0.00010612     -0.00004306     -0.00003977
    -0.00003017     -0.00007985      0.00004924
    -0.00003549     -0.00004801      0.00033545
    -0.00059331     -0.00003804      0.00002586
    -0.00140602      0.00019692     -0.00128340
    -0.00974716     -0.01362218      0.01572784
    -0.01262093     -0.00209940     -0.00820257
    -0.00081756      0.00010911     -0.00063400
    -0.00000354      0.00010293      0.00049260
    -0.10682877      0.29217061      0.63082721
     0.14219088     -0.06014328      0.59772798
    -0.00067426      0.00118410     -0.00121117
     0.00016272      0.00476016      0.00319897
     0.09241915      0.18380524     -0.14255880
     0.02532261     -0.02390203     -0.04125564
     0.14782902      0.05344755     -0.04641150
    -0.00108280     -0.02934012      0.14312304
    -0.00067053     -0.00020111     -0.00008068
     0.00147006     -0.00061507     -0.00330803
     0.00347128     -0.00487456      0.00314554
     0.00224492      0.00114424     -0.00500885
     0.01842337     -0.01324685      0.01724575
    -0.00161508     -0.00351955     -0.00206715
    -0.00003708     -0.00001192      0.00006165
     0.00635674      0.00482203     -0.00554233
     0.01377212      0.03863199      0.02775122
     0.00039757      0.00003026      0.00027629
    -0.00190074      0.00111905     -0.00396485
    -0.00180251     -0.00073287      0.00166915
    -0.00076938     -0.00052276     -0.00046906
vibration 95
     0.00294273     -0.00809582     -0.01718871
    -0.00044610      0.00029641     -0.00222672
     0.00008482      0.00000373     -0.00060647
    -0.00009392      0.00021449      0.00000151
     0.00000082      0.00001932      0.00008471
     0.00006642     -0.00003716      0.00021942
    -0.00002873     -0.00003408     -0.00000810
     0.00001235     -0.00003983      0.00000698
    -0.00004366      0.00003331      0.00010293
    -0.00035937      0.00029718     -0.00000385
     0.00264634     -0.00104420      0.00064872
     0.04175614      0.01800176     -0.06839423
    -0.02528180     -0.01409871      0.03192131
    -0.00060716     -0.00010066      0.00014572
    -0.00029272      0.00008262      0.00029050
    -0.03553590      0.09415469      0.20804123
     0.00711007     -0.00229092      0.02658180
     0.00000801     -0.00011467      0.00007720
     0.00025896     -0.00009985     -0.00017292
    -0.22776834     -0.45749803      0.35245723
    -0.27308090      0.24267521      0.46309877
     0.30522222      0.11077365     -0.08640418
    -0.00632791      0.05723001     -0.29274263
    -0.00009715     -0.00007223     -0.00001432
     0.00053109     -0.00020337     -0.00119123
     0.00262994     -0.00371148      0.00250424
     0.00083564      0.00048324     -0.00180097
    -0.01760939      0.01204382     -0.01665325
    -0.00100072     -0.00217565     -0.00087438
     0.00004237     -0.00000903      0.00000949
     0.00610767      0.00466449     -0.00553386
     0.00742181      0.02144123      0.01467586
     0.00015320      0.00006310      0.00014945
    -0.00082213      0.00049765     -0.00161004
    -0.00015406     -0.00021743      0.00023085
    -0.00072835     -0.00082279     -0.00046816
vibration 96
     0.00000245     -0.00004546     -0.00009117
    -0.00001871      0.00002113     -0.00006987
     0.00003694      0.00001223     -0.00001464
     0.00012262     -0.00004828     -0.00001301
    -0.00001744     -0.00000585      0.00001136
    -0.00001055     -0.00000186      0.00000265
    -0.00005371     -0.00000892     -0.00001019
    -0.00010486      0.00001995      0.00005832
    -0.00008546      0.00001113      0.00022339
    -0.00005623      0.00019485      0.00007741
    -0.00006841      0.00004610     -0.00010152
    -0.00010460     -0.00018074      0.00018858
    -0.00057993     -0.00021006      0.00038907
     0.00008529     -0.00002878      0.00004603
    -0.00002094      0.00002200      0.00001516
    -0.00021469      0.00055121      0.00115040
     0.00015096      0.00000708      0.00071128
    -0.00024965      0.00042925     -0.00042992
     0.00014508     -0.00165863     -0.00119808
     0.00117885      0.00244229     -0.00193704
     0.00005554     -0.00007561     -0.00016304
     0.00640746      0.00227892     -0.00196696
    -0.00020805      0.00054904     -0.00272097
     0.00026294     -0.00000209      0.00006563
     0.00110818     -0.00039496     -0.00227816
     0.00049115     -0.00072972      0.00053178
     0.00010036      0.00010059     -0.00024614
     0.00097143     -0.00068378      0.00103427
    -0.00034110     -0.00231724     -0.00033832
    -0.00033461      0.00024831     -0.00014265
     0.00411669      0.00272127     -0.00293033
     0.00855691      0.01824068      0.01447161
    -0.03628304      0.00605667     -0.08290405
     0.41666274     -0.22064951      0.83011187
    -0.10554763     -0.05066931      0.07635346
     0.11862087      0.20138952      0.07407303
vibration 97
     0.00011704     -0.00028391     -0.00017945
     0.00007232      0.00002327      0.00012456
    -0.00000096      0.00015440     -0.00009139
    -0.00018502     -0.00009477     -0.00003917
    -0.00019470      0.00027739      0.00003458
    -0.00008535      0.00012847      0.00005473
     0.00005527      0.00007914      0.00001051
     0.00005743      0.00000651      0.00000541
     0.00240709     -0.00056816     -0.00077310
     0.03281523     -0.08867101     -0.00496604
    -0.00006251      0.00003431     -0.00008186
     0.00004128     -0.00005157     -0.00005944
    -0.00030999     -0.00019028      0.00046600
    -0.00001102     -0.00002889      0.00003309
    -0.00001572      0.00002030     -0.00000311
    -0.00052386      0.00087994      0.00192279
    -0.00029611      0.00017729     -0.00133750
    -0.00203125      0.00489011     -0.00500903
    -0.05081270      0.56590574      0.41635596
     0.00003918      0.00014184     -0.00013939
    -0.00049836      0.00046929      0.00092674
     0.00387845      0.00142761     -0.00108516
    -0.00011136      0.00088456     -0.00449237
    -0.01944654     -0.00066165     -0.00090822
    -0.00643528      0.00230242      0.01529733
    -0.34607895      0.50022344     -0.35170139
     0.00900970     -0.01650970     -0.00581300
     0.00083456     -0.00048914      0.00071081
    -0.00006262     -0.00013242     -0.00003793
     0.00000094      0.00000431     -0.00000123
     0.00047641      0.00044293     -0.00039301
     0.00033476      0.00109220      0.00082943
    -0.00010748     -0.00002260     -0.00017325
     0.00086499     -0.00046987      0.00175462
    -0.00002634     -0.00001202     -0.00002414
     0.00038892      0.00071865      0.00030142
vibration 98
     0.00098159     -0.00300408     -0.00622948
    -0.00164512      0.00061421     -0.00622306
    -0.00003782     -0.00001193     -0.00026536
     0.00003429     -0.00024433     -0.00003665
     0.00001549      0.00001398      0.00004597
     0.00006043     -0.00001039      0.00014736
     0.00003051      0.00005660      0.00000861
    -0.00008547      0.00009484      0.00003193
    -0.00002859     -0.00028730      0.00061658
     0.00004970     -0.00049723     -0.00003362
     0.00147855     -0.00059117      0.00007963
     0.02127434      0.01007978     -0.03443987
     0.04516229      0.02714046     -0.06589789
     0.00043954      0.00102895     -0.00115051
    -0.00014705     -0.00007465      0.00056949
    -0.01399122      0.03398412      0.07534630
     0.01735299     -0.00897367      0.07802285
    -0.00202156      0.00394239     -0.00368083
    -0.00023846      0.00399855      0.00289625
    -0.11853382     -0.24313656      0.18767789
    -0.13630958      0.12022263      0.22649382
    -0.55691008     -0.19841822      0.15698046
     0.01670743     -0.12730580      0.62731423
     0.00037930     -0.00000538      0.00014750
     0.00195681     -0.00065640     -0.00402673
    -0.00120965      0.00182846     -0.00131487
     0.00051607      0.00014449     -0.00098549
    -0.00861636      0.00616833     -0.00788277
     0.00091663      0.00131688     -0.00020362
    -0.00007592     -0.00004119      0.00001962
    -0.01017648     -0.00758262      0.00887945
    -0.00264284     -0.00806429     -0.00452758
    -0.00022959      0.00009295     -0.00061681
     0.00327227     -0.00175166      0.00627014
    -0.00148869     -0.00042649      0.00109894
     0.00078670      0.00108658      0.00037186
vibration 99
     0.00003999     -0.00009743     -0.00019593
    -0.00006278      0.00011299     -0.00051245
    -0.00000774      0.00002429     -0.00021964
     0.00001565      0.00000383      0.00021126
    -0.00001904     -0.00002980      0.00005157
     0.00002663      0.00002165      0.00010892
    -0.00003071     -0.00012412      0.00037698
    -0.00003215     -0.00007328      0.00012274
     0.00108849      0.02992365     -0.09028471
    -0.00032286      0.00045080      0.00058465
     0.00004627     -0.00003465      0.00001806
     0.00015526      0.00004129     -0.00024837
     0.00025104      0.00017733     -0.00049174
    -0.00000728      0.00003069     -0.00001082
     0.00000326     -0.00000192      0.00002503
    -0.00040472      0.00125990      0.00253420
     0.00070803     -0.00071347      0.00338047
     0.24814719     -0.46762273      0.44757558
     0.00049946     -0.00499353     -0.00379614
    -0.00072524     -0.00151226      0.00115851
    -0.00110304      0.00098565      0.00185429
    -0.00310872     -0.00110450      0.00087360
     0.00012335     -0.00098664      0.00498749
     0.04691732      0.00690239     -0.01439799
    -0.30735059      0.10640709      0.63401877
     0.00102249     -0.00157807      0.00121798
     0.00222205      0.00138466     -0.00457057
    -0.00038219      0.00022059     -0.00036289
    -0.00007940     -0.00021604     -0.00015517
     0.00000094     -0.00000777      0.00001061
     0.00013076      0.00013635     -0.00008360
     0.00082907      0.00244363      0.00173034
    -0.00005916      0.00003720     -0.00019084
     0.00097027     -0.00047800      0.00188227
    -0.00043219     -0.00022501      0.00034855
     0.00015604      0.00028179      0.00002395
vibration 100
     0.00001302     -0.00002587     -0.00003285
    -0.00001991      0.00003519     -0.00008201
    -0.00088036     -0.00018385     -0.00085999
    -0.00004383     -0.00005118     -0.00002757
    -0.00010358     -0.00012571      0.00036113
     0.00030113      0.00005609      0.00045212
    -0.00000569     -0.00000057      0.00002284
     0.00001537      0.00000552      0.00000459
     0.00500838     -0.00080109     -0.00081696
     0.02220897      0.01361191     -0.09059400
     0.00156864     -0.00111385      0.00160142
    -0.00004668     -0.00016359      0.00001615
    -0.00006755      0.00000033     -0.00006309
    -0.00003638      0.00002388     -0.00001546
     0.00002147     -0.00000486      0.00000250
     0.00013391      0.00062071      0.00122828
     0.00028326     -0.00009034      0.00093752
    -0.00308218      0.00786622     -0.00827851
    -0.02292936      0.25650321      0.16091806
     0.00078643      0.00145938     -0.00104151
    -0.00034767      0.00036032      0.00072628
     0.00055831      0.00021137     -0.00017043
     0.00000851     -0.00015774      0.00080761
    -0.04694475     -0.00100669     -0.00294110
    -0.00882189      0.00289044      0.02083514
     0.15453959     -0.22149248      0.12890924
    -0.38944263     -0.19362308      0.78513431
    -0.01826079      0.01261297     -0.01842492
    -0.00002204     -0.00002429     -0.00001564
     0.00000883     -0.00000501      0.00000429
     0.00011710      0.00009138     -0.00007554
     0.00008080      0.00024774      0.00019850
    -0.00003800      0.00001061     -0.00004674
     0.00030896     -0.00016261      0.00059816
     0.00005426      0.00001717     -0.00006304
     0.00003468      0.00007215      0.00001477
vibration 101
    -0.00010180     -0.00022630      0.00082173
     0.00023038     -0.00075230      0.00106738
    -0.00050421      0.00011541     -0.00122756
    -0.00004557     -0.00012840     -0.00002563
     0.00014847      0.00001886      0.00011123
     0.00001572     -0.00024982      0.00059919
     0.00005203      0.00003587      0.00002503
     0.00001084      0.00003451      0.00000278
     0.00177595     -0.00036001     -0.00017022
     0.00053995      0.00050553     -0.00255286
    -0.05430764      0.03839599     -0.05517148
     0.00216606      0.00428036     -0.00125860
     0.00150917      0.00008393      0.00108785
     0.00099277     -0.00093060      0.00038828
    -0.00033210      0.00027695      0.00022807
     0.00079623     -0.00116474     -0.00590708
    -0.00226493      0.00123761     -0.01000747
    -0.00155690      0.00365361     -0.00369291
    -0.00055449      0.00668711      0.00405683
    -0.02294890     -0.04345085      0.03061185
     0.00374632     -0.00564189     -0.01104681
    -0.00828742     -0.00349475      0.00263051
    -0.00009543      0.00163781     -0.01041721
    -0.01671193     -0.00030372     -0.00099658
    -0.00280203      0.00098839      0.00672189
     0.00529028     -0.00729717      0.00437570
    -0.01041912     -0.00517053      0.02145308
     0.62621207     -0.43773489      0.63541105
     0.00008100      0.00003989      0.00009257
    -0.00004125      0.00003182     -0.00002056
    -0.00029150     -0.00000328      0.00020620
    -0.00046248     -0.00043234     -0.00029623
     0.00008923     -0.00006056      0.00006504
    -0.00065246      0.00035679     -0.00124017
    -0.00029306     -0.00010671      0.00031683
     0.00007841      0.00015132      0.00010976
vibration 102
     0.00001408     -0.00001667      0.00003951
     0.00004918     -0.00004108     -0.00001742
    -0.00021867     -0.00004295     -0.00009920
    -0.00032392      0.00119110      0.00033522
     0.00005251      0.00001231      0.00000157
     0.00006595      0.00001636      0.00006885
     0.00036690     -0.00010363     -0.00002728
     0.00025341     -0.00047297     -0.00013542
    -0.09272734      0.01762063      0.00499543
     0.00166736     -0.00160744     -0.00523226
    -0.00098001      0.00069425     -0.00097367
     0.00001944      0.00008861      0.00000810
     0.00001527     -0.00000635      0.00003918
     0.00001984      0.00000200      0.00000039
     0.00000625     -0.00001128      0.00000715
     0.00009838     -0.00021424     -0.00041541
    -0.00000952     -0.00019949      0.00001157
     0.08366364     -0.19211496      0.19656517
    -0.00252385      0.03228242      0.02210642
    -0.00038495     -0.00074721      0.00054610
     0.00029124     -0.00031261     -0.00058061
     0.00000313     -0.00002725      0.00000233
     0.00000128      0.00006481     -0.00030192
     0.88810628      0.01916425      0.05136339
     0.12594845     -0.04138352     -0.30863690
     0.00205402     -0.00249594      0.00058710
    -0.01937702     -0.01015547      0.03954589
     0.01117968     -0.00789104      0.01139603
     0.00006512      0.00012676      0.00002295
    -0.00000821     -0.00001073     -0.00000083
    -0.00051552     -0.00056841      0.00038675
    -0.00016008     -0.00079867     -0.00072018
     0.00008415      0.00004792      0.00005452
    -0.00031824      0.00016897     -0.00066170
    -0.00030503     -0.00016149      0.00028549
    -0.00026600     -0.00056305     -0.00026566
[INT]
    1.393907
    0.692659
    1.401765
    2.519320
    2.211534
    2.304473
    2.547215
    3.481537
    0.487837
    0.338999
    0.948616
    0.080932
    1.022515
    3.275217
    2.060279
    0.221871
   13.159864
    2.821050
    1.571651
    9.987663
    0.949833
   20.965792
    0.425460
   15.410199
   12.174436
   11.168967
    2.650091
    7.129412
    3.800421
    8.102449
    8.374686
    5.854356
   19.333539
    5.305079
    0.782766
    9.104462
    2.189264
   10.199711
   28.876417
   31.918345
   16.038162
   19.512490
   11.076460
   34.161497
   63.647772
   10.742911
    5.004547
   35.462035
  151.925934
   12.107385
    7.172367
    0.844678
  180.539032
   13.890590
    4.169217
   11.434588
    1.863924
   45.138261
   27.104140
    9.621604
  409.462286
  121.896213
   44.545913
   11.928777
   26.369125
    2.192150
    0.786410
   16.523451
   59.077278
    7.860011
   10.886672
   18.354697
    1.213060
    7.740544
    7.543386
    5.090391
    1.074040
   15.614076
    6.257372
    7.234446
   12.185389
   10.760704
  289.846322
  213.968712
   65.844992
   83.456155
   40.019219
   33.261529
   36.117080
   27.586826
   11.393380
   17.384798
   15.206109
    8.157938
    7.076005
   29.943001
   23.632149
   32.339393
   14.222046
   16.100295
   11.938983
   13.157748

======= END OF MOLDEN-FORMATTED INPUT FILE =======


        *************************************************************
        *                                                           *
        *  Thank you very much for using Q-Chem.  Have a nice day.  *
        *                                                           *
        *************************************************************


