r0219.ten.osc.edu 10.25.156
Q-Chem Developer Version! Running on 10.25.156.*
                  Welcome to Q-Chem
     A Quantum Leap Into The Future Of Chemistry


 Q-Chem 5.0, Q-Chem, Inc., Pleasanton, CA (2017)

 Yihan Shao,  Zhengting Gan,  E. Epifanovsky,  A. T. B. Gilbert,  M. Wormit,  
 J. Kussmann,  A. W. Lange,  A. Behn,  Jia Deng,  Xintian Feng,  D. Ghosh,  
 M. Goldey,  P. R. Horn,  L. D. Jacobson,  I. Kaliman,  T. Kus,  A. Landau,  
 Jie Liu,  E. I. Proynov,  R. M. Richard,  R. P. Steele,  E. J. Sundstrom,  
 H. L. Woodcock III,  P. M. Zimmerman,  D. Zuev,  B. Albrecht,  E. Alguire,  
 S. A. Baeppler,  Z. Benda,  Y. A. Bernard,  E. J. Berquist,  K. B. Bravaya,  
 D. Casanova,  Chun-Min Chang,  Yunqing Chen,  A. Chien,  K. D. Closser,  
 M. P. Coons,  S. Dasgupta,  M. Diedenhofen,  Hainam Do,  R. G. Edgar,  
 Po-Tung Fang,  S. Fatehi,  Qingguo Feng,  Qinghui Ge,  A. Ghysels,  
 J. Gomes,  J. Gonthier,  A. Gunina,  M. W. D. Hanson-Heine,  
 P. H. P. Harbach,  A. W. Hauser,  J. E. Herr,  E. G. Hohenstein,  
 Z. C. Holden,  Kerwin Hui,  T.-C. Jagau,  Hyunjun Ji,  B. Kaduk,  
 K. Khistyaev,  Jaehoon Kim,  P. Klunzinger,  K. Koh,  D. Kosenkov,  
 T. Kowalczyk,  C. M. Krauter,  A. Kunitsa,  Ka Un Lao,  A. Laurent,  
 K. V. Lawler,  Joonho Lee,  D. Lefrancois,  S. Lehtola,  D. S. Levine,  
 Yi-Pei Li,  You-Sheng Lin,  Fenglai Liu,  E. Livshits,  A. Luenser,  
 P. Manohar,  E. Mansoor,  S. F. Manzer,  Shan-Ping Mao,  Yuezhi Mao,  
 N. Mardirossian,  A. V. Marenich,  L. A. Martinez-Martinez,  S. A. Maurer,  
 N. J. Mayhall,  S. C. McKenzie,  J.-M. Mewes,  A. F. Morrison,  K. Nanda,  
 T. S. Nguyen-Beck,  R. Olivares-Amaya,  J. A. Parkhill,  T. M. Perrine,  
 F. Plasser,  S. Prager,  A. Prociuk,  D. R. Rehn,  F. Rob,  M. Schneider,  
 N. Sergueev,  S. M. Sharada,  S. Sharma,  D. W. Small,  T. Stauch,  
 T. Stein,  Yu-Chuan Su,  A. J. W. Thom,  T. Tsuchimochi,  L. Vogt,  
 O. Vydrov,  M. A. Watson,  J. Wenzel,  M. de Wergifosse,  T. A. Wesolowski,  
 A. White,  J. Witte,  A. Yamada,  Jun Yang,  K. Yao,  S. Yeganeh,  
 S. R. Yost,  Zhi-Qiang You,  A. Zech,  Igor Ying Zhang,  Xing Zhang,  
 Yan Zhao,  Ying Zhu,  B. R. Brooks,  G. K. L. Chan,  C. J. Cramer,  
 M. S. Gordon,  W. J. Hehre,  A. Klamt,  M. W. Schmidt,  C. D. Sherrill,  
 D. G. Truhlar,  A. Aspuru-Guzik,  R. Baer,  A. T. Bell,  N. A. Besley,  
 Jeng-Da Chai,  A. Dreuw,  B. D. Dunietz,  T. R. Furlani,  Chao-Ping Hsu,  
 Yousung Jung,  Jing Kong,  D. S. Lambrecht,  WanZhen Liang,  C. Ochsenfeld,  
 V. A. Rassolov,  L. V. Slipchenko,  J. E. Subotnik,  T. Van Voorhis,  
 J. M. Herbert,  A. I. Krylov,  P. M. W. Gill,  M. Head-Gordon

 Contributors to earlier versions of Q-Chem not listed above: 
 R. D. Adamson,  B. Austin,  J. Baker,  G. J. O. Beran,  K. Brandhorst,  
 S. T. Brown,  E. F. C. Byrd,  A. K. Chakraborty,  C.-L. Cheng,  
 Siu Hung Chien,  D. M. Chipman,  D. L. Crittenden,  H. Dachsel,  
 R. A. DiStasio Jr.,  R. J. Doerksen,  A. D. Dutoi,  L. Fusti-Molnar,  
 W. A. Goddard III,  A. Golubeva-Zadorozhnaya,  S. R. Gwaltney,  G. Hawkins,  
 A. Heyden,  S. Hirata,  G. Kedziora,  F. J. Keil,  C. Kelley,  Jihan Kim,  
 R. A. King,  R. Z. Khaliullin,  P. P. Korambath,  W. Kurlancheek,  
 A. M. Lee,  M. S. Lee,  S. V. Levchenko,  Ching Yeh Lin,  D. Liotard,  
 R. C. Lochan,  I. Lotan,  P. E. Maslen,  N. Nair,  D. P. O'Neill,  
 D. Neuhauser,  E. Neuscamman,  C. M. Oana,  R. Olson,  B. Peters,  
 R. Peverati,  P. A. Pieniazek,  Y. M. Rhee,  J. Ritchie,  M. A. Rohrdanz,  
 E. Rosta,  N. J. Russ,  H. F. Schaefer III,  N. E. Schultz,  N. Shenvi,  
 A. C. Simmonett,  A. Sodt,  D. Stuck,  K. S. Thanthiriwatte,  V. Vanovschi,  
 Tao Wang,  A. Warshel,  C. F. Williams,  Q. Wu,  X. Xu,  W. Zhang

 Please cite Q-Chem as follows:
 Y. Shao et al., Mol. Phys. 113, 184-215 (2015)
 DOI: 10.1080/00268976.2014.952696

 Q-Chem 5.0.1 for Intel X86 EM64T Linux

 Parts of Q-Chem use Armadillo 5.200.1 (Boston Tea Smuggler).
 http://arma.sourceforge.net/

 Q-Chem begins on Tue Oct 24 09:32:43 2017  

Host: r0219.ten.osc.edu
0

     Scratch files written to /tmp/pbstmp.1324381/02//
Processing $rem in /users/PAS0291/osu6415/.qchemrc.
molden_format             true

Checking the input file for inconsistencies... 	...done.

--------------------------------------------------------------
User input:
--------------------------------------------------------------
$molecule
0 1
C -0.93429455 1.19832172 0.48857997
C 0.22117921 0.16560062 0.74078557
C -2.27384492 0.62936662 0.06221183
C -0.06260609 -1.27491218 0.36228754
O -2.68389297 -0.30879153 0.94373223
O -2.93131821 0.99579496 -0.87793540
O -0.66246890 -1.37901413 -0.84101050
O 0.25472476 -2.22817343 1.03071232
C -0.96614978 -2.70904180 -1.29134903
C -3.93402237 -0.95579056 0.64655399
C -0.29690007 2.14784723 -0.55413681
C 0.67939463 3.09412246 0.16931088
C 1.82796619 2.10679956 0.53072888
C 1.34411508 0.80188291 -0.15767435
O 0.59802012 1.28685902 -1.27950745
H -1.13795748 1.73040500 1.42269292
H 0.52635300 0.13869505 1.78363877
H -1.62458654 -3.21141136 -0.58040868
H -3.88932554 -1.42840070 -0.33613865
H 1.02428553 3.87074584 -0.51507968
H 0.23426712 3.58082187 1.03971552
H 2.78172406 2.42088676 0.10442805
H 1.97118931 1.97495895 1.60317060
H -1.45955865 -2.58226027 -2.25240149
H -0.05154909 -3.29393141 -1.40301982
H -4.75220346 -0.23406589 0.65987359
H -4.06694218 -1.70185968 1.42673354
H -1.00706999 2.59955686 -1.24044062
C 2.44373101 -0.12874402 -0.62389389
O 3.18773177 -0.51055564 0.51711064
H 3.07691109 0.39799343 -1.35249230
H 2.01785807 -1.00681074 -1.12783973
C 4.09529179 -1.56651919 0.26310980
H 4.61326888 -1.77567089 1.19892795
H 4.83278133 -1.28662547 -0.50233373
H 3.56543806 -2.47120306 -0.06366330
$end

$rem
sym_ignore      true
jobtype         opt
method          b3lyp
basis           6-311++G(d,p)
dft_d           d3_op
mem_total       62000
MEM_STATIC      4000
ao2mo_disk      350000
max_scf_cycles  200
geom_opt_max_cycles 1000
geom_opt_tol_displacement 1
GEOM_OPT_TOL_GRADIENT       1
GEOM_OPT_TOL_ENERGY         1
$end

--------------------------------------------------------------
 Adding empirical dispersion correction 
 ----------------------------------------------------------------
 Doing -D3(op) with
 s6 =   1.00000
 s8 =   0.78311
 a1 =   0.30000
 a2 =   4.25000
 n  =  10.00000
 -D3 energy without 3body term =     -0.0416334485 hartrees
 ----------------------------------------------------------------
             Standard Nuclear Orientation (Angstroms)
    I     Atom           X                Y                Z
 ----------------------------------------------------------------
    1      C      -0.9342945500     1.1983217200     0.4885799700
    2      C       0.2211792100     0.1656006200     0.7407855700
    3      C      -2.2738449200     0.6293666200     0.0622118300
    4      C      -0.0626060900    -1.2749121800     0.3622875400
    5      O      -2.6838929700    -0.3087915300     0.9437322300
    6      O      -2.9313182100     0.9957949600    -0.8779354000
    7      O      -0.6624689000    -1.3790141300    -0.8410105000
    8      O       0.2547247600    -2.2281734300     1.0307123200
    9      C      -0.9661497800    -2.7090418000    -1.2913490300
   10      C      -3.9340223700    -0.9557905600     0.6465539900
   11      C      -0.2969000700     2.1478472300    -0.5541368100
   12      C       0.6793946300     3.0941224600     0.1693108800
   13      C       1.8279661900     2.1067995600     0.5307288800
   14      C       1.3441150800     0.8018829100    -0.1576743500
   15      O       0.5980201200     1.2868590200    -1.2795074500
   16      H      -1.1379574800     1.7304050000     1.4226929200
   17      H       0.5263530000     0.1386950500     1.7836387700
   18      H      -1.6245865400    -3.2114113600    -0.5804086800
   19      H      -3.8893255400    -1.4284007000    -0.3361386500
   20      H       1.0242855300     3.8707458400    -0.5150796800
   21      H       0.2342671200     3.5808218700     1.0397155200
   22      H       2.7817240600     2.4208867600     0.1044280500
   23      H       1.9711893100     1.9749589500     1.6031706000
   24      H      -1.4595586500    -2.5822602700    -2.2524014900
   25      H      -0.0515490900    -3.2939314100    -1.4030198200
   26      H      -4.7522034600    -0.2340658900     0.6598735900
   27      H      -4.0669421800    -1.7018596800     1.4267335400
   28      H      -1.0070699900     2.5995568600    -1.2404406200
   29      C       2.4437310100    -0.1287440200    -0.6238938900
   30      O       3.1877317700    -0.5105556400     0.5171106400
   31      H       3.0769110900     0.3979934300    -1.3524923000
   32      H       2.0178580700    -1.0068107400    -1.1278397300
   33      C       4.0952917900    -1.5665191900     0.2631098000
   34      H       4.6132688800    -1.7756708900     1.1989279500
   35      H       4.8327813300    -1.2866254700    -0.5023337300
   36      H       3.5654380600    -2.4712030600    -0.0636633000
 ----------------------------------------------------------------
 Nuclear Repulsion Energy =  1534.2115634039 hartrees
 There are       69 alpha and       69 beta electrons
 Requested basis set is 6-311++G(d,p)
 There are 198 shells and 522 basis functions

 Total QAlloc Memory Limit  62000 MB
 Mega-Array Size      3911 MB
 MEM_STATIC part      4000 MB
 A cutoff of  1.0D-11 yielded  15644 shell pairs
 There are    110430 function pairs (    117671 Cartesian)
 
 -------------------------------------------------------
 OpenMP Integral Computing Module                       
 Release: version 1.0, May 2013, Q-Chem Inc. Pittsburgh 
 -------------------------------------------------------
 Integral Job Info:
 Integral job number is                      11
 Integral operator is                         1
 short-range coefficients                     0
 long-range coefficients              100000000
 Omega coefficients                           0
 if combine SR and LR in K                    0
 Integral screening is                        0
 Integral computing path is                   2
 max size of driver memory is            800000
 size of driver memory is                593474
 size of scratch memory is              2361544
 max col of scratch BK array               1296
 max len of scratch array in speh3          155
 max len of scratch index in speh4           18
 max int batch size is                      520
 min int batch size is                       52
 fixed nKL is                                52
 max L of basis functions is                  2
 order of int derivative is                   0
 number of shells is                        198
 number of basis is                         540
 number of cartesian basis is               540
 number of contracted shell pairs         15644
 number of primitive shell pairs          34406
 maxK2 (contraction) of shell pair           36
 max number of K2 of shell pair               1
 max number of CS2 of shell pair           2977
 max number of PS2 of shell pair           5040
 mem total for path MDJ                  198632
 -------------------------------------------------------
 Smallest overlap matrix eigenvalue = 8.68E-07

 Q-Chem warning in module /fs/scratch/osu6415/qchem-kaunlao-vdw/stvman/mkSTV.C, line 281:

 Overlap eigenvalue is smaller than square root of threshold

 Linear dependence detected in AO basis
 Number of orthogonalized atomic orbitals = 521
 Maximum deviation from orthogonality = 1.555E-10

 Scale SEOQF with 1.000000e-01/1.000000e-01/1.000000e-01

 Standard Electronic Orientation quadrupole field applied
 Nucleus-field energy     =     0.0000000404 hartrees
 Guess from superposition of atomic densities
 Warning:  Energy on first SCF cycle will be non-variational
 A restricted hybrid HF-DFT SCF calculation will be
 performed using Pulay DIIS extrapolation
 Exchange:     0.2000 Hartree-Fock + 0.0800 Slater + 0.7200 B88
 Correlation:  0.1900 VWN1RPA + 0.8100 LYP
 Using SG-1 standard quadrature grid
 Dispersion:   Grimme D3
 SCF converges when DIIS error is below 1.0E-08
 using 20 threads for integral computing
 -------------------------------------------------------
 OpenMP Integral computing Module                
 Release: version 1.0, May 2013, Q-Chem Inc. Pittsburgh 
 -------------------------------------------------------
 -------------------------------------------------------
 OpenMP BLAS3 based DFT computing Module                
 Release: version 1.0, May 2013, Q-Chem Inc. Pittsburgh 
 -------------------------------------------------------
 ---------------------------------------
  Cycle       Energy         DIIS Error
 ---------------------------------------
    1    -923.3764184800      2.77E-02
    2    -919.4213535535      3.43E-03
    3    -918.9112289997      5.74E-03
    4    -919.7023544062      1.30E-03
    5    -919.7450692844      3.73E-04
    6    -919.7481061228      1.29E-04
    7    -919.7484969334      3.38E-05
    8    -919.7485238756      1.10E-05
    9    -919.7485269054      3.69E-06
   10    -919.7485271814      1.54E-06
   11    -919.7485272421      3.17E-07
   12    -919.7485272440      1.46E-07
   13    -919.7485272446      3.19E-08
   14    -919.7485272452      1.28E-08
   15    -919.7485272448      4.09E-09 Convergence criterion met
 ---------------------------------------
 SCF time:  CPU 1312.11 s  wall 84.97 s
 SCF   energy in the final basis set = -919.74852724
 Total energy in the final basis set = -919.74852724
 
 --------------------------------------------------------------
 
                    Orbital Energies (a.u.)
 --------------------------------------------------------------
 
 Alpha MOs
 -- Occupied --
-19.175 -19.172 -19.134 -19.132 -19.119 -19.115 -10.309 -10.304
-10.244 -10.232 -10.230 -10.230 -10.226 -10.216 -10.205 -10.203
-10.178 -10.177  -1.119  -1.112  -1.066  -1.045  -1.030  -1.026
 -0.832  -0.795  -0.783  -0.747  -0.729  -0.713  -0.662  -0.648
 -0.606  -0.589  -0.568  -0.562  -0.538  -0.518  -0.515  -0.500
 -0.494  -0.485  -0.483  -0.477  -0.474  -0.470  -0.459  -0.447
 -0.430  -0.425  -0.424  -0.406  -0.398  -0.393  -0.380  -0.373
 -0.369  -0.361  -0.357  -0.356  -0.340  -0.334  -0.327  -0.319
 -0.313  -0.289  -0.280  -0.275  -0.269
 -- Virtual --
 -0.018  -0.011  -0.005  -0.003   0.007   0.010   0.013   0.018
  0.023   0.027   0.031   0.036   0.037   0.043   0.045   0.051
  0.055   0.056   0.061   0.068   0.072   0.078   0.083   0.084
  0.094   0.095   0.100   0.103   0.105   0.109   0.112   0.113
  0.115   0.119   0.122   0.125   0.128   0.130   0.132   0.134
  0.136   0.137   0.142   0.145   0.146   0.150   0.152   0.154
  0.157   0.161   0.163   0.167   0.169   0.172   0.175   0.177
  0.179   0.183   0.187   0.188   0.193   0.197   0.198   0.202
  0.205   0.210   0.213   0.219   0.221   0.227   0.228   0.235
  0.237   0.238   0.247   0.252   0.257   0.259   0.263   0.269
  0.270   0.275   0.277   0.285   0.285   0.288   0.292   0.298
  0.303   0.306   0.311   0.319   0.322   0.324   0.331   0.333
  0.337   0.340   0.347   0.349   0.352   0.359   0.365   0.367
  0.370   0.372   0.374   0.378   0.381   0.386   0.391   0.395
  0.397   0.401   0.415   0.424   0.426   0.438   0.440   0.448
  0.458   0.465   0.471   0.478   0.493   0.499   0.509   0.512
  0.517   0.526   0.538   0.541   0.552   0.552   0.562   0.567
  0.575   0.585   0.596   0.597   0.602   0.610   0.619   0.625
  0.632   0.641   0.647   0.650   0.657   0.658   0.670   0.672
  0.681   0.685   0.689   0.692   0.700   0.707   0.713   0.714
  0.722   0.727   0.737   0.740   0.746   0.749   0.750   0.756
  0.771   0.775   0.783   0.789   0.799   0.808   0.819   0.827
  0.840   0.846   0.858   0.873   0.915   0.921   0.944   0.965
  0.981   0.998   1.018   1.033   1.057   1.058   1.064   1.085
  1.097   1.104   1.114   1.130   1.133   1.152   1.161   1.172
  1.189   1.199   1.211   1.218   1.224   1.242   1.250   1.253
  1.256   1.281   1.283   1.294   1.308   1.316   1.329   1.345
  1.354   1.369   1.379   1.398   1.400   1.403   1.407   1.428
  1.440   1.450   1.455   1.462   1.470   1.493   1.510   1.512
  1.516   1.539   1.542   1.555   1.561   1.570   1.574   1.582
  1.584   1.593   1.596   1.602   1.606   1.619   1.628   1.640
  1.659   1.662   1.668   1.671   1.683   1.697   1.700   1.709
  1.715   1.722   1.727   1.741   1.744   1.751   1.765   1.774
  1.781   1.800   1.806   1.811   1.823   1.835   1.842   1.849
  1.867   1.876   1.887   1.898   1.911   1.921   1.940   1.946
  1.955   1.972   1.998   2.008   2.019   2.035   2.038   2.041
  2.064   2.080   2.082   2.111   2.119   2.125   2.141   2.143
  2.158   2.166   2.182   2.188   2.196   2.209   2.244   2.247
  2.256   2.279   2.332   2.338   2.346   2.370   2.386   2.438
  2.441   2.457   2.466   2.476   2.488   2.498   2.506   2.509
  2.517   2.523   2.529   2.532   2.540   2.561   2.585   2.586
  2.597   2.611   2.621   2.626   2.650   2.679   2.684   2.700
  2.723   2.736   2.756   2.773   2.793   2.808   2.820   2.837
  2.855   2.863   2.874   2.876   2.880   2.890   2.913   2.921
  2.935   2.964   2.974   2.983   2.997   3.018   3.034   3.038
  3.049   3.063   3.066   3.079   3.106   3.113   3.118   3.129
  3.145   3.155   3.163   3.204   3.219   3.229   3.240   3.256
  3.262   3.270   3.277   3.309   3.356   3.367   3.382   3.397
  3.409   3.455   3.584   3.597   3.612   3.672   3.697   3.738
  3.777   3.780   3.786   3.810   3.825   3.837   3.860   3.938
  3.961   4.049   4.064   4.078   4.089   4.104   4.129   4.138
  4.148   4.157   4.177   4.219   4.258   4.277   4.441   4.504
  5.044   5.108   5.120   5.174   5.199   5.222   5.265   5.274
  5.411   5.427   5.443   5.522   5.614   5.643   5.652   5.722
  5.876   5.901  23.795  23.841  23.846  23.871  23.907  23.918
 23.933  23.934  23.949  23.967  23.982  24.048  49.907  49.947
 49.970  49.994  50.042  50.057
 --------------------------------------------------------------
 
          Ground-State Mulliken Net Atomic Charges

     Atom                 Charge (a.u.)
  ----------------------------------------
      1 C                    -0.030428
      2 C                     0.361047
      3 C                    -0.533768
      4 C                    -0.666011
      5 O                    -0.013180
      6 O                    -0.203774
      7 O                     0.019598
      8 O                    -0.107698
      9 C                    -0.189316
     10 C                    -0.203300
     11 C                    -0.091991
     12 C                    -0.494225
     13 C                    -0.308532
     14 C                    -0.857978
     15 O                    -0.051588
     16 H                     0.247530
     17 H                     0.290401
     18 H                     0.191255
     19 H                     0.177431
     20 H                     0.185423
     21 H                     0.124886
     22 H                     0.165754
     23 H                     0.187686
     24 H                     0.179822
     25 H                     0.166526
     26 H                     0.173886
     27 H                     0.163398
     28 H                     0.287430
     29 C                     0.292924
     30 O                    -0.032975
     31 H                     0.189893
     32 H                     0.192025
     33 C                    -0.241412
     34 H                     0.148881
     35 H                     0.135338
     36 H                     0.145040
  ----------------------------------------
  Sum of atomic charges =    -0.000000

 -----------------------------------------------------------------
                    Cartesian Multipole Moments
 -----------------------------------------------------------------
    Charge (ESU x 10^10)
                -0.0000
    Dipole Moment (Debye)
         X       0.1324      Y      -0.2692      Z       0.3069
       Tot       0.4292
    Quadrupole Moments (Debye-Ang)
        XX     -98.3367     XY       5.3051     YY    -101.2384
        XZ      -6.9221     YZ      10.5301     ZZ    -112.0188
    Octopole Moments (Debye-Ang^2)
       XXX      -8.9602    XXY     -46.9728    XYY      -9.1398
       YYY      -7.5514    XXZ      11.7168    XYZ      -5.6063
       YYZ     -16.5684    XZZ      -3.6038    YZZ      -7.1758
       ZZZ       2.2113
    Hexadecapole Moments (Debye-Ang^3)
      XXXX   -2933.8160   XXXY      -1.2077   XXYY    -789.7245
      XYYY      -7.4359   YYYY   -1831.6392   XXXZ     -98.8078
      XXYZ      -4.2203   XYYZ      -4.5722   YYYZ      31.8095
      XXZZ    -625.8721   XYZZ      -0.4809   YYZZ    -392.3418
      XZZZ       7.2108   YZZZ      14.9908   ZZZZ    -525.5036
 -----------------------------------------------------------------
 Calculating analytic gradient of the SCF energy
 Gradient of SCF Energy
            1           2           3           4           5           6
    1   0.0001388   0.0000676   0.0001444  -0.0005485  -0.0000178  -0.0001199
    2   0.0001987  -0.0000190  -0.0003017  -0.0000336  -0.0000465   0.0002147
    3  -0.0005313   0.0005508  -0.0002701   0.0001659  -0.0000088   0.0002536
            7           8           9          10          11          12
    1  -0.0000116   0.0003936  -0.0000078   0.0000372  -0.0000396  -0.0000039
    2  -0.0000119   0.0000182   0.0000404  -0.0000004  -0.0000110  -0.0000154
    3   0.0000159  -0.0002599  -0.0000497   0.0000304   0.0000964   0.0000575
           13          14          15          16          17          18
    1  -0.0000042  -0.0000182   0.0000023  -0.0000251  -0.0000264   0.0000083
    2   0.0000074   0.0000087  -0.0000013   0.0000258  -0.0000519  -0.0000058
    3  -0.0000520   0.0001240  -0.0000625  -0.0000182   0.0000066  -0.0000121
           19          20          21          22          23          24
    1  -0.0000106  -0.0000059   0.0000233   0.0000204  -0.0000251   0.0000110
    2   0.0000135  -0.0000195   0.0000221  -0.0000029  -0.0000312   0.0000130
    3  -0.0000294  -0.0000117   0.0000069   0.0000612   0.0000142  -0.0000118
           25          26          27          28          29          30
    1   0.0000040  -0.0000089  -0.0000043   0.0000193  -0.0000002   0.0000117
    2  -0.0000037   0.0000043   0.0000024   0.0000061  -0.0000129   0.0000041
    3  -0.0000009  -0.0000326  -0.0000234  -0.0000162  -0.0000568   0.0000004
           31          32          33          34          35          36
    1   0.0000046  -0.0000037   0.0000109  -0.0000166   0.0000014  -0.0000005
    2   0.0000090  -0.0000020  -0.0000068  -0.0000103  -0.0000005  -0.0000002
    3   0.0000192   0.0000267   0.0000236   0.0000049   0.0000064  -0.0000170
 Max gradient component =       5.508E-04
 RMS gradient           =       1.210E-04
 Gradient time:  CPU 431.09 s  wall 33.79 s
 Geometry Optimization Parameters
   NAtoms,    NIC,     NZ,  NCons,   NDum,   NFix, NCnnct, MaxDiis
       36     276       0       0       0       0       0       0


** GEOMETRY OPTIMIZATION IN DELOCALIZED INTERNAL COORDINATES **
   Searching for a Minimum

   Optimization Cycle:   1

                       Coordinates (Angstroms)
     ATOM                X               Y               Z
      1  C        -0.9342945500    1.1983217200    0.4885799700
      2  C         0.2211792100    0.1656006200    0.7407855700
      3  C        -2.2738449200    0.6293666200    0.0622118300
      4  C        -0.0626060900   -1.2749121800    0.3622875400
      5  O        -2.6838929700   -0.3087915300    0.9437322300
      6  O        -2.9313182100    0.9957949600   -0.8779354000
      7  O        -0.6624689000   -1.3790141300   -0.8410105000
      8  O         0.2547247600   -2.2281734300    1.0307123200
      9  C        -0.9661497800   -2.7090418000   -1.2913490300
     10  C        -3.9340223700   -0.9557905600    0.6465539900
     11  C        -0.2969000700    2.1478472300   -0.5541368100
     12  C         0.6793946300    3.0941224600    0.1693108800
     13  C         1.8279661900    2.1067995600    0.5307288800
     14  C         1.3441150800    0.8018829100   -0.1576743500
     15  O         0.5980201200    1.2868590200   -1.2795074500
     16  H        -1.1379574800    1.7304050000    1.4226929200
     17  H         0.5263530000    0.1386950500    1.7836387700
     18  H        -1.6245865400   -3.2114113600   -0.5804086800
     19  H        -3.8893255400   -1.4284007000   -0.3361386500
     20  H         1.0242855300    3.8707458400   -0.5150796800
     21  H         0.2342671200    3.5808218700    1.0397155200
     22  H         2.7817240600    2.4208867600    0.1044280500
     23  H         1.9711893100    1.9749589500    1.6031706000
     24  H        -1.4595586500   -2.5822602700   -2.2524014900
     25  H        -0.0515490900   -3.2939314100   -1.4030198200
     26  H        -4.7522034600   -0.2340658900    0.6598735900
     27  H        -4.0669421800   -1.7018596800    1.4267335400
     28  H        -1.0070699900    2.5995568600   -1.2404406200
     29  C         2.4437310100   -0.1287440200   -0.6238938900
     30  O         3.1877317700   -0.5105556400    0.5171106400
     31  H         3.0769110900    0.3979934300   -1.3524923000
     32  H         2.0178580700   -1.0068107400   -1.1278397300
     33  C         4.0952917900   -1.5665191900    0.2631098000
     34  H         4.6132688800   -1.7756708900    1.1989279500
     35  H         4.8327813300   -1.2866254700   -0.5023337300
     36  H         3.5654380600   -2.4712030600   -0.0636633000
   Point Group: c1    Number of degrees of freedom:   102


   Energy is   -919.748527245


 Attempting to Generate Delocalized Internal Coordinates

102 Hessian modes will be used to form the next step
  Hessian Eigenvalues:
     0.003164    0.006991    0.007035    0.007245    0.007310    0.010531
     0.010774    0.010796    0.010904    0.013614    0.013709    0.022119
     0.022451    0.022850    0.026376    0.033293    0.036128    0.038699
     0.041458    0.044987    0.048775    0.049821    0.051877    0.055138
     0.055474    0.055592    0.057154    0.061666    0.063779    0.064720
     0.065509    0.074802    0.081443    0.092011    0.099342    0.100608
     0.101332    0.101387    0.103688    0.105180    0.105973    0.106047
     0.110159    0.119545    0.122248    0.135992    0.153787    0.160000
     0.160000    0.160000    0.160000    0.160000    0.160000    0.160000
     0.160000    0.160000    0.173024    0.219551    0.233250    0.236652
     0.248512    0.249626    0.249830    0.250000    0.250000    0.250000
     0.250000    0.250000    0.256088    0.269729    0.279893    0.307022
     0.307352    0.309393    0.335687    0.337211    0.337761    0.338674
     0.338852    0.343377    0.345744    0.346410    0.346563    0.346572
     0.346866    0.346866    0.347102    0.348166    0.348285    0.349116
     0.350768    0.350865    0.351709    0.352790    0.397696    0.400467
     0.431670    0.432778    0.547968    0.553301    1.015128    1.026757

 Minimum Search - Taking Simple RFO Step
 Searching for Lamda that Minimizes Along All modes
 Value Taken    Lamda =  -0.00004670
 Step Taken.  Stepsize is  0.075975

                             Maximum     Tolerance    Cnvgd?
         Gradient           0.000315      0.000001      NO
         Displacement       0.038496      0.000001      NO
         Energy change     *********      0.000000      NO


 New Cartesian Coordinates Obtained by Inverse Iteration

 Displacement from previous Coordinates is:  0.119043
 Adding empirical dispersion correction 
 ----------------------------------------------------------------
 Doing -D3(op) with
 s6 =   1.00000
 s8 =   0.78311
 a1 =   0.30000
 a2 =   4.25000
 n  =  10.00000
 -D3 energy without 3body term =     -0.0416338751 hartrees
 ----------------------------------------------------------------
             Standard Nuclear Orientation (Angstroms)
    I     Atom           X                Y                Z
 ----------------------------------------------------------------
    1      C      -0.9342857578     1.1989569805     0.4910496310
    2      C       0.2223463983     0.1671292421     0.7407269926
    3      C      -2.2727627015     0.6294031941     0.0622235980
    4      C      -0.0612550780    -1.2739237194     0.3645245592
    5      O      -2.6881005015    -0.3034475523     0.9468563286
    6      O      -2.9192616511     0.9817006341    -0.8908928979
    7      O      -0.6503001324    -1.3810456750    -0.8438567530
    8      O       0.2296738447    -2.2247506415     1.0483018475
    9      C      -0.9649411144    -2.7111990985    -1.2862868009
   10      C      -3.9330613061    -0.9571250453     0.6424800632
   11      C      -0.2971765190     2.1503614321    -0.5503329231
   12      C       0.6794839978     3.0950793558     0.1747532087
   13      C       1.8298128418     2.1078153541     0.5308622996
   14      C       1.3445272219     0.8038522730    -0.1583610889
   15      O       0.5970277435     1.2907807153    -1.2783053521
   16      H      -1.1386787430     1.7297691459     1.4257257382
   17      H       0.5276365501     0.1411286357     1.7835695204
   18      H      -1.6360064777    -3.2000795971    -0.5777647694
   19      H      -3.8771501247    -1.4369929969    -0.3361027678
   20      H       1.0225156558     3.8746560420    -0.5072054175
   21      H       0.2351110505     3.5780355648     1.0476355292
   22      H       2.7818210012     2.4232270197     0.1016376262
   23      H       1.9768495273     1.9744256059     1.6025966500
   24      H      -1.4476095939    -2.5866695274    -2.2530825767
   25      H      -0.0561180681    -3.3073972210    -1.3844139464
   26      H      -4.7538510590    -0.2382621853     0.6425728986
   27      H      -4.0708814735    -1.6978017388     1.4269492741
   28      H      -1.0079623976     2.6036663160    -1.2349295292
   29      C       2.4430726260    -0.1267213108    -0.6270889639
   30      O       3.1880138928    -0.5107337980     0.5125564003
   31      H       3.0758129745     0.4006781447    -1.3555983301
   32      H       2.0161545507    -1.0037131464    -1.1320377788
   33      C       4.0941190718    -1.5673537928     0.2561201629
   34      H       4.6138886027    -1.7774453717     1.1907424744
   35      H       4.8302818930    -1.2877066549    -0.5106857443
   36      H       3.5627934750    -2.4714196729    -0.0699600027
 ----------------------------------------------------------------
 Nuclear Repulsion Energy =  1534.1590338387 hartrees
 There are       69 alpha and       69 beta electrons
 Applying Cartesian multipole field
    Component          Value
    ---------          -----
     (2,0,0)        1.00000E-11
     (0,2,0)        2.00000E-11
     (0,0,2)       -3.00000E-11
 Nucleus-field energy     =     0.0000000403 hartrees
 Requested basis set is 6-311++G(d,p)
 There are 198 shells and 522 basis functions
 A cutoff of  1.0D-11 yielded  15644 shell pairs
 There are    110419 function pairs (    117661 Cartesian)
 Smallest overlap matrix eigenvalue = 8.62E-07

 Q-Chem warning in module /fs/scratch/osu6415/qchem-kaunlao-vdw/stvman/mkSTV.C, line 281:

 Overlap eigenvalue is smaller than square root of threshold

 Linear dependence detected in AO basis
 Number of orthogonalized atomic orbitals = 521
 Maximum deviation from orthogonality = 1.046E-10
 Guess MOs from SCF MO coefficient file
 Reading MOs from coefficient file
 Reading MOs from coefficient file
 A restricted hybrid HF-DFT SCF calculation will be
 performed using Pulay DIIS extrapolation
 Exchange:     0.2000 Hartree-Fock + 0.0800 Slater + 0.7200 B88
 Correlation:  0.1900 VWN1RPA + 0.8100 LYP
 Using SG-1 standard quadrature grid
 Dispersion:   Grimme D3
 SCF converges when DIIS error is below 1.0E-08
 Geometry optimization detected.  Setting ReadMinima to 0
 Setting SaveMinima to 0
 using 20 threads for integral computing
 -------------------------------------------------------
 OpenMP Integral computing Module                
 Release: version 1.0, May 2013, Q-Chem Inc. Pittsburgh 
 -------------------------------------------------------
 -------------------------------------------------------
 OpenMP BLAS3 based DFT computing Module                
 Release: version 1.0, May 2013, Q-Chem Inc. Pittsburgh 
 -------------------------------------------------------
 ---------------------------------------
  Cycle       Energy         DIIS Error
 ---------------------------------------
    1    -919.7480432215      2.59E-04
    2    -919.7485167427      1.71E-05
    3    -919.7485266672      1.61E-05
    4    -919.7485323320      6.56E-06
    5    -919.7485332947      2.07E-06
    6    -919.7485333459      1.61E-06
    7    -919.7485334070      3.58E-07
    8    -919.7485334103      7.19E-08
    9    -919.7485334098      2.95E-08
   10    -919.7485334076      1.07E-08
   11    -919.7485333924      4.70E-09 Convergence criterion met
 ---------------------------------------
 SCF time:  CPU 944.97 s  wall 61.14 s
 SCF   energy in the final basis set = -919.74853339
 Total energy in the final basis set = -919.74853339
 
 --------------------------------------------------------------
 
                    Orbital Energies (a.u.)
 --------------------------------------------------------------
 
 Alpha MOs
 -- Occupied --
-19.175 -19.172 -19.134 -19.132 -19.119 -19.115 -10.309 -10.304
-10.244 -10.232 -10.230 -10.230 -10.226 -10.216 -10.206 -10.203
-10.178 -10.177  -1.119  -1.112  -1.066  -1.046  -1.030  -1.026
 -0.832  -0.795  -0.783  -0.747  -0.729  -0.713  -0.662  -0.648
 -0.606  -0.589  -0.568  -0.563  -0.538  -0.518  -0.515  -0.500
 -0.494  -0.485  -0.483  -0.477  -0.474  -0.470  -0.459  -0.447
 -0.430  -0.425  -0.424  -0.406  -0.398  -0.393  -0.380  -0.373
 -0.369  -0.361  -0.357  -0.357  -0.340  -0.334  -0.327  -0.319
 -0.313  -0.289  -0.280  -0.275  -0.269
 -- Virtual --
 -0.018  -0.011  -0.005  -0.003   0.006   0.010   0.013   0.018
  0.023   0.027   0.031   0.036   0.037   0.043   0.045   0.051
  0.055   0.056   0.061   0.069   0.072   0.078   0.083   0.084
  0.094   0.095   0.100   0.102   0.105   0.109   0.112   0.113
  0.115   0.119   0.122   0.125   0.128   0.130   0.132   0.134
  0.136   0.137   0.141   0.145   0.146   0.150   0.152   0.154
  0.157   0.161   0.163   0.167   0.169   0.172   0.175   0.177
  0.179   0.183   0.187   0.188   0.193   0.197   0.198   0.202
  0.205   0.210   0.213   0.219   0.221   0.227   0.228   0.235
  0.237   0.238   0.247   0.251   0.257   0.259   0.263   0.268
  0.270   0.275   0.277   0.285   0.285   0.289   0.292   0.298
  0.303   0.306   0.311   0.318   0.322   0.323   0.331   0.334
  0.337   0.340   0.347   0.349   0.352   0.359   0.365   0.368
  0.370   0.372   0.374   0.377   0.381   0.386   0.391   0.395
  0.397   0.402   0.415   0.423   0.427   0.438   0.440   0.448
  0.458   0.465   0.471   0.477   0.493   0.500   0.508   0.512
  0.515   0.526   0.538   0.541   0.551   0.553   0.562   0.567
  0.576   0.585   0.596   0.596   0.602   0.610   0.619   0.624
  0.631   0.641   0.647   0.650   0.657   0.658   0.670   0.672
  0.682   0.685   0.689   0.692   0.700   0.707   0.714   0.715
  0.722   0.727   0.737   0.740   0.746   0.748   0.750   0.756
  0.772   0.775   0.783   0.789   0.799   0.808   0.818   0.828
  0.840   0.846   0.858   0.874   0.915   0.921   0.943   0.966
  0.981   0.998   1.018   1.032   1.057   1.059   1.064   1.086
  1.097   1.106   1.114   1.129   1.133   1.151   1.161   1.172
  1.189   1.199   1.210   1.219   1.223   1.242   1.249   1.252
  1.257   1.279   1.282   1.295   1.309   1.317   1.328   1.347
  1.354   1.368   1.379   1.398   1.400   1.404   1.406   1.428
  1.440   1.450   1.455   1.462   1.470   1.493   1.509   1.512
  1.515   1.538   1.543   1.555   1.562   1.570   1.573   1.582
  1.585   1.590   1.595   1.602   1.606   1.619   1.628   1.640
  1.660   1.663   1.668   1.670   1.683   1.696   1.700   1.709
  1.715   1.721   1.727   1.741   1.744   1.752   1.766   1.774
  1.780   1.800   1.807   1.812   1.823   1.835   1.843   1.850
  1.867   1.875   1.887   1.898   1.911   1.921   1.942   1.946
  1.955   1.972   1.998   2.008   2.019   2.035   2.038   2.041
  2.064   2.079   2.082   2.111   2.120   2.126   2.141   2.143
  2.158   2.166   2.182   2.188   2.196   2.209   2.244   2.246
  2.256   2.279   2.332   2.339   2.346   2.371   2.386   2.438
  2.442   2.457   2.466   2.476   2.487   2.498   2.506   2.509
  2.518   2.523   2.529   2.532   2.540   2.560   2.585   2.586
  2.597   2.611   2.620   2.626   2.649   2.679   2.685   2.701
  2.724   2.737   2.756   2.774   2.794   2.808   2.820   2.837
  2.855   2.862   2.874   2.877   2.881   2.891   2.912   2.921
  2.936   2.963   2.974   2.983   2.997   3.018   3.034   3.038
  3.049   3.063   3.065   3.078   3.105   3.113   3.118   3.130
  3.145   3.155   3.163   3.203   3.219   3.227   3.241   3.256
  3.262   3.269   3.276   3.309   3.357   3.368   3.383   3.395
  3.408   3.455   3.584   3.596   3.612   3.672   3.697   3.738
  3.777   3.780   3.786   3.810   3.825   3.837   3.859   3.939
  3.963   4.049   4.064   4.080   4.088   4.104   4.129   4.138
  4.148   4.157   4.176   4.218   4.257   4.277   4.441   4.504
  5.044   5.107   5.120   5.175   5.198   5.221   5.266   5.275
  5.410   5.427   5.444   5.522   5.615   5.643   5.652   5.722
  5.875   5.901  23.795  23.841  23.846  23.870  23.907  23.918
 23.933  23.934  23.949  23.967  23.983  24.049  49.907  49.947
 49.971  49.994  50.041  50.057
 --------------------------------------------------------------
 
          Ground-State Mulliken Net Atomic Charges

     Atom                 Charge (a.u.)
  ----------------------------------------
      1 C                    -0.035375
      2 C                     0.363309
      3 C                    -0.515673
      4 C                    -0.677910
      5 O                    -0.013317
      6 O                    -0.203668
      7 O                     0.020044
      8 O                    -0.106688
      9 C                    -0.190698
     10 C                    -0.201875
     11 C                    -0.096486
     12 C                    -0.495747
     13 C                    -0.309611
     14 C                    -0.858997
     15 O                    -0.051450
     16 H                     0.247838
     17 H                     0.290998
     18 H                     0.190788
     19 H                     0.177010
     20 H                     0.185475
     21 H                     0.124577
     22 H                     0.165385
     23 H                     0.187484
     24 H                     0.180149
     25 H                     0.167031
     26 H                     0.173858
     27 H                     0.164131
     28 H                     0.287446
     29 C                     0.295314
     30 O                    -0.032451
     31 H                     0.190966
     32 H                     0.189901
     33 C                    -0.240678
     34 H                     0.148925
     35 H                     0.135490
     36 H                     0.144505
  ----------------------------------------
  Sum of atomic charges =    -0.000000

 -----------------------------------------------------------------
                    Cartesian Multipole Moments
 -----------------------------------------------------------------
    Charge (ESU x 10^10)
                -0.0000
    Dipole Moment (Debye)
         X       0.1472      Y      -0.2576      Z       0.2980
       Tot       0.4205
    Quadrupole Moments (Debye-Ang)
        XX     -98.1668     XY       5.1115     YY    -101.1467
        XZ      -6.9009     YZ      10.5917     ZZ    -112.1967
    Octopole Moments (Debye-Ang^2)
       XXX      -9.4911    XXY     -46.7192    XYY      -9.1194
       YYY      -7.6375    XXZ      11.6048    XYZ      -5.6377
       YYZ     -16.7588    XZZ      -3.2967    YZZ      -7.0156
       ZZZ       2.0566
    Hexadecapole Moments (Debye-Ang^3)
      XXXX   -2927.5965   XXXY      -4.2982   XXYY    -788.2434
      XYYY     -10.3405   YYYY   -1831.6539   XXXZ     -97.7178
      XXYZ      -4.5863   XYYZ      -3.8498   YYYZ      32.0067
      XXZZ    -626.1167   XYZZ      -1.0162   YYZZ    -393.2902
      XZZZ       7.9384   YZZZ      15.2766   ZZZZ    -527.1558
 -----------------------------------------------------------------
 Calculating analytic gradient of the SCF energy
 Gradient of SCF Energy
            1           2           3           4           5           6
    1   0.0004807  -0.0009138  -0.0006187   0.0018498   0.0000165   0.0002528
    2  -0.0002990   0.0001903   0.0009023   0.0000215  -0.0003319  -0.0002400
    3  -0.0005226   0.0005985   0.0009854  -0.0010922  -0.0001284  -0.0002764
            7           8           9          10          11          12
    1  -0.0005128  -0.0005175  -0.0000027   0.0000518  -0.0000504  -0.0000471
    2  -0.0000852   0.0000017   0.0000488   0.0000205  -0.0000067  -0.0000261
    3   0.0001453   0.0002790  -0.0000046  -0.0000033   0.0000959   0.0000571
           13          14          15          16          17          18
    1  -0.0000165   0.0001985   0.0001077  -0.0002024  -0.0000630  -0.0000255
    2   0.0000273  -0.0003174  -0.0000846   0.0001132   0.0000165   0.0000021
    3  -0.0000266  -0.0000617   0.0000018  -0.0000787   0.0000263  -0.0000236
           19          20          21          22          23          24
    1  -0.0000070   0.0000029   0.0000049   0.0000077  -0.0000210   0.0000044
    2  -0.0000052  -0.0000077   0.0000196  -0.0000174  -0.0000137   0.0000011
    3  -0.0000158  -0.0000025   0.0000078   0.0000536   0.0000149  -0.0000254
           25          26          27          28          29          30
    1   0.0000131  -0.0000011  -0.0000176  -0.0000199   0.0000504   0.0000225
    2   0.0000212   0.0000081  -0.0000092   0.0000202  -0.0000258   0.0000742
    3  -0.0000088  -0.0000206  -0.0000197   0.0000375   0.0000359  -0.0000660
           31          32          33          34          35          36
    1   0.0000007   0.0000139  -0.0000272  -0.0000134   0.0000109  -0.0000116
    2   0.0000078  -0.0000108  -0.0000396  -0.0000097   0.0000149   0.0000184
    3   0.0000067   0.0000109  -0.0000039   0.0000073   0.0000050   0.0000119
 Max gradient component =       1.850E-03
 RMS gradient           =       3.020E-04
 Gradient time:  CPU 430.85 s  wall 32.86 s
 Geometry Optimization Parameters
   NAtoms,    NIC,     NZ,  NCons,   NDum,   NFix, NCnnct, MaxDiis
       36     276       0       0       0       0       0       0

 Cartesian Hessian Update
 Hessian Updated using BFGS Update


** GEOMETRY OPTIMIZATION IN DELOCALIZED INTERNAL COORDINATES **
   Searching for a Minimum

   Optimization Cycle:   2

                       Coordinates (Angstroms)
     ATOM                X               Y               Z
      1  C        -0.9342857578    1.1989569805    0.4910496310
      2  C         0.2223463983    0.1671292421    0.7407269926
      3  C        -2.2727627015    0.6294031941    0.0622235980
      4  C        -0.0612550780   -1.2739237194    0.3645245592
      5  O        -2.6881005015   -0.3034475523    0.9468563286
      6  O        -2.9192616511    0.9817006341   -0.8908928979
      7  O        -0.6503001324   -1.3810456750   -0.8438567530
      8  O         0.2296738447   -2.2247506415    1.0483018475
      9  C        -0.9649411144   -2.7111990985   -1.2862868009
     10  C        -3.9330613061   -0.9571250453    0.6424800632
     11  C        -0.2971765190    2.1503614321   -0.5503329231
     12  C         0.6794839978    3.0950793558    0.1747532087
     13  C         1.8298128418    2.1078153541    0.5308622996
     14  C         1.3445272219    0.8038522730   -0.1583610889
     15  O         0.5970277435    1.2907807153   -1.2783053521
     16  H        -1.1386787430    1.7297691459    1.4257257382
     17  H         0.5276365501    0.1411286357    1.7835695204
     18  H        -1.6360064777   -3.2000795971   -0.5777647694
     19  H        -3.8771501247   -1.4369929969   -0.3361027678
     20  H         1.0225156558    3.8746560420   -0.5072054175
     21  H         0.2351110505    3.5780355648    1.0476355292
     22  H         2.7818210012    2.4232270197    0.1016376262
     23  H         1.9768495273    1.9744256059    1.6025966500
     24  H        -1.4476095939   -2.5866695274   -2.2530825767
     25  H        -0.0561180681   -3.3073972210   -1.3844139464
     26  H        -4.7538510590   -0.2382621853    0.6425728986
     27  H        -4.0708814735   -1.6978017388    1.4269492741
     28  H        -1.0079623976    2.6036663160   -1.2349295292
     29  C         2.4430726260   -0.1267213108   -0.6270889639
     30  O         3.1880138928   -0.5107337980    0.5125564003
     31  H         3.0758129745    0.4006781447   -1.3555983301
     32  H         2.0161545507   -1.0037131464   -1.1320377788
     33  C         4.0941190718   -1.5673537928    0.2561201629
     34  H         4.6138886027   -1.7774453717    1.1907424744
     35  H         4.8302818930   -1.2877066549   -0.5106857443
     36  H         3.5627934750   -2.4714196729   -0.0699600027
   Point Group: c1    Number of degrees of freedom:   102


   Energy is   -919.748533392

 Hessian Updated using BFGS Update

 92 Hessian modes will be used to form the next step
  Hessian Eigenvalues:
     0.002486    0.004666    0.007014    0.007293    0.007341    0.010531
     0.010792    0.010810    0.013604    0.013703    0.022116    0.022427
     0.022847    0.026256    0.028180    0.034500    0.036910    0.038787
     0.041338    0.044338    0.048816    0.050469    0.052110    0.055150
     0.055475    0.056436    0.057565    0.061659    0.063905    0.064790
     0.065612    0.074797    0.081909    0.092466    0.099445    0.100608
     0.101328    0.101379    0.104572    0.105183    0.105973    0.106047
     0.110162    0.121453    0.126220    0.135996    0.155250    0.159994
     0.160094    0.175324    0.219554    0.234007    0.236737    0.248535
     0.249689    0.249829    0.249989    0.251346    0.256092    0.269693
     0.279894    0.307038    0.307304    0.309384    0.336846    0.337213
     0.337765    0.338675    0.338860    0.343388    0.345744    0.346411
     0.346562    0.346571    0.346865    0.346867    0.347105    0.348166
     0.348285    0.349088    0.350770    0.350866    0.351710    0.352789
     0.397677    0.400474    0.431678    0.432889    0.548112    0.553476
     1.015172    1.026735

 Minimum Search - Taking Simple RFO Step
 Searching for Lamda that Minimizes Along All modes
 Value Taken    Lamda =  -0.00004959
 Step Taken.  Stepsize is  0.081551

                             Maximum     Tolerance    Cnvgd?
         Gradient           0.000635      0.000001      NO
         Displacement       0.028441      0.000001      NO
         Energy change     -0.000006      0.000000      NO


 New Cartesian Coordinates Obtained by Inverse Iteration

 Displacement from previous Coordinates is:  0.222787
 Adding empirical dispersion correction 
 ----------------------------------------------------------------
 Doing -D3(op) with
 s6 =   1.00000
 s8 =   0.78311
 a1 =   0.30000
 a2 =   4.25000
 n  =  10.00000
 -D3 energy without 3body term =     -0.0415936901 hartrees
 ----------------------------------------------------------------
             Standard Nuclear Orientation (Angstroms)
    I     Atom           X                Y                Z
 ----------------------------------------------------------------
    1      C      -0.9381908658     1.2011361901     0.4945280473
    2      C       0.2206480646     0.1720010696     0.7440189312
    3      C      -2.2719552080     0.6275392884     0.0565128556
    4      C      -0.0653166539    -1.2713058136     0.3788010448
    5      O      -2.6973194656    -0.2954354931     0.9465755274
    6      O      -2.9119755547     0.9761019465    -0.9023654604
    7      O      -0.6283177837    -1.3881535185    -0.8409896585
    8      O       0.2182962264    -2.2169843494     1.0727354236
    9      C      -0.9333636751    -2.7219521208    -1.2792947789
   10      C      -3.9418614528    -0.9482501623     0.6383513126
   11      C      -0.3002418626     2.1564880139    -0.5429484098
   12      C       0.6792635504     3.0965671997     0.1847669607
   13      C       1.8319725772     2.1079388260     0.5293684775
   14      C       1.3404233364     0.8064003794    -0.1597178257
   15      O       0.5904128755     1.2977562772    -1.2759963161
   16      H      -1.1468438076     1.7283497659     1.4302721476
   17      H       0.5280471332     0.1514174097     1.7863567799
   18      H      -1.6184928065    -3.2055961934    -0.5807356493
   19      H      -3.8796514875    -1.4371542146    -0.3353564380
   20      H       1.0191851633     3.8811540562    -0.4929768023
   21      H       0.2380944790     3.5731649270     1.0627605682
   22      H       2.7805935082     2.4241244560     0.0932384985
   23      H       1.9874477658     1.9716721160     1.5995499675
   24      H      -1.3964071052    -2.6051687373    -2.2566005464
   25      H      -0.0225657084    -3.3184639414    -1.3544153923
   26      H      -4.7605259532    -0.2270996801     0.6256309619
   27      H      -4.0878865566    -1.6813889382     1.4284009441
   28      H      -1.0112237515     2.6138954201    -1.2245880917
   29      C       2.4343569086    -0.1268482051    -0.6337263372
   30      O       3.1809686055    -0.5165531885     0.5029605281
   31      H       3.0669442665     0.4000675643    -1.3627214724
   32      H       2.0029012384    -1.0009778886    -1.1397880893
   33      C       4.0830898216    -1.5752963387     0.2412133424
   34      H       4.6054888356    -1.7888656357     1.1735885180
   35      H       4.8174585671    -1.2962216428    -0.5274981408
   36      H       3.5480869955    -2.4771819338    -0.0849322679
 ----------------------------------------------------------------
 Nuclear Repulsion Energy =  1534.0154525022 hartrees
 There are       69 alpha and       69 beta electrons
 Applying Cartesian multipole field
    Component          Value
    ---------          -----
     (2,0,0)        1.00000E-11
     (0,2,0)        2.00000E-11
     (0,0,2)       -3.00000E-11
 Nucleus-field energy     =     0.0000000403 hartrees
 Requested basis set is 6-311++G(d,p)
 There are 198 shells and 522 basis functions
 A cutoff of  1.0D-11 yielded  15648 shell pairs
 There are    110433 function pairs (    117671 Cartesian)
 Smallest overlap matrix eigenvalue = 8.55E-07

 Q-Chem warning in module /fs/scratch/osu6415/qchem-kaunlao-vdw/stvman/mkSTV.C, line 281:

 Overlap eigenvalue is smaller than square root of threshold

 Linear dependence detected in AO basis
 Number of orthogonalized atomic orbitals = 521
 Maximum deviation from orthogonality = 1.140E-10
 Guess MOs from SCF MO coefficient file
 Reading MOs from coefficient file
 Reading MOs from coefficient file
 A restricted hybrid HF-DFT SCF calculation will be
 performed using Pulay DIIS extrapolation
 Exchange:     0.2000 Hartree-Fock + 0.0800 Slater + 0.7200 B88
 Correlation:  0.1900 VWN1RPA + 0.8100 LYP
 Using SG-1 standard quadrature grid
 Dispersion:   Grimme D3
 SCF converges when DIIS error is below 1.0E-08
 Geometry optimization detected.  Setting ReadMinima to 0
 Setting SaveMinima to 0
 using 20 threads for integral computing
 -------------------------------------------------------
 OpenMP Integral computing Module                
 Release: version 1.0, May 2013, Q-Chem Inc. Pittsburgh 
 -------------------------------------------------------
 -------------------------------------------------------
 OpenMP BLAS3 based DFT computing Module                
 Release: version 1.0, May 2013, Q-Chem Inc. Pittsburgh 
 -------------------------------------------------------
 ---------------------------------------
  Cycle       Energy         DIIS Error
 ---------------------------------------
    1    -919.7523066944      2.76E-04
    2    -919.7484776382      4.40E-05
    3    -919.7484165061      6.94E-05
    4    -919.7485358894      1.24E-05
    5    -919.7485388687      5.98E-06
    6    -919.7485397314      1.67E-06
    7    -919.7485397947      5.15E-07
    8    -919.7485398011      1.81E-07
    9    -919.7485398014      6.50E-08
   10    -919.7485397997      2.36E-08
   11    -919.7485397959      8.76E-09 Convergence criterion met
 ---------------------------------------
 SCF time:  CPU 984.83 s  wall 65.03 s
 SCF   energy in the final basis set = -919.74853980
 Total energy in the final basis set = -919.74853980
 
 --------------------------------------------------------------
 
                    Orbital Energies (a.u.)
 --------------------------------------------------------------
 
 Alpha MOs
 -- Occupied --
-19.175 -19.172 -19.134 -19.132 -19.119 -19.115 -10.309 -10.304
-10.244 -10.232 -10.230 -10.230 -10.226 -10.216 -10.206 -10.203
-10.178 -10.177  -1.119  -1.112  -1.066  -1.046  -1.031  -1.026
 -0.832  -0.795  -0.783  -0.747  -0.729  -0.713  -0.662  -0.648
 -0.606  -0.589  -0.568  -0.563  -0.538  -0.518  -0.515  -0.500
 -0.494  -0.485  -0.483  -0.477  -0.474  -0.470  -0.459  -0.447
 -0.430  -0.425  -0.424  -0.406  -0.398  -0.393  -0.380  -0.373
 -0.369  -0.361  -0.357  -0.357  -0.340  -0.334  -0.327  -0.319
 -0.314  -0.289  -0.280  -0.275  -0.269
 -- Virtual --
 -0.018  -0.011  -0.005  -0.003   0.006   0.010   0.013   0.018
  0.023   0.027   0.031   0.036   0.037   0.043   0.045   0.051
  0.054   0.056   0.060   0.069   0.072   0.078   0.084   0.084
  0.094   0.095   0.100   0.102   0.105   0.109   0.112   0.113
  0.115   0.119   0.122   0.125   0.128   0.130   0.132   0.134
  0.136   0.137   0.141   0.144   0.146   0.150   0.152   0.154
  0.157   0.161   0.162   0.167   0.169   0.172   0.175   0.178
  0.179   0.182   0.187   0.189   0.193   0.197   0.198   0.201
  0.205   0.210   0.213   0.219   0.221   0.227   0.229   0.235
  0.237   0.238   0.246   0.251   0.257   0.259   0.263   0.268
  0.270   0.275   0.277   0.284   0.285   0.289   0.292   0.298
  0.302   0.306   0.311   0.318   0.322   0.323   0.331   0.334
  0.337   0.340   0.346   0.349   0.353   0.359   0.365   0.368
  0.371   0.372   0.374   0.378   0.381   0.386   0.391   0.395
  0.398   0.403   0.416   0.423   0.427   0.438   0.440   0.448
  0.458   0.465   0.470   0.476   0.493   0.499   0.507   0.510
  0.515   0.526   0.537   0.542   0.551   0.552   0.562   0.566
  0.575   0.585   0.596   0.596   0.603   0.610   0.619   0.624
  0.631   0.641   0.647   0.650   0.656   0.659   0.671   0.673
  0.681   0.685   0.690   0.692   0.700   0.707   0.714   0.715
  0.723   0.727   0.737   0.740   0.746   0.748   0.750   0.756
  0.772   0.776   0.783   0.789   0.799   0.808   0.818   0.828
  0.842   0.847   0.859   0.875   0.917   0.922   0.943   0.966
  0.981   0.998   1.018   1.032   1.057   1.059   1.065   1.084
  1.097   1.107   1.115   1.130   1.133   1.151   1.160   1.172
  1.189   1.199   1.210   1.217   1.224   1.243   1.249   1.252
  1.257   1.279   1.284   1.296   1.310   1.317   1.327   1.347
  1.354   1.369   1.378   1.396   1.400   1.404   1.406   1.428
  1.440   1.450   1.454   1.462   1.470   1.492   1.509   1.512
  1.515   1.538   1.543   1.555   1.562   1.569   1.573   1.581
  1.584   1.590   1.596   1.603   1.606   1.618   1.628   1.641
  1.660   1.663   1.668   1.670   1.683   1.696   1.699   1.710
  1.715   1.721   1.727   1.742   1.744   1.753   1.767   1.774
  1.780   1.800   1.807   1.813   1.823   1.835   1.843   1.850
  1.867   1.876   1.888   1.898   1.911   1.922   1.943   1.946
  1.955   1.971   1.999   2.008   2.019   2.036   2.037   2.041
  2.065   2.079   2.083   2.110   2.121   2.126   2.141   2.143
  2.157   2.165   2.182   2.188   2.195   2.209   2.244   2.246
  2.256   2.277   2.331   2.340   2.346   2.371   2.386   2.438
  2.442   2.457   2.466   2.476   2.487   2.498   2.506   2.509
  2.519   2.523   2.528   2.532   2.539   2.560   2.584   2.586
  2.597   2.611   2.620   2.627   2.649   2.679   2.687   2.701
  2.725   2.737   2.756   2.774   2.795   2.808   2.821   2.836
  2.855   2.862   2.874   2.877   2.880   2.891   2.911   2.922
  2.937   2.963   2.975   2.984   2.999   3.017   3.033   3.038
  3.051   3.062   3.065   3.077   3.104   3.113   3.118   3.130
  3.146   3.156   3.163   3.203   3.218   3.226   3.241   3.254
  3.261   3.268   3.276   3.308   3.358   3.368   3.383   3.395
  3.407   3.454   3.585   3.596   3.611   3.672   3.697   3.738
  3.777   3.780   3.786   3.810   3.825   3.838   3.858   3.939
  3.964   4.051   4.065   4.080   4.087   4.104   4.130   4.139
  4.148   4.157   4.176   4.217   4.258   4.277   4.441   4.503
  5.048   5.106   5.120   5.175   5.195   5.221   5.266   5.275
  5.410   5.426   5.444   5.522   5.615   5.643   5.652   5.722
  5.876   5.901  23.795  23.841  23.847  23.870  23.908  23.918
 23.932  23.934  23.949  23.967  23.984  24.049  49.907  49.946
 49.972  49.994  50.041  50.057
 --------------------------------------------------------------
 
          Ground-State Mulliken Net Atomic Charges

     Atom                 Charge (a.u.)
  ----------------------------------------
      1 C                    -0.025778
      2 C                     0.379136
      3 C                    -0.525670
      4 C                    -0.688201
      5 O                    -0.013695
      6 O                    -0.202502
      7 O                     0.022114
      8 O                    -0.105240
      9 C                    -0.191133
     10 C                    -0.200126
     11 C                    -0.096649
     12 C                    -0.490787
     13 C                    -0.313320
     14 C                    -0.868954
     15 O                    -0.051547
     16 H                     0.249024
     17 H                     0.290978
     18 H                     0.190147
     19 H                     0.176547
     20 H                     0.185558
     21 H                     0.124394
     22 H                     0.165414
     23 H                     0.186759
     24 H                     0.180113
     25 H                     0.167235
     26 H                     0.173721
     27 H                     0.164006
     28 H                     0.286730
     29 C                     0.295988
     30 O                    -0.032068
     31 H                     0.191305
     32 H                     0.188160
     33 C                    -0.240471
     34 H                     0.149133
     35 H                     0.135621
     36 H                     0.144054
  ----------------------------------------
  Sum of atomic charges =    -0.000000

 -----------------------------------------------------------------
                    Cartesian Multipole Moments
 -----------------------------------------------------------------
    Charge (ESU x 10^10)
                -0.0000
    Dipole Moment (Debye)
         X       0.1501      Y      -0.2605      Z       0.2856
       Tot       0.4147
    Quadrupole Moments (Debye-Ang)
        XX     -98.0880     XY       4.9655     YY    -101.0050
        XZ      -6.9499     YZ      10.6968     ZZ    -112.3595
    Octopole Moments (Debye-Ang^2)
       XXX     -10.2944    XXY     -46.3605    XYY      -8.7937
       YYY      -8.1473    XXZ      11.5309    XYZ      -5.5316
       YYZ     -17.0194    XZZ      -2.9001    YZZ      -6.8565
       ZZZ       1.6725
    Hexadecapole Moments (Debye-Ang^3)
      XXXX   -2917.3662   XXXY      -2.2511   XXYY    -787.3494
      XYYY      -8.8312   YYYY   -1833.7894   XXXZ     -95.2927
      XXYZ      -4.9181   XYYZ      -2.8149   YYYZ      31.9372
      XXZZ    -625.6479   XYZZ       0.0059   YYZZ    -394.9737
      XZZZ      10.2253   YZZZ      15.4946   ZZZZ    -528.6465
 -----------------------------------------------------------------
 Calculating analytic gradient of the SCF energy
 Gradient of SCF Energy
            1           2           3           4           5           6
    1   0.0000292  -0.0003353   0.0001302  -0.0005827  -0.0003402  -0.0000188
    2  -0.0004687   0.0003520  -0.0004015   0.0002297   0.0002610   0.0001681
    3  -0.0000763  -0.0000466   0.0002246  -0.0001804   0.0002045  -0.0000187
            7           8           9          10          11          12
    1   0.0005255   0.0003209   0.0001032   0.0000507   0.0000264  -0.0000796
    2  -0.0003107  -0.0000627   0.0000773   0.0001104   0.0001246  -0.0000462
    3  -0.0002239  -0.0000473   0.0000722  -0.0000140   0.0000251   0.0000710
           13          14          15          16          17          18
    1   0.0001480   0.0001150   0.0000724   0.0000219  -0.0000914  -0.0000251
    2   0.0000738  -0.0002169  -0.0000479   0.0001891  -0.0000393   0.0000395
    3  -0.0001345   0.0000418  -0.0000268   0.0000508   0.0000077  -0.0000014
           19          20          21          22          23          24
    1   0.0000200   0.0000327  -0.0000057   0.0000259  -0.0000360   0.0000196
    2   0.0000059  -0.0000076   0.0000388   0.0000188  -0.0000150   0.0000120
    3  -0.0000208  -0.0000029   0.0000063   0.0000857   0.0000262  -0.0000505
           25          26          27          28          29          30
    1  -0.0000193  -0.0000232  -0.0000208  -0.0000394   0.0000581  -0.0000595
    2  -0.0000024  -0.0000288  -0.0000047  -0.0000101   0.0000601   0.0000836
    3  -0.0000581  -0.0000107  -0.0000043   0.0000511   0.0002022  -0.0001171
           31          32          33          34          35          36
    1  -0.0000238   0.0000093  -0.0000094  -0.0000006   0.0000101  -0.0000084
    2  -0.0000074  -0.0001073  -0.0001041  -0.0000065   0.0000207   0.0000223
    3  -0.0000211  -0.0000297  -0.0000277   0.0000083   0.0000128   0.0000225
 Max gradient component =       5.827E-04
 RMS gradient           =       1.448E-04
 Gradient time:  CPU 433.14 s  wall 33.48 s
 Geometry Optimization Parameters
   NAtoms,    NIC,     NZ,  NCons,   NDum,   NFix, NCnnct, MaxDiis
       36     276       0       0       0       0       0       0

 Cartesian Hessian Update
 Hessian Updated using BFGS Update


** GEOMETRY OPTIMIZATION IN DELOCALIZED INTERNAL COORDINATES **
   Searching for a Minimum

   Optimization Cycle:   3

                       Coordinates (Angstroms)
     ATOM                X               Y               Z
      1  C        -0.9381908658    1.2011361901    0.4945280473
      2  C         0.2206480646    0.1720010696    0.7440189312
      3  C        -2.2719552080    0.6275392884    0.0565128556
      4  C        -0.0653166539   -1.2713058136    0.3788010448
      5  O        -2.6973194656   -0.2954354931    0.9465755274
      6  O        -2.9119755547    0.9761019465   -0.9023654604
      7  O        -0.6283177837   -1.3881535185   -0.8409896585
      8  O         0.2182962264   -2.2169843494    1.0727354236
      9  C        -0.9333636751   -2.7219521208   -1.2792947789
     10  C        -3.9418614528   -0.9482501623    0.6383513126
     11  C        -0.3002418626    2.1564880139   -0.5429484098
     12  C         0.6792635504    3.0965671997    0.1847669607
     13  C         1.8319725772    2.1079388260    0.5293684775
     14  C         1.3404233364    0.8064003794   -0.1597178257
     15  O         0.5904128755    1.2977562772   -1.2759963161
     16  H        -1.1468438076    1.7283497659    1.4302721476
     17  H         0.5280471332    0.1514174097    1.7863567799
     18  H        -1.6184928065   -3.2055961934   -0.5807356493
     19  H        -3.8796514875   -1.4371542146   -0.3353564380
     20  H         1.0191851633    3.8811540562   -0.4929768023
     21  H         0.2380944790    3.5731649270    1.0627605682
     22  H         2.7805935082    2.4241244560    0.0932384985
     23  H         1.9874477658    1.9716721160    1.5995499675
     24  H        -1.3964071052   -2.6051687373   -2.2566005464
     25  H        -0.0225657084   -3.3184639414   -1.3544153923
     26  H        -4.7605259532   -0.2270996801    0.6256309619
     27  H        -4.0878865566   -1.6813889382    1.4284009441
     28  H        -1.0112237515    2.6138954201   -1.2245880917
     29  C         2.4343569086   -0.1268482051   -0.6337263372
     30  O         3.1809686055   -0.5165531885    0.5029605281
     31  H         3.0669442665    0.4000675643   -1.3627214724
     32  H         2.0029012384   -1.0009778886   -1.1397880893
     33  C         4.0830898216   -1.5752963387    0.2412133424
     34  H         4.6054888356   -1.7888656357    1.1735885180
     35  H         4.8174585671   -1.2962216428   -0.5274981408
     36  H         3.5480869955   -2.4771819338   -0.0849322679
   Point Group: c1    Number of degrees of freedom:   102


   Energy is   -919.748539796

 Hessian Updated using BFGS Update

 94 Hessian modes will be used to form the next step
  Hessian Eigenvalues:
     0.001465    0.006065    0.007035    0.007306    0.008497    0.010530
     0.010790    0.010810    0.013598    0.013719    0.022109    0.022443
     0.022805    0.026181    0.031984    0.035548    0.037747    0.041069
     0.042993    0.048058    0.049599    0.051787    0.054707    0.055409
     0.055670    0.057010    0.061512    0.062546    0.064014    0.065374
     0.065644    0.074854    0.083437    0.091905    0.099370    0.100608
     0.101340    0.101376    0.105063    0.105271    0.105986    0.106048
     0.110207    0.118787    0.122288    0.136041    0.157303    0.159987
     0.160005    0.161394    0.173117    0.219625    0.234027    0.236601
     0.248518    0.249526    0.249840    0.249927    0.250014    0.251477
     0.256212    0.270285    0.279919    0.307035    0.307347    0.309385
     0.335318    0.337211    0.337759    0.338826    0.338858    0.343575
     0.345747    0.346408    0.346564    0.346572    0.346864    0.346869
     0.347103    0.348168    0.348285    0.349063    0.350775    0.350866
     0.351719    0.352791    0.397667    0.400544    0.431728    0.432811
     0.547967    0.553599    1.015204    1.026784

 Minimum Search - Taking Simple RFO Step
 Searching for Lamda that Minimizes Along All modes
 Value Taken    Lamda =  -0.00008602
 Step Taken.  Stepsize is  0.149508

                             Maximum     Tolerance    Cnvgd?
         Gradient           0.001459      0.000001      NO
         Displacement       0.042694      0.000001      NO
         Energy change     -0.000006      0.000000      NO


 New Cartesian Coordinates Obtained by Inverse Iteration

 Displacement from previous Coordinates is:  0.556314
 Adding empirical dispersion correction 
 ----------------------------------------------------------------
 Doing -D3(op) with
 s6 =   1.00000
 s8 =   0.78311
 a1 =   0.30000
 a2 =   4.25000
 n  =  10.00000
 -D3 energy without 3body term =     -0.0418120863 hartrees
 ----------------------------------------------------------------
             Standard Nuclear Orientation (Angstroms)
    I     Atom           X                Y                Z
 ----------------------------------------------------------------
    1      C      -0.9402126036     1.2141879818     0.5013160116
    2      C       0.2235920635     0.1918006197     0.7549232293
    3      C      -2.2590925436     0.6282453021     0.0354408419
    4      C      -0.0710613781    -1.2564357826     0.4180765095
    5      O      -2.6840331850    -0.3114249284     0.9078274867
    6      O      -2.8893510128     0.9784196200    -0.9293053517
    7      O      -0.6363250557    -1.3919372115    -0.7986831675
    8      O       0.2095900535    -2.1908753883     1.1282043514
    9      C      -0.9486926955    -2.7319819932    -1.2126562527
   10      C      -3.9135517842    -0.9795760982     0.5726480124
   11      C      -0.2983514617     2.1799555537    -0.5240109071
   12      C       0.6889279940     3.1068564067     0.2110768326
   13      C       1.8453741556     2.1133227547     0.5279463634
   14      C       1.3374603783     0.8188034948    -0.1614562457
   15      O       0.5827095780     1.3222698057    -1.2690872804
   16      H      -1.1644856832     1.7302758097     1.4394490655
   17      H       0.5376356437     0.1856602380     1.7954726372
   18      H      -1.6332524232    -3.2005574324    -0.5034043741
   19      H      -3.8291913227    -1.4550895273    -0.4059946324
   20      H       1.0228082815     3.9029914729    -0.4560770787
   21      H       0.2560115991     3.5684824096     1.1010821540
   22      H       2.7865008641     2.4301928946     0.0763034366
   23      H       2.0200587298     1.9690805557     1.5941032522
   24      H      -1.4148255597    -2.6301885313    -2.1901380483
   25      H      -0.0407039273    -3.3336262040    -1.2805132051
   26      H      -4.7430585526    -0.2710084941     0.5567088551
   27      H      -4.0596490339    -1.7248332457     1.3512450296
   28      H      -1.0082176394     2.6486271458    -1.1991157368
   29      C       2.4195061652    -0.1216059272    -0.6482232132
   30      O       3.1699656725    -0.5249685137     0.4814051619
   31      H       3.0520524760     0.4037587005    -1.3783753562
   32      H       1.9764616446    -0.9884801587    -1.1565320120
   33      C       4.0629484084    -1.5882293811     0.2069924147
   34      H       4.5902944419    -1.8111028385     1.1344003549
   35      H       4.7939585110    -1.3095739909    -0.5650197789
   36      H       3.5197394214    -2.4845582091    -0.1210501996
 ----------------------------------------------------------------
 Nuclear Repulsion Energy =  1536.0322001708 hartrees
 There are       69 alpha and       69 beta electrons
 Applying Cartesian multipole field
    Component          Value
    ---------          -----
     (2,0,0)        1.00000E-11
     (0,2,0)        2.00000E-11
     (0,0,2)       -3.00000E-11
 Nucleus-field energy     =     0.0000000405 hartrees
 Requested basis set is 6-311++G(d,p)
 There are 198 shells and 522 basis functions
 A cutoff of  1.0D-11 yielded  15668 shell pairs
 There are    110574 function pairs (    117825 Cartesian)
 Smallest overlap matrix eigenvalue = 8.55E-07

 Q-Chem warning in module /fs/scratch/osu6415/qchem-kaunlao-vdw/stvman/mkSTV.C, line 281:

 Overlap eigenvalue is smaller than square root of threshold

 Linear dependence detected in AO basis
 Number of orthogonalized atomic orbitals = 521
 Maximum deviation from orthogonality = 1.608E-10
 Guess MOs from SCF MO coefficient file
 Reading MOs from coefficient file
 Reading MOs from coefficient file
 A restricted hybrid HF-DFT SCF calculation will be
 performed using Pulay DIIS extrapolation
 Exchange:     0.2000 Hartree-Fock + 0.0800 Slater + 0.7200 B88
 Correlation:  0.1900 VWN1RPA + 0.8100 LYP
 Using SG-1 standard quadrature grid
 Dispersion:   Grimme D3
 SCF converges when DIIS error is below 1.0E-08
 Geometry optimization detected.  Setting ReadMinima to 0
 Setting SaveMinima to 0
 using 20 threads for integral computing
 -------------------------------------------------------
 OpenMP Integral computing Module                
 Release: version 1.0, May 2013, Q-Chem Inc. Pittsburgh 
 -------------------------------------------------------
 -------------------------------------------------------
 OpenMP BLAS3 based DFT computing Module                
 Release: version 1.0, May 2013, Q-Chem Inc. Pittsburgh 
 -------------------------------------------------------
 ---------------------------------------
  Cycle       Energy         DIIS Error
 ---------------------------------------
    1    -919.7697857637      5.76E-04
    2    -919.7480548112      1.13E-04
    3    -919.7477138293      1.66E-04
    4    -919.7484575676      3.41E-05
    5    -919.7484825149      1.18E-05
    6    -919.7484855065      4.07E-06
    7    -919.7484859070      9.98E-07
    8    -919.7484859292      4.24E-07
    9    -919.7484859338      1.52E-07
   10    -919.7484859328      5.60E-08
   11    -919.7484859282      1.42E-08
   12    -919.7484859251      7.30E-09 Convergence criterion met
 ---------------------------------------
 SCF time:  CPU 1069.13 s  wall 70.04 s
 SCF   energy in the final basis set = -919.74848593
 Total energy in the final basis set = -919.74848593
 
 --------------------------------------------------------------
 
                    Orbital Energies (a.u.)
 --------------------------------------------------------------
 
 Alpha MOs
 -- Occupied --
-19.175 -19.172 -19.134 -19.132 -19.119 -19.114 -10.309 -10.304
-10.244 -10.232 -10.230 -10.230 -10.226 -10.217 -10.206 -10.203
-10.178 -10.177  -1.120  -1.112  -1.067  -1.046  -1.030  -1.026
 -0.832  -0.795  -0.783  -0.747  -0.729  -0.713  -0.662  -0.648
 -0.607  -0.589  -0.568  -0.563  -0.538  -0.519  -0.515  -0.500
 -0.495  -0.485  -0.483  -0.477  -0.473  -0.470  -0.459  -0.448
 -0.430  -0.425  -0.424  -0.407  -0.398  -0.393  -0.380  -0.373
 -0.369  -0.361  -0.357  -0.357  -0.341  -0.333  -0.327  -0.319
 -0.313  -0.289  -0.281  -0.275  -0.269
 -- Virtual --
 -0.018  -0.011  -0.005  -0.003   0.007   0.010   0.013   0.018
  0.023   0.027   0.032   0.035   0.037   0.043   0.045   0.052
  0.054   0.056   0.061   0.069   0.072   0.078   0.084   0.085
  0.094   0.095   0.101   0.102   0.105   0.109   0.112   0.114
  0.116   0.119   0.122   0.125   0.129   0.130   0.132   0.134
  0.136   0.138   0.141   0.145   0.146   0.150   0.152   0.155
  0.157   0.161   0.163   0.167   0.169   0.172   0.176   0.178
  0.179   0.182   0.186   0.189   0.194   0.197   0.198   0.202
  0.206   0.210   0.214   0.220   0.221   0.227   0.228   0.235
  0.236   0.238   0.247   0.252   0.257   0.260   0.263   0.267
  0.270   0.276   0.277   0.284   0.285   0.289   0.291   0.299
  0.303   0.307   0.311   0.318   0.322   0.323   0.331   0.334
  0.337   0.340   0.347   0.348   0.353   0.359   0.365   0.368
  0.370   0.372   0.374   0.378   0.382   0.386   0.390   0.395
  0.398   0.403   0.417   0.422   0.427   0.437   0.440   0.447
  0.459   0.465   0.470   0.476   0.493   0.500   0.506   0.511
  0.516   0.528   0.537   0.544   0.551   0.555   0.561   0.567
  0.575   0.586   0.595   0.597   0.604   0.609   0.618   0.624
  0.632   0.640   0.647   0.650   0.656   0.660   0.671   0.672
  0.683   0.687   0.691   0.691   0.700   0.707   0.714   0.714
  0.724   0.729   0.737   0.742   0.746   0.749   0.751   0.756
  0.773   0.775   0.782   0.789   0.799   0.807   0.817   0.828
  0.846   0.848   0.860   0.879   0.916   0.920   0.943   0.968
  0.982   0.996   1.016   1.032   1.057   1.059   1.065   1.083
  1.097   1.106   1.114   1.130   1.133   1.149   1.159   1.175
  1.191   1.198   1.210   1.216   1.225   1.241   1.248   1.254
  1.258   1.278   1.284   1.297   1.310   1.317   1.328   1.354
  1.357   1.366   1.380   1.396   1.400   1.407   1.408   1.433
  1.439   1.450   1.455   1.461   1.471   1.494   1.509   1.511
  1.519   1.536   1.545   1.554   1.563   1.570   1.574   1.581
  1.584   1.591   1.596   1.603   1.606   1.618   1.626   1.641
  1.659   1.664   1.668   1.671   1.685   1.697   1.699   1.709
  1.717   1.720   1.726   1.742   1.743   1.753   1.767   1.774
  1.781   1.801   1.807   1.813   1.822   1.836   1.844   1.851
  1.866   1.879   1.887   1.898   1.911   1.923   1.944   1.947
  1.954   1.969   2.001   2.008   2.020   2.035   2.040   2.041
  2.066   2.079   2.084   2.111   2.122   2.128   2.141   2.144
  2.157   2.165   2.183   2.188   2.193   2.211   2.243   2.246
  2.256   2.279   2.329   2.340   2.348   2.371   2.386   2.438
  2.443   2.458   2.466   2.476   2.487   2.499   2.507   2.510
  2.518   2.523   2.531   2.533   2.539   2.561   2.584   2.587
  2.597   2.613   2.620   2.628   2.651   2.679   2.688   2.702
  2.726   2.737   2.756   2.774   2.797   2.807   2.823   2.836
  2.856   2.862   2.874   2.878   2.881   2.892   2.911   2.923
  2.938   2.963   2.976   2.984   3.001   3.016   3.031   3.036
  3.052   3.060   3.065   3.077   3.102   3.115   3.121   3.132
  3.147   3.156   3.164   3.203   3.220   3.225   3.242   3.251
  3.260   3.270   3.276   3.307   3.358   3.366   3.383   3.396
  3.407   3.454   3.585   3.597   3.610   3.671   3.697   3.741
  3.776   3.780   3.787   3.810   3.825   3.837   3.861   3.939
  3.964   4.047   4.063   4.080   4.090   4.106   4.130   4.141
  4.147   4.157   4.175   4.216   4.259   4.275   4.441   4.503
  5.041   5.110   5.121   5.175   5.208   5.217   5.268   5.276
  5.412   5.426   5.445   5.521   5.615   5.643   5.652   5.722
  5.876   5.902  23.795  23.841  23.848  23.871  23.909  23.918
 23.933  23.934  23.949  23.966  23.985  24.049  49.906  49.947
 49.973  49.994  50.042  50.058
 --------------------------------------------------------------
 
          Ground-State Mulliken Net Atomic Charges

     Atom                 Charge (a.u.)
  ----------------------------------------
      1 C                    -0.017634
      2 C                     0.396862
      3 C                    -0.519878
      4 C                    -0.684233
      5 O                    -0.014739
      6 O                    -0.205559
      7 O                     0.018393
      8 O                    -0.107558
      9 C                    -0.199063
     10 C                    -0.203607
     11 C                    -0.089784
     12 C                    -0.482661
     13 C                    -0.321133
     14 C                    -0.897071
     15 O                    -0.052235
     16 H                     0.250136
     17 H                     0.290670
     18 H                     0.192569
     19 H                     0.179248
     20 H                     0.185439
     21 H                     0.124337
     22 H                     0.165690
     23 H                     0.185166
     24 H                     0.180489
     25 H                     0.167462
     26 H                     0.173944
     27 H                     0.164312
     28 H                     0.286007
     29 C                     0.299538
     30 O                    -0.032154
     31 H                     0.191845
     32 H                     0.186697
     33 C                    -0.239716
     34 H                     0.149526
     35 H                     0.135709
     36 H                     0.142986
  ----------------------------------------
  Sum of atomic charges =    -0.000000

 -----------------------------------------------------------------
                    Cartesian Multipole Moments
 -----------------------------------------------------------------
    Charge (ESU x 10^10)
                -0.0000
    Dipole Moment (Debye)
         X       0.1494      Y      -0.2998      Z       0.2661
       Tot       0.4278
    Quadrupole Moments (Debye-Ang)
        XX     -98.1820     XY       5.0325     YY    -100.6790
        XZ      -6.9028     YZ      10.8685     ZZ    -112.7285
    Octopole Moments (Debye-Ang^2)
       XXX     -10.6129    XXY     -46.5563    XYY      -8.9474
       YYY     -10.0438    XXZ      10.2194    XYZ      -5.5778
       YYZ     -16.9051    XZZ      -2.2952    YZZ      -6.3990
       ZZZ       1.1375
    Hexadecapole Moments (Debye-Ang^3)
      XXXX   -2895.9149   XXXY      -8.3255   XXYY    -783.9912
      XYYY     -14.9109   YYYY   -1843.1463   XXXZ     -95.3760
      XXYZ      -2.5934   XYYZ      -4.3139   YYYZ      33.7840
      XXZZ    -621.2352   XYZZ      -2.0607   YYZZ    -398.3702
      XZZZ       5.2629   YZZZ      19.4107   ZZZZ    -521.1513
 -----------------------------------------------------------------
 Calculating analytic gradient of the SCF energy
 Gradient of SCF Energy
            1           2           3           4           5           6
    1  -0.0004730   0.0003231   0.0006929  -0.0019089   0.0006918  -0.0002020
    2  -0.0010287   0.0007523  -0.0005049   0.0004728  -0.0001223   0.0000947
    3   0.0000461  -0.0002374  -0.0000204   0.0001389  -0.0003533  -0.0001841
            7           8           9          10          11          12
    1  -0.0001576   0.0006291   0.0000805  -0.0001553   0.0002968  -0.0001881
[...]
     0.12354128      0.27691671     -0.24215527
    -0.14089546      0.13998688      0.29515513
    -0.28601561     -0.09822815      0.14801981
    -0.02634875      0.02993374     -0.21910007
    -0.00121853      0.00029928     -0.00256262
     0.00479541     -0.00318768     -0.00030499
     0.01229701     -0.01077284      0.00004351
     0.00128463      0.00718398     -0.00784307
     0.01986004     -0.01473916      0.01691435
     0.00093803      0.00083464     -0.00023809
    -0.00000254     -0.00007281     -0.00005470
    -0.00753232     -0.00511373      0.00812224
    -0.00295119     -0.00499991     -0.00263064
    -0.00000325      0.00026845      0.00016287
     0.00023757     -0.00007087      0.00035850
     0.00122711      0.00051576     -0.00117796
    -0.00188569     -0.00347596     -0.00127714
vibration 93
     0.00255296     -0.00568619     -0.01096030
     0.00136660      0.00019016      0.00329866
     0.00004431      0.00004527     -0.00028016
    -0.00003667      0.00024824      0.00013115
    -0.00006574     -0.00004756      0.00002493
    -0.00001091     -0.00007706      0.00007211
    -0.00001602     -0.00004211     -0.00003458
     0.00002385     -0.00012547      0.00001334
    -0.00003859      0.00029172      0.00001337
     0.00002096      0.00005968      0.00014803
    -0.00060324      0.00121152     -0.00138013
     0.00733590     -0.02883924     -0.01399649
    -0.05930329     -0.01288123     -0.01053556
    -0.00046741      0.00077115      0.00052375
     0.00000041      0.00013308      0.00020156
    -0.02847055      0.07147106      0.13086043
    -0.01205349     -0.00030800     -0.04009968
    -0.00192772     -0.00127867      0.00191490
     0.00023096     -0.00089324     -0.00189418
     0.07758163      0.17050327     -0.15369497
    -0.15674326      0.15745708      0.32320270
     0.63158849      0.21641479     -0.32684850
     0.05404716     -0.06294547      0.44348738
    -0.00085063      0.00020205     -0.00181736
     0.00335025     -0.00225378     -0.00024448
    -0.00037195      0.00029729     -0.00003663
    -0.00010945     -0.00028034      0.00022857
     0.01854177     -0.01478323      0.01719530
    -0.00166047     -0.00139628      0.00044233
     0.00013224      0.00004366      0.00012321
     0.01364517      0.00888265     -0.01449001
     0.00488102      0.00679589      0.00353109
    -0.00014569     -0.00035013      0.00027260
    -0.00127748      0.00037076     -0.00229575
     0.00164514      0.00054313     -0.00179500
     0.00174654      0.00334111      0.00129832
vibration 94
    -0.00129955      0.00320974      0.00535267
     0.00084355      0.00011799      0.00285281
     0.00018312      0.00001056      0.00012586
     0.00005462     -0.00013826      0.00011876
    -0.00002888     -0.00002920      0.00000423
    -0.00008005      0.00002177     -0.00006117
     0.00000500      0.00001371     -0.00000266
    -0.00000772      0.00002512     -0.00002726
     0.00017163     -0.00004286     -0.00008509
     0.00023854     -0.00012178     -0.00006574
    -0.00318601      0.00162785     -0.00143627
    -0.03464982     -0.02421543      0.07077342
     0.00855357      0.00939506     -0.04330741
     0.00043888      0.00038428     -0.00021717
     0.00022883     -0.00007735     -0.00013358
     0.01571389     -0.03535221     -0.06767028
    -0.01066725     -0.00086637     -0.03289451
    -0.00075271     -0.00047266      0.00080178
    -0.00010143      0.00012222      0.00037896
     0.21575653      0.50602011     -0.42115033
     0.20104408     -0.22166883     -0.42139430
    -0.17113655     -0.05848435      0.07770335
     0.06700586     -0.05555481      0.43414281
     0.00014691      0.00000034      0.00026276
    -0.00147312      0.00100566      0.00007869
    -0.00243452      0.00209135     -0.00006471
    -0.00009651     -0.00052925      0.00051980
     0.02811652     -0.01932616      0.02596179
     0.00036481      0.00052560     -0.00025027
    -0.00003201      0.00002366      0.00001644
    -0.00431948     -0.00266680      0.00472699
    -0.00142952     -0.00384585     -0.00163603
    -0.00000094     -0.00009427      0.00003155
    -0.00029744      0.00006819     -0.00054993
    -0.00015446      0.00007568      0.00006429
     0.00054116      0.00096473      0.00039936
vibration 95
    -0.00002731      0.00013937      0.00013583
    -0.00014853      0.00000300      0.00032004
    -0.00008808     -0.00017469      0.00005091
     0.00021742      0.00000448     -0.00000914
     0.00010045      0.00002330     -0.00007470
     0.00003707      0.00002642     -0.00003246
     0.00029233     -0.00004950     -0.00015490
     0.00013791     -0.00000039     -0.00006521
    -0.08449462      0.00753919      0.03766901
    -0.01017336      0.01217180      0.01033683
     0.00003847     -0.00002790      0.00009806
     0.00019720      0.00015701     -0.00039846
     0.00040329      0.00030412     -0.00120663
    -0.00001398     -0.00002517     -0.00003709
     0.00002843     -0.00002454     -0.00001221
     0.00040572     -0.00077653     -0.00145820
    -0.00083172     -0.00007272     -0.00276881
     0.42867758      0.28979098     -0.45702809
     0.01151607     -0.05730001     -0.12089644
    -0.00120186     -0.00304622      0.00257202
    -0.00104500      0.00107932      0.00207539
    -0.00668565     -0.00226084      0.00313139
     0.00181913     -0.00148551      0.01128850
    -0.00457959     -0.00130383      0.03453668
     0.57428555     -0.37779008     -0.02316612
     0.10886928     -0.09696367      0.00526069
    -0.00031597      0.01031445     -0.00651936
    -0.00076725      0.00047245     -0.00073200
     0.00006018      0.00001742     -0.00003183
    -0.00002206     -0.00000608     -0.00002788
    -0.00056725     -0.00060641      0.00050789
     0.00086061      0.00092295      0.00037738
    -0.00064742      0.00031539     -0.00170467
     0.00951325     -0.00408591      0.01728466
    -0.00285580     -0.00128045      0.00256732
     0.00108527      0.00169662      0.00033926
vibration 96
    -0.00001983      0.00009587      0.00020350
    -0.00099036     -0.00002609     -0.00337241
     0.00007444      0.00002161      0.00001208
    -0.00001305      0.00014221     -0.00014599
    -0.00001909     -0.00001534      0.00000746
    -0.00002508     -0.00000233     -0.00001620
    -0.00000745     -0.00001449      0.00003195
     0.00001124     -0.00005986      0.00006258
     0.00155782     -0.00009757     -0.00067578
    -0.00006009      0.00013002      0.00015015
    -0.00045433      0.00019530     -0.00019112
    -0.00387852     -0.00224635      0.00775553
    -0.00507040     -0.00373794      0.01472616
     0.00000581     -0.00024529      0.00023470
    -0.00000071      0.00002555     -0.00007885
     0.00063890     -0.00096519     -0.00238108
     0.01192231      0.00072993      0.03912365
    -0.00817684     -0.00546149      0.00863127
     0.00015986     -0.00086570     -0.00179564
     0.02215088      0.05335315     -0.04428759
     0.02387286     -0.02584191     -0.04881226
     0.08320103      0.02771268     -0.03922059
    -0.02213833      0.01784041     -0.13563462
    -0.00009193      0.00003732     -0.00099077
    -0.01002677      0.00670023      0.00036093
     0.00068759     -0.00064921      0.00003923
    -0.00002934      0.00002869      0.00000702
     0.00361056     -0.00246826      0.00338311
     0.00004794     -0.00103916      0.00069465
    -0.00033534      0.00031399     -0.00010627
     0.00476755      0.00192644     -0.00396234
     0.00374772      0.00388636      0.00309204
    -0.03555664      0.00840703     -0.08018402
     0.44710518     -0.19030789      0.81425616
    -0.11279715     -0.05010186      0.09674999
     0.08552130      0.14147167      0.03686098
vibration 97
     0.00006492     -0.00059932     -0.00116352
     0.00515437      0.00019971      0.01754693
    -0.00023180     -0.00000478     -0.00009625
     0.00007188     -0.00045554      0.00039700
     0.00003524      0.00000761     -0.00000571
     0.00007419     -0.00001689      0.00007715
    -0.00002716      0.00004207     -0.00000240
    -0.00003383      0.00012993     -0.00011994
     0.00225671     -0.00029932     -0.00102069
    -0.00181959      0.00225469      0.00180734
     0.00200347     -0.00080492      0.00053920
     0.01914173      0.01058708     -0.03817532
     0.02423143      0.01837250     -0.07257495
     0.00049819      0.00103182     -0.00098666
    -0.00012597     -0.00001078      0.00045813
    -0.00377914      0.00603702      0.01403237
    -0.06246729     -0.00340135     -0.20447494
    -0.01092711     -0.00735406      0.01176672
     0.00200971     -0.01030312     -0.02202191
    -0.10746285     -0.25840604      0.21430462
    -0.11978479      0.12949490      0.24450386
    -0.40401178     -0.13480786      0.18980947
     0.10910209     -0.08828025      0.67142014
     0.00040706      0.00011535     -0.00042880
    -0.01608878      0.01072111      0.00069414
     0.01958127     -0.01746111      0.00081809
    -0.00020600      0.00101299     -0.00023304
    -0.01431360      0.00987068     -0.01304151
     0.00091328      0.00071916     -0.00049704
    -0.00010681      0.00005828      0.00000675
    -0.00976789     -0.00594495      0.01050043
    -0.00125594     -0.00421425     -0.00128306
    -0.00719053      0.00171220     -0.01631540
     0.09094148     -0.03877757      0.16550232
    -0.02349599     -0.01019578      0.02011202
     0.01752044      0.02904844      0.00761602
vibration 98
     0.00013936     -0.00022758     -0.00026099
     0.00026966      0.00003302      0.00098131
    -0.00012533      0.00009796      0.00011261
    -0.00005904     -0.00009540     -0.00011488
    -0.00015978      0.00027885      0.00020670
    -0.00007158      0.00009170      0.00006848
     0.00009505      0.00003234      0.00003180
     0.00005285      0.00001779      0.00001232
    -0.01727148      0.00124540      0.00726849
     0.04814218     -0.06172586     -0.05017486
     0.00006199     -0.00002593     -0.00000385
     0.00083044      0.00039095     -0.00165289
     0.00091214      0.00068948     -0.00271991
     0.00000721      0.00001598     -0.00002197
    -0.00000949      0.00001221      0.00001749
    -0.00073810      0.00089141      0.00167021
    -0.00327915     -0.00010511     -0.01112046
     0.08843532      0.06059759     -0.09458444
    -0.05584762      0.28776918      0.61245286
    -0.00443457     -0.01062923      0.00880967
    -0.00538783      0.00584136      0.01107947
    -0.01512315     -0.00500957      0.00710360
     0.00408855     -0.00332916      0.02513743
     0.00194438     -0.00091153      0.01363794
     0.11381439     -0.07425827     -0.00483600
    -0.52064666      0.46575712     -0.02260739
     0.00707549     -0.02409018      0.00292455
    -0.00027703      0.00021852     -0.00032652
    -0.00001300     -0.00006057     -0.00003779
    -0.00000268      0.00000323     -0.00000355
    -0.00013164     -0.00008031      0.00014608
     0.00044898      0.00079034      0.00047706
    -0.00051106      0.00010943     -0.00110934
     0.00622731     -0.00266897      0.01134827
    -0.00144208     -0.00064038      0.00120850
     0.00121327      0.00202084      0.00054888
vibration 99
     0.00188170     -0.00356134     -0.00542234
    -0.02362462     -0.00096825     -0.07861319
     0.00038391     -0.00000034     -0.00003086
    -0.00045495      0.00157671     -0.00163033
    -0.00006292     -0.00004635      0.00004898
    -0.00001029     -0.00003003      0.00002531
     0.00017290      0.00010161      0.00032236
     0.00020492     -0.00051023      0.00059005
     0.00029277      0.00003956      0.00075586
     0.00014951     -0.00034044      0.00002250
    -0.00141946      0.00059006     -0.00172234
     0.00303477      0.00124232     -0.00594850
     0.00357793      0.00382652     -0.01828121
    -0.00048975      0.00016479     -0.00076500
     0.00007895     -0.00012677      0.00065636
    -0.01765228      0.04166038      0.07130309
     0.27644639      0.00815921      0.92740037
     0.00018122     -0.00025823     -0.00043443
    -0.00000749      0.00076354      0.00167670
    -0.01511746     -0.03736561      0.03114011
    -0.02054344      0.02200012      0.04155739
    -0.07370867     -0.02456854      0.03556262
     0.02996468     -0.02299467      0.18459949
    -0.00365601      0.00071970     -0.00779248
     0.00024845     -0.00060211     -0.00010046
    -0.00199101      0.00178724     -0.00003606
     0.00022023      0.00133905     -0.00160101
     0.02004789     -0.01314837      0.01949894
    -0.00009473      0.00005901     -0.00040699
    -0.00007767      0.00001016      0.00009370
    -0.00076949     -0.00097014      0.00154541
     0.00081615      0.00205719      0.00151864
     0.00004892     -0.00008317     -0.00024353
     0.00085982     -0.00036813      0.00136320
    -0.00192694     -0.00046172      0.00176714
     0.00074292      0.00149111      0.00043091
vibration 100
     0.00000765     -0.00002069     -0.00002951
    -0.00017846     -0.00006684     -0.00055618
     0.00006123      0.00004854     -0.00003079
     0.00001248      0.00124208     -0.00012276
     0.00001027      0.00001338     -0.00001026
    -0.00000638      0.00000297      0.00001602
     0.00015789     -0.00015873      0.00025636
     0.00004700     -0.00047808      0.00018003
    -0.03365885      0.02955299     -0.08221721
     0.00060805     -0.00690706      0.00971284
     0.00022342     -0.00014635      0.00019594
     0.00001164      0.00000951     -0.00003950
     0.00002469      0.00002715     -0.00011349
    -0.00000320      0.00000846     -0.00004601
     0.00000361     -0.00001256      0.00002417
    -0.00007385      0.00012121      0.00029568
     0.00218336      0.00012999      0.00732654
    -0.20718576     -0.12016311      0.19206103
     0.00461649     -0.01915591     -0.03511953
    -0.00009007     -0.00024656      0.00021140
    -0.00009795      0.00013409      0.00024316
    -0.00060256     -0.00023636      0.00027792
     0.00020560     -0.00011715      0.00118668
     0.37759334     -0.09497727      0.81088405
     0.22650431     -0.14022065     -0.02980496
    -0.02707148      0.02347613      0.00166615
     0.01462798      0.07685315     -0.08213696
    -0.00244744      0.00158039     -0.00233564
     0.00002106      0.00000101     -0.00006343
    -0.00000287     -0.00000550      0.00001284
    -0.00052417     -0.00044950      0.00046391
     0.00032678      0.00058960      0.00003921
     0.00006514      0.00006190     -0.00001448
     0.00000992      0.00001576     -0.00002168
    -0.00046481     -0.00022909      0.00045814
    -0.00023182     -0.00047952     -0.00024075
vibration 101
     0.00004074     -0.00006049     -0.00001242
    -0.00009535      0.00001310     -0.00033634
    -0.00102296     -0.00014332     -0.00065905
    -0.00002731      0.00027686     -0.00012045
     0.00008074     -0.00023173      0.00026630
     0.00037213     -0.00003240      0.00036042
     0.00003767     -0.00004999      0.00005341
     0.00000384     -0.00012836      0.00007275
    -0.00464775      0.00377104     -0.01025679
    -0.00635380      0.05626967     -0.07465471
     0.00186654     -0.00127074      0.00181880
    -0.00007298     -0.00016111      0.00007228
    -0.00006379      0.00000580     -0.00009145
    -0.00004105      0.00003054     -0.00002827
     0.00002189     -0.00001393      0.00000070
     0.00002720      0.00061000      0.00105825
     0.00126659      0.00001995      0.00400372
    -0.02368479     -0.01365036      0.02147532
    -0.03169183      0.13892549      0.24838295
     0.00077590      0.00168483     -0.00130439
    -0.00006944      0.00013721      0.00029376
     0.00025503      0.00008152     -0.00013923
     0.00017709     -0.00012301      0.00114170
     0.04788286     -0.01208728      0.10364718
     0.03097809     -0.01929204     -0.00379847
     0.22792545     -0.19827224     -0.01184622
    -0.11628825     -0.60450424      0.64949100
    -0.02174551      0.01440591     -0.02092036
     0.00000123      0.00001401     -0.00001680
     0.00000566     -0.00000807      0.00000438
    -0.00008794     -0.00010588      0.00009756
     0.00003594      0.00002467     -0.00002909
    -0.00000547      0.00002894     -0.00003277
     0.00022193     -0.00008840      0.00037225
    -0.00009339     -0.00005635      0.00008429
    -0.00007668     -0.00015018     -0.00008496
vibration 102
    -0.00028209      0.00019406      0.00135167
     0.00082534     -0.00065827      0.00277740
    -0.00075670      0.00034956     -0.00118954
     0.00004515     -0.00014303      0.00000877
     0.00016348      0.00003043      0.00010237
     0.00003592     -0.00041538      0.00054823
     0.00002175      0.00001590      0.00002294
    -0.00001471      0.00004521     -0.00001092
    -0.00036279      0.00020136     -0.00064707
    -0.00030521      0.00188514     -0.00246855
    -0.05572844      0.03782774     -0.05398838
     0.00229128      0.00418231     -0.00217729
     0.00147103      0.00003754      0.00109368
     0.00107213     -0.00089518      0.00034740
    -0.00025673      0.00023045      0.00029028
     0.00281057     -0.00514154     -0.01279379
    -0.00883570      0.00009422     -0.02978754
    -0.00102244     -0.00049529      0.00089330
    -0.00102410      0.00482511      0.00844373
    -0.02132250     -0.04669859      0.03573214
     0.00025118     -0.00270296     -0.00548486
    -0.00565392     -0.00237831      0.00307274
    -0.00165423      0.00101425     -0.01184008
     0.00316982     -0.00075407      0.00689334
     0.00206515     -0.00124075     -0.00021623
     0.00850219     -0.00727232     -0.00041297
    -0.00354359     -0.01932103      0.02096750
     0.64318956     -0.43045156      0.62216738
     0.00004837      0.00000696      0.00009690
    -0.00003057      0.00002243     -0.00002023
    -0.00015625      0.00016455      0.00009846
    -0.00031227     -0.00012635     -0.00006068
     0.00007547     -0.00003808      0.00005369
    -0.00054378      0.00024465     -0.00096295
    -0.00018849     -0.00006512      0.00023683
     0.00001824      0.00003430      0.00004392
[INT]
    0.229546
    1.217063
    2.619855
    1.719317
    1.439060
    2.017141
    2.225746
    3.429374
    0.328567
    0.240572
    2.380660
    1.042937
    4.004258
    0.119856
    6.583602
    3.318283
    4.582491
    5.191642
    2.529736
    2.904016
    5.492346
   10.929948
    0.945660
   11.117352
   20.569178
    8.246950
    0.860954
    0.784623
    6.272394
    9.208757
    3.929055
   20.102526
    1.057070
    5.225543
    3.449945
    2.932141
    6.298842
   18.209269
   11.850121
   50.651512
   10.341345
   19.303023
   12.659989
   17.897259
   39.997593
   48.592551
   16.292652
   40.731765
  146.019160
   12.416315
    2.002285
    0.409014
   16.936970
   86.670776
   34.658921
   22.858931
   12.378386
  104.873344
   45.789971
   20.635752
  107.638927
  146.496904
   87.931150
   19.333113
    8.134589
   14.551733
   18.174049
    5.836293
   35.816089
    8.930715
    6.145339
   22.253057
    3.343295
    0.217579
   14.013699
    0.915543
    7.590779
   14.719214
    7.456421
    3.293029
    8.642326
    6.004777
  242.794761
  271.279224
   53.164764
   62.318551
   81.325587
   14.460668
   21.654775
   42.282711
    9.558654
   28.164954
   28.926670
    6.448986
   29.480836
   19.642372
   29.072614
   15.397072
    7.227167
    7.840655
   11.961378
    9.056125

======= END OF MOLDEN-FORMATTED INPUT FILE =======


        *************************************************************
        *                                                           *
        *  Thank you very much for using Q-Chem.  Have a nice day.  *
        *                                                           *
        *************************************************************


