
    -----------------------------------------------------------------------
          Psi4: An Open-Source Ab Initio Electronic Structure Package
                               Psi4 1.1 release

                         Git: Rev {HEAD} add49b9 


    R. M. Parrish, L. A. Burns, D. G. A. Smith, A. C. Simmonett,
    A. E. DePrince III, E. G. Hohenstein, U. Bozkaya, A. Yu. Sokolov,
    R. Di Remigio, R. M. Richard, J. F. Gonthier, A. M. James,
    H. R. McAlexander, A. Kumar, M. Saitow, X. Wang, B. P. Pritchard,
    P. Verma, H. F. Schaefer III, K. Patkowski, R. A. King, E. F. Valeev,
    F. A. Evangelista, J. M. Turney, T. D. Crawford, and C. D. Sherrill,
    J. Chem. Theory Comput. in press (2017).
    (doi: 10.1021/acs.jctc.7b00174)

    -----------------------------------------------------------------------


    Psi4 started on: Tuesday, 12 December 2017 11:09AM

    Process ID:  14829
    PSIDATADIR: /home/junteng/Softwares/psi4conda/share/psi4
    Memory:     500.0 MiB
    Threads:    1
    
  ==> Input File <==

--------------------------------------------------------------------------
memory 750000 mb

molecule mol {
0 1
C         -1.04996        1.43177       -0.15874
O         -1.65162        2.08407       -0.97597
O         -0.30151        1.95137        0.82915
C         -0.06265        3.36869        0.75705
H          0.50476        3.59844       -0.14619
H          0.51621        3.60985        1.64570
H         -1.00499        3.91780        0.74868
--
0 1
C          1.38133       -0.30816       -0.24314
O          1.60473        0.70196       -0.86776
O          2.35117       -1.07681        0.29518
C          3.70168       -0.63627        0.06372
H          3.90908       -0.58913       -1.00635
H          4.33379       -1.37798        0.54667
H          3.85994        0.34912        0.50421
--
0 1
H         -3.25762        0.00115       -0.04972
H          0.74564       -2.89430        0.16851
C          0.02286       -0.88416       -0.01269
C         -1.11779       -0.06314       -0.06094
C         -0.13463       -2.26637        0.13731
C         -1.40386       -2.83152        0.22298
C         -2.53218       -2.01783        0.15126
C         -2.38643       -0.64037        0.00581
H         -3.52382       -2.45222        0.20758
H         -1.51030       -3.90440        0.33487

symmetry c1
no_reorient
no_com
}

set {
basis jun-cc-pvdz
scf_type df
guess sad
freeze_core true
}

energy('fisapt0')
--------------------------------------------------------------------------

  Memory set to 698.492 GiB by Python driver.

*** tstart() called on ThinkPad-P50
*** at Tue Dec 12 11:09:55 2017

   => Loading Basis Set <=

    Name: JUN-CC-PVDZ
    Role: ORBITAL
    Keyword: BASIS
    atoms 1, 4, 8, 11, 17-22 entry C          line   157 file /home/junteng/Softwares/psi4conda/share/psi4/basis/jun-cc-pvdz.gbs 
    atoms 2-3, 9-10          entry O          line   225 file /home/junteng/Softwares/psi4conda/share/psi4/basis/jun-cc-pvdz.gbs 
    atoms 5-7, 12-16, 23-24  entry H          line    35 file /home/junteng/Softwares/psi4conda/share/psi4/basis/jun-cc-pvdz.gbs 


         ---------------------------------------------------------
                                   SCF
            by Justin Turney, Rob Parrish, and Andy Simmonett
                              RHF Reference
                        1 Threads, 715255 MiB Core
         ---------------------------------------------------------

  ==> Geometry <==

    Molecular point group: c1
    Full point group: C1

    Geometry (in Angstrom), charge = 0, multiplicity = 1:

       Center              X                  Y                   Z               Mass       
    ------------   -----------------  -----------------  -----------------  -----------------
           C         -1.049960000000     1.431770000000    -0.158740000000    12.000000000000
           O         -1.651620000000     2.084070000000    -0.975970000000    15.994914619560
           O         -0.301510000000     1.951370000000     0.829150000000    15.994914619560
           C         -0.062650000000     3.368690000000     0.757050000000    12.000000000000
           H          0.504760000000     3.598440000000    -0.146190000000     1.007825032070
           H          0.516210000000     3.609850000000     1.645700000000     1.007825032070
           H         -1.004990000000     3.917800000000     0.748680000000     1.007825032070
           C          1.381330000000    -0.308160000000    -0.243140000000    12.000000000000
           O          1.604730000000     0.701960000000    -0.867760000000    15.994914619560
           O          2.351170000000    -1.076810000000     0.295180000000    15.994914619560
           C          3.701680000000    -0.636270000000     0.063720000000    12.000000000000
           H          3.909080000000    -0.589130000000    -1.006350000000     1.007825032070
           H          4.333790000000    -1.377980000000     0.546670000000     1.007825032070
           H          3.859940000000     0.349120000000     0.504210000000     1.007825032070
           H         -3.257620000000     0.001150000000    -0.049720000000     1.007825032070
           H          0.745640000000    -2.894300000000     0.168510000000     1.007825032070
           C          0.022860000000    -0.884160000000    -0.012690000000    12.000000000000
           C         -1.117790000000    -0.063140000000    -0.060940000000    12.000000000000
           C         -0.134630000000    -2.266370000000     0.137310000000    12.000000000000
           C         -1.403860000000    -2.831520000000     0.222980000000    12.000000000000
           C         -2.532180000000    -2.017830000000     0.151260000000    12.000000000000
           C         -2.386430000000    -0.640370000000     0.005810000000    12.000000000000
           H         -3.523820000000    -2.452220000000     0.207580000000     1.007825032070
           H         -1.510300000000    -3.904400000000     0.334870000000     1.007825032070

  Running in c1 symmetry.

  Rotational constants: A =      0.02510  B =      0.02439  C =      0.01343 [cm^-1]
  Rotational constants: A =    752.62058  B =    731.26191  C =    402.70446 [MHz]
  Nuclear repulsion =  887.874732272788606

  Charge       = 0
  Multiplicity = 1
  Electrons    = 102
  Nalpha       = 51
  Nbeta        = 51

  ==> Algorithm <==

  SCF Algorithm Type is DF.
  DIIS enabled.
  MOM disabled.
  Fractional occupation disabled.
  Guess Type is SAD.
  Energy threshold   = 1.00e-08
  Density threshold  = 1.00e-08
  Integral threshold = 0.00e+00

  ==> Primary Basis <==

  Basis Set: JUN-CC-PVDZ
    Blend: JUN-CC-PVDZ
    Number of shells: 142
    Number of basis function: 302
    Number of Cartesian functions: 316
    Spherical Harmonics?: true
    Max angular momentum: 2

   => Loading Basis Set <=

    Name: (JUN-CC-PVDZ AUX)
    Role: JKFIT
    Keyword: DF_BASIS_SCF
    atoms 1, 4, 8, 11, 17-22 entry C          line   145 file /home/junteng/Softwares/psi4conda/share/psi4/basis/jun-cc-pvdz-jkfit.gbs 
    atoms 2-3, 9-10          entry O          line   257 file /home/junteng/Softwares/psi4conda/share/psi4/basis/jun-cc-pvdz-jkfit.gbs 
    atoms 5-7, 12-16, 23-24  entry H          line    69 file /home/junteng/Softwares/psi4conda/share/psi4/basis/jun-cc-pvdz-jkfit.gbs 

  ==> Pre-Iterations <==

   -------------------------------------------------------
    Irrep   Nso     Nmo     Nalpha   Nbeta   Ndocc  Nsocc
   -------------------------------------------------------
     A        302     302       0       0       0       0
   -------------------------------------------------------
    Total     302     302      51      51      51       0
   -------------------------------------------------------

  ==> Integral Setup <==

  ==> DFJK: Density-Fitted J/K Matrices <==

    J tasked:                  Yes
    K tasked:                  Yes
    wK tasked:                  No
    OpenMP threads:              1
    Integrals threads:           1
    Memory (MB):            536441
    Algorithm:                Core
    Integral Cache:           NONE
    Schwarz Cutoff:          1E-12
    Fitting Condition:       1E-12

   => Auxiliary Basis Set <=

  Basis Set: (JUN-CC-PVDZ AUX)
    Blend: JUN-CC-PVDZ-JKFIT
    Number of shells: 468
    Number of basis function: 1336
    Number of Cartesian functions: 1524
    Spherical Harmonics?: true
    Max angular momentum: 3

  Minimum eigenvalue in the overlap matrix is 5.0877727977E-06.
  Using Symmetric Orthogonalization.

  SCF Guess: Superposition of Atomic Densities via on-the-fly atomic UHF.

  ==> Iterations <==

                           Total Energy        Delta E     RMS |[F,P]|

   @DF-RHF iter   0:  -691.06893341968475   -6.91069e+02   2.36507e-02 
   @DF-RHF iter   1:  -683.57783074546023    7.49110e+00   2.83018e-03 
   @DF-RHF iter   2:  -683.88288513021030   -3.05054e-01   1.98634e-03 DIIS
   @DF-RHF iter   3:  -684.02767026089089   -1.44785e-01   4.78248e-04 DIIS
   @DF-RHF iter   4:  -684.04558682505422   -1.79166e-02   1.71666e-04 DIIS
   @DF-RHF iter   5:  -684.04809043129262   -2.50361e-03   6.25407e-05 DIIS
   @DF-RHF iter   6:  -684.04854376747585   -4.53336e-04   2.31277e-05 DIIS
   @DF-RHF iter   7:  -684.04861401736503   -7.02499e-05   7.48365e-06 DIIS
   @DF-RHF iter   8:  -684.04862213194656   -8.11458e-06   3.10563e-06 DIIS
   @DF-RHF iter   9:  -684.04862369152193   -1.55958e-06   1.42817e-06 DIIS
   @DF-RHF iter  10:  -684.04862399936371   -3.07842e-07   5.98993e-07 DIIS
   @DF-RHF iter  11:  -684.04862407116730   -7.18036e-08   2.20905e-07 DIIS
   @DF-RHF iter  12:  -684.04862408001395   -8.84665e-09   1.10463e-07 DIIS
   @DF-RHF iter  13:  -684.04862408188478   -1.87083e-09   4.50107e-08 DIIS
   @DF-RHF iter  14:  -684.04862408225722   -3.72438e-10   1.91283e-08 DIIS
   @DF-RHF iter  15:  -684.04862408232111   -6.38920e-11   7.54847e-09 DIIS

  ==> Post-Iterations <==

    Orbital Energies (a.u.)
    -----------------------

    Doubly Occupied:                                                      

       1A    -20.618128     2A    -20.606864     3A    -20.561669  
       4A    -20.554469     5A    -11.401402     6A    -11.393991  
       7A    -11.301146     8A    -11.289573     9A    -11.278706  
      10A    -11.276542    11A    -11.267753    12A    -11.266979  
      13A    -11.263711    14A    -11.262884    15A     -1.474195  
      16A     -1.463948    17A     -1.372559    18A     -1.364268  
      19A     -1.185018    20A     -1.067881    21A     -1.057121  
      22A     -0.986825    23A     -0.971686    24A     -0.885642  
      25A     -0.863775    26A     -0.799760    27A     -0.780026  
      28A     -0.748192    29A     -0.717291    30A     -0.687919  
      31A     -0.683156    32A     -0.675039    33A     -0.668921  
      34A     -0.662232    35A     -0.636054    36A     -0.630871  
      37A     -0.594381    38A     -0.592972    39A     -0.565528  
      40A     -0.551051    41A     -0.544529    42A     -0.534189  
      43A     -0.530251    44A     -0.519250    45A     -0.514157  
      46A     -0.472671    47A     -0.460515    48A     -0.455903  
      49A     -0.451866    50A     -0.360240    51A     -0.356695  

    Virtual:                                                              

      52A      0.054508    53A      0.057449    54A      0.064591  
      55A      0.066236    56A      0.072646    57A      0.081449  
      58A      0.086207    59A      0.091901    60A      0.096844  
      61A      0.099265    62A      0.105984    63A      0.112999  
      64A      0.117399    65A      0.120881    66A      0.132957  
      67A      0.134773    68A      0.144304    69A      0.147738  
      70A      0.156744    71A      0.163688    72A      0.170115  
      73A      0.174508    74A      0.178759    75A      0.186626  
      76A      0.192222    77A      0.202349    78A      0.208947  
      79A      0.212372    80A      0.216615    81A      0.221310  
      82A      0.228693    83A      0.233555    84A      0.236786  
      85A      0.243074    86A      0.257720    87A      0.262747  
      88A      0.263442    89A      0.270378    90A      0.275397  
      91A      0.281575    92A      0.286606    93A      0.294223  
      94A      0.298735    95A      0.313601    96A      0.315552  
      97A      0.323106    98A      0.327119    99A      0.334254  
     100A      0.342402   101A      0.350554   102A      0.353547  
     103A      0.355676   104A      0.362532   105A      0.367747  
     106A      0.371508   107A      0.382757   108A      0.386011  
     109A      0.393942   110A      0.401195   111A      0.403410  
     112A      0.408761   113A      0.414388   114A      0.417976  
     115A      0.428283   116A      0.435573   117A      0.443925  
     118A      0.453884   119A      0.458549   120A      0.467808  
     121A      0.480304   122A      0.481389   123A      0.496723  
     124A      0.500606   125A      0.503147   126A      0.535964  
     127A      0.546738   128A      0.557672   129A      0.567318  
     130A      0.588196   131A      0.617574   132A      0.641695  
     133A      0.699145   134A      0.711000   135A      0.751794  
     136A      0.759567   137A      0.768107   138A      0.799846  
     139A      0.814266   140A      0.816197   141A      0.827404  
     142A      0.842347   143A      0.848450   144A      0.852731  
     145A      0.875781   146A      0.881611   147A      0.887095  
     148A      0.902732   149A      0.907836   150A      0.911151  
     151A      0.918652   152A      0.927964   153A      0.933935  
     154A      0.934690   155A      0.945834   156A      0.950720  
     157A      0.959874   158A      0.963822   159A      0.966813  
     160A      0.978901   161A      0.980073   162A      1.000520  
     163A      1.004938   164A      1.012186   165A      1.022510  
     166A      1.029619   167A      1.057815   168A      1.074638  
     169A      1.088211   170A      1.107604   171A      1.140064  
     172A      1.144648   173A      1.159917   174A      1.170190  
     175A      1.203039   176A      1.226911   177A      1.231843  
     178A      1.243624   179A      1.251433   180A      1.256740  
     181A      1.276771   182A      1.277892   183A      1.302630  
     184A      1.307626   185A      1.311563   186A      1.332785  
     187A      1.356876   188A      1.366087   189A      1.377630  
     190A      1.389059   191A      1.439510   192A      1.464865  
     193A      1.486342   194A      1.499416   195A      1.511969  
     196A      1.533698   197A      1.547321   198A      1.555542  
     199A      1.574185   200A      1.595160   201A      1.601503  
     202A      1.613541   203A      1.633905   204A      1.639454  
     205A      1.655472   206A      1.661185   207A      1.666500  
     208A      1.681957   209A      1.689433   210A      1.704533  
     211A      1.726943   212A      1.748909   213A      1.754461  
     214A      1.791223   215A      1.816213   216A      1.833424  
     217A      1.850477   218A      1.863142   219A      1.872329  
     220A      1.885085   221A      1.908447   222A      1.916232  
     223A      1.927756   224A      1.934427   225A      1.945296  
     226A      1.950910   227A      1.965870   228A      1.978455  
     229A      1.997808   230A      2.002194   231A      2.012585  
     232A      2.020818   233A      2.025492   234A      2.026271  
     235A      2.048376   236A      2.049663   237A      2.060905  
     238A      2.063963   239A      2.129259   240A      2.131450  
     241A      2.141154   242A      2.156520   243A      2.177158  
     244A      2.179075   245A      2.203268   246A      2.219720  
     247A      2.226638   248A      2.258991   249A      2.285835  
     250A      2.319842   251A      2.350132   252A      2.357537  
     253A      2.383239   254A      2.386428   255A      2.396221  
     256A      2.403216   257A      2.414306   258A      2.427940  
     259A      2.440644   260A      2.506592   261A      2.515659  
     262A      2.561538   263A      2.584809   264A      2.661868  
     265A      2.689657   266A      2.739094   267A      2.763429  
     268A      2.764838   269A      2.787438   270A      2.795338  
     271A      2.804337   272A      2.814518   273A      2.848732  
     274A      2.869559   275A      2.881184   276A      2.894738  
     277A      2.946375   278A      2.992449   279A      3.019620  
     280A      3.039852   281A      3.073697   282A      3.092920  
     283A      3.102234   284A      3.122846   285A      3.199800  
     286A      3.254923   287A      3.265806   288A      3.287717  
     289A      3.307304   290A      3.398389   291A      3.421556  
     292A      3.558068   293A      3.580312   294A      3.663368  
     295A      3.674039   296A      3.774468   297A      3.799496  
     298A      3.849840   299A      3.948010   300A      3.993824  
     301A      4.060658   302A      4.074925  

    Final Occupation by Irrep:
              A 
    DOCC [    51 ]

  Energy converged.

  @DF-RHF Final Energy:  -684.04862408232111

   => Energetics <=

    Nuclear Repulsion Energy =            887.8747322727886058
    One-Electron Energy =               -2697.3859339571372402
    Two-Electron Energy =                1125.4625776020275225
    DFT Exchange-Correlation Energy =       0.0000000000000000
    Empirical Dispersion Energy =           0.0000000000000000
    PCM Polarization Energy =               0.0000000000000000
    EFP Energy =                            0.0000000000000000
    Total Energy =                       -684.0486240823211119



Properties will be evaluated at   0.000000,   0.000000,   0.000000 Bohr

Properties computed using the SCF density matrix

  Nuclear Dipole Moment: (a.u.)
     X:    -1.6912      Y:     0.8672      Z:     4.4871

  Electronic Dipole Moment: (a.u.)
     X:     2.2098      Y:    -1.8716      Z:    -3.5541

  Dipole Moment: (a.u.)
     X:     0.5186      Y:    -1.0045      Z:     0.9331     Total:     1.4658

  Dipole Moment: (Debye)
     X:     1.3182      Y:    -2.5531      Z:     2.3716     Total:     3.7257


*** tstop() called on ThinkPad-P50 at Tue Dec 12 11:11:23 2017
Module time:
	user time   =      87.43 seconds =       1.46 minutes
	system time =       0.96 seconds =       0.02 minutes
	total time  =         88 seconds =       1.47 minutes
Total time:
	user time   =      87.43 seconds =       1.46 minutes
	system time =       0.96 seconds =       0.02 minutes
	total time  =         88 seconds =       1.47 minutes
   => Loading Basis Set <=

    Name: (JUN-CC-PVDZ AUX)
    Role: JKFIT
    Keyword: DF_BASIS_SCF
    atoms 1, 4, 8, 11, 17-22 entry C          line   145 file /home/junteng/Softwares/psi4conda/share/psi4/basis/jun-cc-pvdz-jkfit.gbs 
    atoms 2-3, 9-10          entry O          line   257 file /home/junteng/Softwares/psi4conda/share/psi4/basis/jun-cc-pvdz-jkfit.gbs 
    atoms 5-7, 12-16, 23-24  entry H          line    69 file /home/junteng/Softwares/psi4conda/share/psi4/basis/jun-cc-pvdz-jkfit.gbs 

   => Loading Basis Set <=

    Name: (JUN-CC-PVDZ AUX)
    Role: RIFIT
    Keyword: DF_BASIS_SAPT
    atoms 1, 4, 8, 11, 17-22 entry C          line    99 file /home/junteng/Softwares/psi4conda/share/psi4/basis/jun-cc-pvdz-ri.gbs 
    atoms 2-3, 9-10          entry O          line   187 file /home/junteng/Softwares/psi4conda/share/psi4/basis/jun-cc-pvdz-ri.gbs 
    atoms 5-7, 12-16, 23-24  entry H          line    29 file /home/junteng/Softwares/psi4conda/share/psi4/basis/jun-cc-pvdz-ri.gbs 

   => Loading Basis Set <=

    Name: CC-PVTZ-MINAO
    Role: ORBITAL
    Keyword: BASIS
    atoms 1, 4, 8, 11, 17-22 entry C          line   130 file /home/junteng/Softwares/psi4conda/share/psi4/basis/cc-pvtz-minao.gbs 
    atoms 2-3, 9-10          entry O          line   190 file /home/junteng/Softwares/psi4conda/share/psi4/basis/cc-pvtz-minao.gbs 
    atoms 5-7, 12-16, 23-24  entry H          line    19 file /home/junteng/Softwares/psi4conda/share/psi4/basis/cc-pvtz-minao.gbs 


*** tstart() called on ThinkPad-P50
*** at Tue Dec 12 11:11:24 2017

	 --------------------------------------------
	                    FISAPT0                  
	                  Rob Parrish                
	 --------------------------------------------

    Do F-SAPT =         Yes
    Do Plot   =          No
    Memory    =      78.580 [GD]

  ==> Localization (IBO) <==

  ==> IBO Localizer 2 <==

    MinAO Basis = CC-PVTZ-MINAO
    Use Ghosts  =       FALSE
    Use Stars   =       FALSE
    Condition   =   1.000E-07
    Power       =           4
    Convergence =   1.000E-12
    Maxiter     =        1000

    @IBO Iter:                   Metric       Gradient
    @IBO    1:   1.9008782068589702E+00   3.545944E+00
    @IBO    2:   2.1513781720860954E+00   1.993916E+00
    @IBO    3:   2.2215511853297039E+00   1.006698E+00
    @IBO    4:   2.2292994458414168E+00   5.871311E-02
    @IBO    5:   2.2293307406578320E+00   1.717609E-03
    @IBO    6:   2.2293307651125533E+00   8.346521E-05
    @IBO    7:   2.2293307654411150E+00   2.000498E-05
    @IBO    8:   2.2293307654604448E+00   4.886364E-06
    @IBO    9:   2.2293307654615844E+00   1.184963E-06
    @IBO   10:   2.2293307654616514E+00   2.870909E-07
    @IBO   11:   2.2293307654616550E+00   6.982935E-08
    @IBO   12:   2.2293307654616554E+00   1.709000E-08
    @IBO   13:   2.2293307654616554E+00   4.209983E-09
    @IBO   14:   2.2293307654616554E+00   1.043116E-09
    @IBO   15:   2.2293307654616554E+00   2.596444E-10
    @IBO   16:   2.2293307654616550E+00   6.484418E-11
    @IBO   17:   2.2293307654616550E+00   1.623008E-11
    @IBO   18:   2.2293307654616550E+00   4.067511E-12
    @IBO   19:   2.2293307654616550E+00   1.019974E-12
    @IBO   20:   2.2293307654616554E+00   2.557891E-13

    IBO Localizer 2 converged.

  ==> Partitioning <==

   => Atomic Partitioning <= 

    Monomer A:   7 atoms
    Monomer B:   7 atoms
    Monomer C:  10 atoms

   => Link Bond Identification <=

    Link Bond Selection = AUTOMATIC

    Charge Completeness = 0.800

    Total Link Bonds = 2

    --------------------------
    N     Orb Type Aind1 Aind2
    --------------------------
    1      16   AC     1    18
    2      27   BC     8    17
    --------------------------

   => Link Bond Assignment <=

    Link Bond Assignment      = C

   => Partition Summary <=

    Monomer A:  0 charge,  30 protons,  30 electrons,  15 docc
    Monomer B:  0 charge,  30 protons,  30 electrons,  15 docc
    Monomer C:  0 charge,  42 protons,  42 electrons,  21 docc

  ==> Overlap Integrals <==

  ==> Kinetic Integrals <==

  ==> Nuclear Integrals <==

    Nuclear Repulsion Tot:   8.8787473227278838E+02 [Eh]

  ==> Coulomb Integrals <==

  ==> DFJK: Density-Fitted J/K Matrices <==

    J tasked:                  Yes
    K tasked:                  Yes
    wK tasked:                  No
    OpenMP threads:              1
    Integrals threads:           1
    Memory (MB):            643730
    Algorithm:                Core
    Integral Cache:           NONE
    Schwarz Cutoff:          1E-12
    Fitting Condition:       1E-12

   => Auxiliary Basis Set <=

  Basis Set: (JUN-CC-PVDZ AUX)
    Blend: JUN-CC-PVDZ-JKFIT
    Number of shells: 468
    Number of basis function: 1336
    Number of Cartesian functions: 1524
    Spherical Harmonics?: true
    Max angular momentum: 3

  ==> Relaxed SCF Equations <==

  ==> SCF A: <==

    Maxiter =          50
    E Tol   =   1.000E-06
    D Tol   =   1.000E-08

    Max DIIS Vectors = 5

    Iter   N:                        E          dE         |D|
    Iter   1:  -2.2431514297496926E+02  -2.243E+02   8.575E-04 
    Iter   2:  -2.2432497841431746E+02  -9.835E-03   5.659E-05 DIIS
    Iter   3:  -2.2432516723477755E+02  -1.888E-04   2.153E-05 DIIS
    Iter   4:  -2.2432518557359683E+02  -1.834E-05   9.934E-06 DIIS
    Iter   5:  -2.2432518992674071E+02  -4.353E-06   1.832E-06 DIIS
    Iter   6:  -2.2432519020815431E+02  -2.814E-07   7.281E-07 DIIS
    Iter   7:  -2.2432519025028358E+02  -4.213E-08   2.321E-07 DIIS
    Iter   8:  -2.2432519025551485E+02  -5.231E-09   1.074E-07 DIIS
    Iter   9:  -2.2432519025644734E+02  -9.325E-10   4.219E-08 DIIS
    Iter  10:  -2.2432519025666741E+02  -2.201E-10   1.886E-08 DIIS
    Iter  11:  -2.2432519025670325E+02  -3.584E-11   1.018E-08 DIIS
    Iter  12:  -2.2432519025671073E+02  -7.475E-12   4.517E-09 DIIS

    FISAPTSCF Converged.

    Final SCF Energy:  -2.2432519025671073E+02 [Eh]

   => Occupied Orbital Energies <=

       1  -20.610869     2  -20.555992     3  -11.395931  
       4  -11.296450     5   -1.443016     6   -1.363865  
       7   -0.965320     8   -0.770242     9   -0.675133  
      10   -0.667053    11   -0.623967    12   -0.548160  
      13   -0.537976    14   -0.479724    15   -0.463486  

   => Virtual Orbital Energies <=

      16    0.030199    17    0.057473    18    0.061659  
      19    0.070332    20    0.074102    21    0.079989  
      22    0.082043    23    0.095997    24    0.101716  
      25    0.106093    26    0.110653    27    0.114831  
      28    0.119160    29    0.123726    30    0.126972  
      31    0.132526    32    0.137042    33    0.143072  
      34    0.146788    35    0.161916    36    0.164495  
      37    0.166995    38    0.178361    39    0.180659  
      40    0.188538    41    0.195455    42    0.205610  
      43    0.208275    44    0.209210    45    0.218681  
      46    0.227410    47    0.231357    48    0.235019  
      49    0.245753    50    0.260582    51    0.261352  
      52    0.265781    53    0.269025    54    0.273387  
      55    0.278961    56    0.284612    57    0.290670  
      58    0.295387    59    0.303222    60    0.307700  
      61    0.310110    62    0.318926    63    0.328124  
      64    0.333685    65    0.336730    66    0.347185  
      67    0.357514    68    0.360484    69    0.367243  
      70    0.370352    71    0.375094    72    0.386185  
      73    0.394587    74    0.401162    75    0.405756  
      76    0.411526    77    0.413323    78    0.424583  
      79    0.431910    80    0.434983    81    0.440272  
      82    0.453083    83    0.465240    84    0.474627  
      85    0.487906    86    0.504571    87    0.524027  
      88    0.529497    89    0.534989    90    0.553994  
      91    0.571119    92    0.586756    93    0.599648  
      94    0.611407    95    0.626513    96    0.631491  
      97    0.651805    98    0.678477    99    0.708177  
     100    0.728927   101    0.740209   102    0.785274  
     103    0.789689   104    0.801346   105    0.826373  
     106    0.829917   107    0.834560   108    0.854448  
     109    0.860501   110    0.884589   111    0.897044  
     112    0.905861   113    0.909441   114    0.928228  
     115    0.929425   116    0.933177   117    0.936831  
     118    0.948333   119    0.956029   120    0.962144  
     121    0.970724   122    0.981708   123    0.988537  
     124    0.998597   125    1.008738   126    1.020782  
     127    1.031029   128    1.044663   129    1.066277  
     130    1.069469   131    1.098199   132    1.115217  
     133    1.135699   134    1.161414   135    1.176559  
     136    1.190050   137    1.197918   138    1.222758  
     139    1.237694   140    1.251113   141    1.257658  
     142    1.272230   143    1.289297   144    1.298127  
     145    1.306179   146    1.316879   147    1.324396  
     148    1.337174   149    1.357614   150    1.389000  
     151    1.421591   152    1.435899   153    1.483472  
     154    1.498836   155    1.511078   156    1.531156  
     157    1.555938   158    1.559794   159    1.565692  
     160    1.586740   161    1.598098   162    1.612895  
     163    1.625425   164    1.653328   165    1.666688  
     166    1.674881   167    1.695773   168    1.716136  
     169    1.743170   170    1.764946   171    1.781706  
     172    1.791129   173    1.810541   174    1.837275  
     175    1.863448   176    1.875295   177    1.891256  
     178    1.896400   179    1.921851   180    1.934030  
     181    1.941715   182    1.946682   183    1.955922  
     184    1.974776   185    1.982918   186    2.012217  
     187    2.018124   188    2.021271   189    2.027483  
     190    2.033298   191    2.056718   192    2.061389  
     193    2.082760   194    2.104510   195    2.111317  
     196    2.126805   197    2.140717   198    2.154764  
     199    2.171707   200    2.187149   201    2.206704  
     202    2.215951   203    2.232986   204    2.240385  
     205    2.254556   206    2.276583   207    2.309008  
     208    2.324522   209    2.338433   210    2.359224  
     211    2.363736   212    2.381073   213    2.388783  
     214    2.396606   215    2.412730   216    2.438378  
     217    2.445390   218    2.472133   219    2.487349  
     220    2.551116   221    2.586059   222    2.631575  
     223    2.637744   224    2.653471   225    2.676916  
     226    2.691202   227    2.710001   228    2.749511  
     229    2.781974   230    2.796185   231    2.811503  
     232    2.830435   233    2.838649   234    2.853055  
     235    2.867894   236    2.881236   237    2.887734  
     238    2.932205   239    2.956081   240    3.020296  
     241    3.028072   242    3.059662   243    3.093903  
     244    3.105182   245    3.150519   246    3.232360  
     247    3.265065   248    3.303280   249    3.405284  
     250    3.444152   251    3.580982   252    3.591401  
     253    3.673663   254    3.736076   255    3.779503  
     256    3.923501   257    3.948273   258    4.023347  
     259    4.070303   260    4.158014   261    4.207412  
     262    4.437918   263    4.503904   264    4.565214  
     265    4.752436   266    4.935937   267    5.038989  
     268    5.059986   269    5.182531   270    5.310848  
     271    5.515504   272    5.584564   273    5.653919  
     274    5.836475   275    6.036369   276    6.321980  
     277    6.713645   278   13.377259   279   18.422017  
     280   33.416113   281   33.469506  

  ==> SCF B: <==

    Maxiter =          50
    E Tol   =   1.000E-06
    D Tol   =   1.000E-08

    Max DIIS Vectors = 5

    Iter   N:                        E          dE         |D|
    Iter   1:  -2.2402157464630648E+02  -2.240E+02   9.494E-04 
    Iter   2:  -2.2403336756679982E+02  -1.179E-02   5.334E-05 DIIS
    Iter   3:  -2.2403356420413638E+02  -1.966E-04   1.732E-05 DIIS
    Iter   4:  -2.2403357879085209E+02  -1.459E-05   8.320E-06 DIIS
    Iter   5:  -2.2403358208313486E+02  -3.292E-06   1.654E-06 DIIS
    Iter   6:  -2.2403358228987278E+02  -2.067E-07   7.014E-07 DIIS
    Iter   7:  -2.2403358232498414E+02  -3.511E-08   2.530E-07 DIIS
    Iter   8:  -2.2403358233198270E+02  -6.999E-09   1.035E-07 DIIS
    Iter   9:  -2.2403358233346879E+02  -1.486E-09   4.904E-08 DIIS
    Iter  10:  -2.2403358233388238E+02  -4.136E-10   1.981E-08 DIIS
    Iter  11:  -2.2403358233393254E+02  -5.016E-11   1.138E-08 DIIS
    Iter  12:  -2.2403358233394232E+02  -9.777E-12   4.039E-09 DIIS

    FISAPTSCF Converged.

    Final SCF Energy:  -2.2403358233394232E+02 [Eh]

   => Occupied Orbital Energies <=

       1  -20.606546     2  -20.544609     3  -11.386508  
       4  -11.292931     5   -1.436703     6   -1.352642  
       7   -0.960611     8   -0.764751     9   -0.666580  
      10   -0.659792    11   -0.620413    12   -0.535589  
      13   -0.534476    14   -0.469409    15   -0.458060  

   => Virtual Orbital Energies <=

      16    0.037530    17    0.059133    18    0.059737  
      19    0.070603    20    0.075730    21    0.082606  
      22    0.090626    23    0.094526    24    0.097715  
      25    0.100293    26    0.104078    27    0.114545  
      28    0.122221    29    0.122620    30    0.129386  
      31    0.133462    32    0.138043    33    0.147839  
      34    0.151284    35    0.159768    36    0.163113  
      37    0.172377    38    0.174319    39    0.187081  
      40    0.192431    41    0.196351    42    0.210831  
      43    0.214223    44    0.216378    45    0.221110  
      46    0.229777    47    0.234560    48    0.240523  
      49    0.243286    50    0.259116    51    0.263061  
      52    0.268314    53    0.269159    54    0.276751  
      55    0.278314    56    0.287070    57    0.289096  
      58    0.290555    59    0.306746    60    0.311930  
      61    0.317249    62    0.323849    63    0.330082  
      64    0.336779    65    0.341295    66    0.347341  
      67    0.349294    68    0.354236    69    0.366509  
      70    0.378231    71    0.384101    72    0.387197  
      73    0.395605    74    0.403233    75    0.412602  
      76    0.415329    77    0.422629    78    0.428300  
      79    0.436998    80    0.438947    81    0.449317  
      82    0.451953    83    0.465521    84    0.474826  
      85    0.492332    86    0.502653    87    0.513517  
      88    0.527380    89    0.542940    90    0.543406  
      91    0.549300    92    0.590938    93    0.612372  
      94    0.622892    95    0.627576    96    0.652754  
      97    0.663132    98    0.682024    99    0.700659  
     100    0.729378   101    0.770150   102    0.780277  
     103    0.787776   104    0.811328   105    0.827715  
     106    0.829037   107    0.856981   108    0.863077  
     109    0.872941   110    0.895369   111    0.901730  
     112    0.904908   113    0.922136   114    0.928930  
     115    0.933664   116    0.944407   117    0.944980  
     118    0.953991   119    0.965848   120    0.969385  
     121    0.979231   122    0.981283   123    0.995186  
     124    1.000229   125    1.020285   126    1.028454  
     127    1.038652   128    1.046838   129    1.068112  
     130    1.078413   131    1.098487   132    1.102458  
     133    1.121053   134    1.157752   135    1.181660  
     136    1.185932   137    1.203896   138    1.208863  
     139    1.213177   140    1.222021   141    1.260316  
     142    1.270756   143    1.282201   144    1.294439  
     145    1.299255   146    1.319862   147    1.322758  
     148    1.348899   149    1.363037   150    1.384920  
     151    1.411497   152    1.422099   153    1.479793  
     154    1.512669   155    1.522755   156    1.533740  
     157    1.551535   158    1.568068   159    1.581450  
     160    1.589827   161    1.598366   162    1.617378  
     163    1.636009   164    1.654199   165    1.671715  
     166    1.678078   167    1.712748   168    1.719402  
     169    1.760009   170    1.772573   171    1.786188  
     172    1.810258   173    1.831836   174    1.837090  
     175    1.851671   176    1.873879   177    1.883351  
     178    1.896393   179    1.919557   180    1.927994  
     181    1.942926   182    1.952726   183    1.958294  
     184    1.970505   185    1.990692   186    2.008898  
     187    2.013877   188    2.033282   189    2.043742  
     190    2.045404   191    2.055404   192    2.071085  
     193    2.104512   194    2.108116   195    2.113883  
     196    2.126910   197    2.132416   198    2.160764  
     199    2.175590   200    2.188732   201    2.199129  
     202    2.229844   203    2.247595   204    2.257650  
     205    2.268570   206    2.280789   207    2.311976  
     208    2.329244   209    2.335904   210    2.354018  
     211    2.361537   212    2.370809   213    2.391592  
     214    2.419159   215    2.427974   216    2.432566  
     217    2.437492   218    2.475577   219    2.536998  
     220    2.559792   221    2.573589   222    2.614729  
     223    2.631095   224    2.651093   225    2.661509  
     226    2.699212   227    2.744061   228    2.771658  
     229    2.790404   230    2.797435   231    2.811724  
     232    2.832712   233    2.855840   234    2.867312  
     235    2.877479   236    2.890982   237    2.914189  
     238    2.934126   239    2.971648   240    3.023922  
     241    3.029595   242    3.045744   243    3.086541  
     244    3.121760   245    3.165919   246    3.251385  
     247    3.268932   248    3.302541   249    3.395175  
     250    3.458238   251    3.572370   252    3.595537  
     253    3.676536   254    3.723832   255    3.817545  
     256    3.917532   257    3.951388   258    4.057336  
     259    4.089339   260    4.138206   261    4.200753  
     262    4.444895   263    4.515023   264    4.568864  
     265    4.763962   266    4.927113   267    5.054795  
     268    5.070501   269    5.183033   270    5.318230  
     271    5.500037   272    5.607879   273    5.693546  
     274    5.823574   275    6.086797   276    6.337573  
     277    6.691015   278   13.363176   279   18.433260  
     280   33.422628   281   33.477071  

  ==> Frozen Core <==


    ------------------
    Range      A     B
    ------------------
    nbf      302   302
    nmo      281   281
    nocc      15    15
    nvir     266   266
    nfocc      4     4
    naocc     11    11
    navir    266   266
    nfvir      0     0
    ------------------

  ==> Unification <==

  ==> dHF <==

    E ABC(HF) =  -6.8404862408232111E+02 [Eh]
    E AC(0)   =  -4.5602747221282402E+02 [Eh]
    E BC(0)   =  -4.5606921338093969E+02 [Eh]
    E A(0)    =  -2.1266400974991433E+02 [Eh]
    E B(0)    =  -2.1264307071380398E+02 [Eh]
    E AC(HF)  =  -4.5601742493108338E+02 [Eh]
    E BC(HF)  =  -4.5605720569330424E+02 [Eh]
    E AB(HF)  =  -4.2527271881368341E+02 [Eh]
    E A(HF)   =  -2.1264455369417760E+02 [Eh]
    E B(HF)   =  -2.1262128822295369E+02 [Eh]
    E C       =  -2.2803288343860544E+02 [Eh]
    E HF      =   1.5178072837159107E-02 [Eh]

  ==> Electrostatics <==

    Elst10,r            =     0.010585454380 [Eh]

  ==> Exchange <==

    Exch10(S^2)         =     0.006766360914 [Eh]
    Exch10              =     0.006793246595 [Eh]

  ==> Induction <==

    Ind20,u (A<-B)      =    -0.001580113345 [Eh]
    Ind20,u (B<-A)      =    -0.001784478842 [Eh]
    Ind20,u             =    -0.003364592187 [Eh]
    Exch-Ind20,u (A<-B) =     0.000691805035 [Eh]
    Exch-Ind20,u (B<-A) =     0.001098919990 [Eh]
    Exch-Ind20,u        =     0.001790725025 [Eh]

  ==> CPHF Iterations <==

    Maxiter     =          50
    Convergence =   1.000E-08

    -----------------------------------------
    Iter   Monomer A    Monomer B    Time [s]
    -----------------------------------------
    1      1.847E-01    2.108E-01          17
    2      6.856E-02    8.138E-02          34
    3      1.879E-02    1.891E-02          50
    4      6.881E-03    7.856E-03          66
    5      2.154E-03    2.713E-03          78
    6      7.374E-04    1.387E-03          94
    7      2.815E-04    4.307E-04         110
    8      1.080E-04    1.553E-04         125
    9      2.631E-05    3.106E-05         137
    10     6.670E-06    9.977E-06         149
    11     2.402E-06    3.064E-06         167
    12     7.187E-07    6.860E-07         181
    13     1.558E-07    1.692E-07         197
    14     4.692E-08    4.990E-08         211
    15     1.008E-08    8.997E-09*        230
    16     2.632E-09*   8.997E-09*        237
    -----------------------------------------

    Ind20,r (A<-B)      =    -0.001787154194 [Eh]
    Ind20,r (B<-A)      =    -0.002152701536 [Eh]
    Ind20,r             =    -0.003939855730 [Eh]
    Exch-Ind20,r (A<-B) =     0.000826108172 [Eh]
    Exch-Ind20,r (B<-A) =     0.001404893176 [Eh]
    Exch-Ind20,r        =     0.002231001348 [Eh]

  ==> F-SAPT Localization (IBO) <==

  Local Orbitals for Monomer A:

  ==> IBO Localizer 2 <==

    MinAO Basis = CC-PVTZ-MINAO
    Use Ghosts  =       FALSE
    Use Stars   =       FALSE
    Condition   =   1.000E-07
    Power       =           4
    Convergence =   1.000E-12
    Maxiter     =        1000

    @IBO Iter:                   Metric       Gradient
    @IBO    1:   1.4810643863967916E+00   1.683201E+00
    @IBO    2:   1.6769385188516059E+00   9.481153E-01
    @IBO    3:   1.7089671615641546E+00   3.256604E-01
    @IBO    4:   1.7103234179346685E+00   4.301304E-03
    @IBO    5:   1.7103241361822894E+00   2.239147E-04
    @IBO    6:   1.7103241368270026E+00   4.579727E-06
    @IBO    7:   1.7103241368274331E+00   1.661790E-07
    @IBO    8:   1.7103241368274340E+00   6.129468E-09
    @IBO    9:   1.7103241368274338E+00   2.454979E-10
    @IBO   10:   1.7103241368274338E+00   1.018590E-11
    @IBO   11:   1.7103241368274338E+00   4.294939E-13

    IBO Localizer 2 converged.

  Local Orbitals for Monomer B:

  ==> IBO Localizer 2 <==

    MinAO Basis = CC-PVTZ-MINAO
    Use Ghosts  =       FALSE
    Use Stars   =       FALSE
    Condition   =   1.000E-07
    Power       =           4
    Convergence =   1.000E-12
    Maxiter     =        1000

    @IBO Iter:                   Metric       Gradient
    @IBO    1:   1.4838418860092453E+00   1.588368E+00
    @IBO    2:   1.6765807836217002E+00   1.055165E+00
    @IBO    3:   1.7093861480175283E+00   3.262914E-01
    @IBO    4:   1.7111944843946634E+00   3.978548E-02
    @IBO    5:   1.7112359210040051E+00   1.516754E-03
    @IBO    6:   1.7112359479537516E+00   1.852056E-05
    @IBO    7:   1.7112359479590842E+00   4.377104E-07
    @IBO    8:   1.7112359479590873E+00   9.868379E-09
    @IBO    9:   1.7112359479590873E+00   2.553140E-10
    @IBO   10:   1.7112359479590873E+00   7.853489E-12
    @IBO   11:   1.7112359479590873E+00   2.789953E-13

    IBO Localizer 2 converged.

  ==> F-SAPT Electrostatics <==

  ==> DFERI: Density Fitted 3-Index Tensors <==

    Schwarz cutoff =   0.000E+00
    J cutoff       =   1.000E-12
    Mem (GB)       =         628

   => Auxiliary Basis <=

  Basis Set: (JUN-CC-PVDZ AUX)
    Blend: JUN-CC-PVDZ-JKFIT
    Number of shells: 468
    Number of basis function: 1336
    Number of Cartesian functions: 1524
    Spherical Harmonics?: true
    Max angular momentum: 3

    Elst10,r            =     0.010585454431 [Eh]

  ==> F-SAPT Exchange <==

  ==> DFERI: Density Fitted 3-Index Tensors <==

    Schwarz cutoff =   0.000E+00
    J cutoff       =   1.000E-12
    Mem (GB)       =         628

   => Auxiliary Basis <=

  Basis Set: (JUN-CC-PVDZ AUX)
    Blend: JUN-CC-PVDZ-JKFIT
    Number of shells: 468
    Number of basis function: 1336
    Number of Cartesian functions: 1524
    Spherical Harmonics?: true
    Max angular momentum: 3

    Exch10(S^2)         =     0.006766360914 [Eh]

    Scaling F-SAPT Exch10(S^2) by   1.004E+00 to match Exch10

  ==> F-SAPT Induction <==

  ==> DFERI: Density Fitted 3-Index Tensors <==

    Schwarz cutoff =   0.000E+00
    J cutoff       =   1.000E-12
    Mem (GB)       =         628

   => Auxiliary Basis <=

  Basis Set: (JUN-CC-PVDZ AUX)
    Blend: JUN-CC-PVDZ-JKFIT
    Number of shells: 468
    Number of basis function: 1336
    Number of Cartesian functions: 1524
    Spherical Harmonics?: true
    Max angular momentum: 3

    Ind20,u (A<-B)      =    -0.001580113347 [Eh]
    Ind20,u (B<-A)      =    -0.001784478843 [Eh]
    Ind20,u             =    -0.003364592189 [Eh]
    Exch-Ind20,u (A<-B) =     0.000691805036 [Eh]
    Exch-Ind20,u (B<-A) =     0.001098919990 [Eh]
    Exch-Ind20,u        =     0.001790725026 [Eh]

    Scaling for delta HF        =   1.288E+00
    Scaling for response (A<-B) =   1.082E+00
    Scaling for response (B<-A) =   1.091E+00
    Scaling for total (A<-B)    =   1.393E+00
    Scaling for total (B<-A)    =   1.405E+00

  ==> F-SAPT Dispersion <==

  ==> DFERI: Density Fitted 3-Index Tensors <==

    Schwarz cutoff =   0.000E+00
    J cutoff       =   1.000E-12
    Mem (GB)       =         628

   => Auxiliary Basis <=

  Basis Set: (JUN-CC-PVDZ AUX)
    Blend: JUN-CC-PVDZ-RI
    Number of shells: 354
    Number of basis function: 1050
    Number of Cartesian functions: 1214
    Spherical Harmonics?: true
    Max angular momentum: 3

    Disp20              =    -0.003734261347 [Eh]
    Exch-Disp20         =     0.000513593214 [Eh]

  ==> F-SAPT Output <==

    F-SAPT Data Filepath = fsapt/

  ==> Results <==


    SAPT Results  
  --------------------------------------------------------------------------------------------------------
    Electrostatics                 10.58545438 [mEh]       6.64247319 [kcal/mol]      27.79211047 [kJ/mol]
      Elst10,r                     10.58545438 [mEh]       6.64247319 [kcal/mol]      27.79211047 [kJ/mol]

    Exchange                        6.79324659 [mEh]       4.26282677 [kcal/mol]      17.83566894 [kJ/mol]
      Exch10                        6.79324659 [mEh]       4.26282677 [kcal/mol]      17.83566894 [kJ/mol]
      Exch10(S^2)                   6.76636091 [mEh]       4.24595575 [kcal/mol]      17.76508058 [kJ/mol]

    Induction                      -2.20062814 [mEh]      -1.38091506 [kcal/mol]      -5.77774918 [kJ/mol]
      Ind20,r                      -3.93985573 [mEh]      -2.47229690 [kcal/mol]     -10.34409122 [kJ/mol]
      Exch-Ind20,r                  2.23100135 [mEh]       1.39997454 [kcal/mol]       5.85749404 [kJ/mol]
      delta HF,r (2)               -0.49177376 [mEh]      -0.30859270 [kcal/mol]      -1.29115199 [kJ/mol]
      Induction (A<-B)             -1.23761564 [mEh]      -0.77661557 [kcal/mol]      -3.24935988 [kJ/mol]
      Induction (B<-A)             -0.96301249 [mEh]      -0.60429949 [kcal/mol]      -2.52838930 [kJ/mol]

    Dispersion                     -3.22066813 [mEh]      -2.02099985 [kcal/mol]      -8.45586418 [kJ/mol]
      Disp20                       -3.73426135 [mEh]      -2.34328447 [kcal/mol]      -9.80430317 [kJ/mol]
      Exch-Disp20                   0.51359321 [mEh]       0.32228462 [kcal/mol]       1.34843898 [kJ/mol]

  Total HF                         15.17807284 [mEh]       9.52438490 [kcal/mol]      39.85003023 [kJ/mol]
  Total SAPT0                      11.95740470 [mEh]       7.50338505 [kcal/mol]      31.39416605 [kJ/mol]

  --------------------------------------------------------------------------------------------------------
    Han Solo: This is *not* gonna work.
    Luke Skywalker: Why didn't you say so before?
    Han Solo: I *did* say so before.

*** tstop() called on ThinkPad-P50 at Tue Dec 12 11:21:45 2017
Module time:
	user time   =     603.24 seconds =      10.05 minutes
	system time =       6.21 seconds =       0.10 minutes
	total time  =        621 seconds =      10.35 minutes
Total time:
	user time   =     691.54 seconds =      11.53 minutes
	system time =       7.17 seconds =       0.12 minutes
	total time  =        710 seconds =      11.83 minutes

*** Psi4 exiting successfully. Buy a developer a beer!
