
    -----------------------------------------------------------------------
          Psi4: An Open-Source Ab Initio Electronic Structure Package
                               Psi4 1.1 release

                         Git: Rev {HEAD} add49b9 


    R. M. Parrish, L. A. Burns, D. G. A. Smith, A. C. Simmonett,
    A. E. DePrince III, E. G. Hohenstein, U. Bozkaya, A. Yu. Sokolov,
    R. Di Remigio, R. M. Richard, J. F. Gonthier, A. M. James,
    H. R. McAlexander, A. Kumar, M. Saitow, X. Wang, B. P. Pritchard,
    P. Verma, H. F. Schaefer III, K. Patkowski, R. A. King, E. F. Valeev,
    F. A. Evangelista, J. M. Turney, T. D. Crawford, and C. D. Sherrill,
    J. Chem. Theory Comput. in press (2017).
    (doi: 10.1021/acs.jctc.7b00174)

    -----------------------------------------------------------------------


    Psi4 started on: Tuesday, 12 December 2017 11:21AM

    Process ID:  15318
    PSIDATADIR: /home/junteng/Softwares/psi4conda/share/psi4
    Memory:     500.0 MiB
    Threads:    1
    
  ==> Input File <==

--------------------------------------------------------------------------
memory 750000 mb

molecule mol {
0 1
C          0.12260        1.73557        0.09444
O         -0.11980        2.91866        0.16244
O          1.37207        1.24018        0.03450
C          2.44189        2.20042       -0.00278
H          2.31182        2.87893       -0.84651
H          2.46772        2.77540        0.92400
H          3.35069        1.61427       -0.11825
--
0 1
C          0.73521       -1.25777       -0.35213
O          1.22573       -1.42177       -1.44050
O          1.30195       -1.64597        0.80344
C          2.61832       -2.21964        0.69456
H          3.31043       -1.49304        0.26607
H          2.59660       -3.11029        0.06487
H          2.90819       -2.47363        1.71148
--
0 1
H         -2.44017        2.13571        0.35844
H         -1.47975       -2.66861       -0.29027
C         -0.64176       -0.69939       -0.11702
C         -0.91866        0.66543        0.06689
C         -1.69476       -1.61698       -0.13934
C         -3.01086       -1.19419        0.02172
C         -3.28911        0.15949        0.20434
C         -2.24811        1.07887        0.22302
H         -4.31183        0.49566        0.32845
H         -3.81526       -1.92095        0.00260

symmetry c1
no_reorient
no_com
}

set {
basis jun-cc-pvdz
scf_type df
guess sad
freeze_core true
}

energy('fisapt0')
--------------------------------------------------------------------------

  Memory set to 698.492 GiB by Python driver.

*** tstart() called on ThinkPad-P50
*** at Tue Dec 12 11:21:46 2017

   => Loading Basis Set <=

    Name: JUN-CC-PVDZ
    Role: ORBITAL
    Keyword: BASIS
    atoms 1, 4, 8, 11, 17-22 entry C          line   157 file /home/junteng/Softwares/psi4conda/share/psi4/basis/jun-cc-pvdz.gbs 
    atoms 2-3, 9-10          entry O          line   225 file /home/junteng/Softwares/psi4conda/share/psi4/basis/jun-cc-pvdz.gbs 
    atoms 5-7, 12-16, 23-24  entry H          line    35 file /home/junteng/Softwares/psi4conda/share/psi4/basis/jun-cc-pvdz.gbs 


         ---------------------------------------------------------
                                   SCF
            by Justin Turney, Rob Parrish, and Andy Simmonett
                              RHF Reference
                        1 Threads, 715255 MiB Core
         ---------------------------------------------------------

  ==> Geometry <==

    Molecular point group: c1
    Full point group: C1

    Geometry (in Angstrom), charge = 0, multiplicity = 1:

       Center              X                  Y                   Z               Mass       
    ------------   -----------------  -----------------  -----------------  -----------------
           C          0.122600000000     1.735570000000     0.094440000000    12.000000000000
           O         -0.119800000000     2.918660000000     0.162440000000    15.994914619560
           O          1.372070000000     1.240180000000     0.034500000000    15.994914619560
           C          2.441890000000     2.200420000000    -0.002780000000    12.000000000000
           H          2.311820000000     2.878930000000    -0.846510000000     1.007825032070
           H          2.467720000000     2.775400000000     0.924000000000     1.007825032070
           H          3.350690000000     1.614270000000    -0.118250000000     1.007825032070
           C          0.735210000000    -1.257770000000    -0.352130000000    12.000000000000
           O          1.225730000000    -1.421770000000    -1.440500000000    15.994914619560
           O          1.301950000000    -1.645970000000     0.803440000000    15.994914619560
           C          2.618320000000    -2.219640000000     0.694560000000    12.000000000000
           H          3.310430000000    -1.493040000000     0.266070000000     1.007825032070
           H          2.596600000000    -3.110290000000     0.064870000000     1.007825032070
           H          2.908190000000    -2.473630000000     1.711480000000     1.007825032070
           H         -2.440170000000     2.135710000000     0.358440000000     1.007825032070
           H         -1.479750000000    -2.668610000000    -0.290270000000     1.007825032070
           C         -0.641760000000    -0.699390000000    -0.117020000000    12.000000000000
           C         -0.918660000000     0.665430000000     0.066890000000    12.000000000000
           C         -1.694760000000    -1.616980000000    -0.139340000000    12.000000000000
           C         -3.010860000000    -1.194190000000     0.021720000000    12.000000000000
           C         -3.289110000000     0.159490000000     0.204340000000    12.000000000000
           C         -2.248110000000     1.078870000000     0.223020000000    12.000000000000
           H         -4.311830000000     0.495660000000     0.328450000000     1.007825032070
           H         -3.815260000000    -1.920950000000     0.002600000000     1.007825032070

  Running in c1 symmetry.

  Rotational constants: A =      0.02847  B =      0.02277  C =      0.01385 [cm^-1]
  Rotational constants: A =    853.45237  B =    682.72409  C =    415.13942 [MHz]
  Nuclear repulsion =  892.127659918593167

  Charge       = 0
  Multiplicity = 1
  Electrons    = 102
  Nalpha       = 51
  Nbeta        = 51

  ==> Algorithm <==

  SCF Algorithm Type is DF.
  DIIS enabled.
  MOM disabled.
  Fractional occupation disabled.
  Guess Type is SAD.
  Energy threshold   = 1.00e-08
  Density threshold  = 1.00e-08
  Integral threshold = 0.00e+00

  ==> Primary Basis <==

  Basis Set: JUN-CC-PVDZ
    Blend: JUN-CC-PVDZ
    Number of shells: 142
    Number of basis function: 302
    Number of Cartesian functions: 316
    Spherical Harmonics?: true
    Max angular momentum: 2

   => Loading Basis Set <=

    Name: (JUN-CC-PVDZ AUX)
    Role: JKFIT
    Keyword: DF_BASIS_SCF
    atoms 1, 4, 8, 11, 17-22 entry C          line   145 file /home/junteng/Softwares/psi4conda/share/psi4/basis/jun-cc-pvdz-jkfit.gbs 
    atoms 2-3, 9-10          entry O          line   257 file /home/junteng/Softwares/psi4conda/share/psi4/basis/jun-cc-pvdz-jkfit.gbs 
    atoms 5-7, 12-16, 23-24  entry H          line    69 file /home/junteng/Softwares/psi4conda/share/psi4/basis/jun-cc-pvdz-jkfit.gbs 

  ==> Pre-Iterations <==

   -------------------------------------------------------
    Irrep   Nso     Nmo     Nalpha   Nbeta   Ndocc  Nsocc
   -------------------------------------------------------
     A        302     302       0       0       0       0
   -------------------------------------------------------
    Total     302     302      51      51      51       0
   -------------------------------------------------------

  ==> Integral Setup <==

  ==> DFJK: Density-Fitted J/K Matrices <==

    J tasked:                  Yes
    K tasked:                  Yes
    wK tasked:                  No
    OpenMP threads:              1
    Integrals threads:           1
    Memory (MB):            536441
    Algorithm:                Core
    Integral Cache:           NONE
    Schwarz Cutoff:          1E-12
    Fitting Condition:       1E-12

   => Auxiliary Basis Set <=

  Basis Set: (JUN-CC-PVDZ AUX)
    Blend: JUN-CC-PVDZ-JKFIT
    Number of shells: 468
    Number of basis function: 1336
    Number of Cartesian functions: 1524
    Spherical Harmonics?: true
    Max angular momentum: 3

  Minimum eigenvalue in the overlap matrix is 4.3567849851E-06.
  Using Symmetric Orthogonalization.

  SCF Guess: Superposition of Atomic Densities via on-the-fly atomic UHF.

  ==> Iterations <==

                           Total Energy        Delta E     RMS |[F,P]|

   @DF-RHF iter   0:  -689.21312785274154   -6.89213e+02   2.25833e-02 
   @DF-RHF iter   1:  -683.63166819369883    5.58146e+00   2.50191e-03 
   @DF-RHF iter   2:  -683.96891548150984   -3.37247e-01   1.21075e-03 DIIS
   @DF-RHF iter   3:  -684.03168578372959   -6.27703e-02   4.45588e-04 DIIS
   @DF-RHF iter   4:  -684.04574892336746   -1.40631e-02   1.05533e-04 DIIS
   @DF-RHF iter   5:  -684.04680093462025   -1.05201e-03   5.01021e-05 DIIS
   @DF-RHF iter   6:  -684.04705568215672   -2.54748e-04   1.99920e-05 DIIS
   @DF-RHF iter   7:  -684.04709880026962   -4.31181e-05   7.46491e-06 DIIS
   @DF-RHF iter   8:  -684.04710590357456   -7.10330e-06   3.27981e-06 DIIS
   @DF-RHF iter   9:  -684.04710757517523   -1.67160e-06   1.55374e-06 DIIS
   @DF-RHF iter  10:  -684.04710805783554   -4.82660e-07   5.86225e-07 DIIS
   @DF-RHF iter  11:  -684.04710813319832   -7.53628e-08   1.91328e-07 DIIS
   @DF-RHF iter  12:  -684.04710813911902   -5.92070e-09   7.15725e-08 DIIS
   @DF-RHF iter  13:  -684.04710813987685   -7.57836e-10   3.32252e-08 DIIS
   @DF-RHF iter  14:  -684.04710814005887   -1.82013e-10   1.54512e-08 DIIS
   @DF-RHF iter  15:  -684.04710814010286   -4.39968e-11   6.93436e-09 DIIS

  ==> Post-Iterations <==

    Orbital Energies (a.u.)
    -----------------------

    Doubly Occupied:                                                      

       1A    -20.617775     2A    -20.615217     3A    -20.559459  
       4A    -20.559393     5A    -11.400741     6A    -11.400717  
       7A    -11.300715     8A    -11.299277     9A    -11.284287  
      10A    -11.274583    11A    -11.268880    12A    -11.265102  
      13A    -11.264198    14A    -11.259419    15A     -1.476235  
      16A     -1.469427    17A     -1.371552    18A     -1.370303  
      19A     -1.185123    20A     -1.069355    21A     -1.055664  
      22A     -0.989381    23A     -0.978151    24A     -0.888594  
      25A     -0.860552    26A     -0.801182    27A     -0.786968  
      28A     -0.749836    29A     -0.714920    30A     -0.696503  
      31A     -0.683543    32A     -0.677015    33A     -0.673772  
      34A     -0.663110    35A     -0.639640    36A     -0.626135  
      37A     -0.601530    38A     -0.593431    39A     -0.566811  
      40A     -0.557282    41A     -0.548272    42A     -0.537176  
      43A     -0.526444    44A     -0.517120    45A     -0.514893  
      46A     -0.474459    47A     -0.463964    48A     -0.462347  
      49A     -0.453366    50A     -0.361057    51A     -0.355651  

    Virtual:                                                              

      52A      0.056069    53A      0.056877    54A      0.061038  
      55A      0.067017    56A      0.072773    57A      0.081447  
      58A      0.087241    59A      0.095865    60A      0.097067  
      61A      0.102860    62A      0.104324    63A      0.111698  
      64A      0.113229    65A      0.120144    66A      0.129730  
      67A      0.132179    68A      0.142901    69A      0.151910  
      70A      0.155397    71A      0.161097    72A      0.168484  
      73A      0.173009    74A      0.177207    75A      0.178887  
      76A      0.195094    77A      0.199578    78A      0.203971  
      79A      0.208560    80A      0.211413    81A      0.222210  
      82A      0.226825    83A      0.235866    84A      0.239036  
      85A      0.245918    86A      0.248697    87A      0.252779  
      88A      0.262005    89A      0.266435    90A      0.276464  
      91A      0.281107    92A      0.288409    93A      0.295194  
      94A      0.302387    95A      0.307534    96A      0.309256  
      97A      0.315583    98A      0.331009    99A      0.332180  
     100A      0.337061   101A      0.346782   102A      0.351830  
     103A      0.361541   104A      0.361972   105A      0.367292  
     106A      0.370722   107A      0.382871   108A      0.385766  
     109A      0.391751   110A      0.395879   111A      0.399699  
     112A      0.408192   113A      0.411403   114A      0.427357  
     115A      0.432040   116A      0.440296   117A      0.446401  
     118A      0.453178   119A      0.460551   120A      0.464657  
     121A      0.477483   122A      0.494536   123A      0.498893  
     124A      0.502358   125A      0.504944   126A      0.534340  
     127A      0.549805   128A      0.551122   129A      0.566290  
     130A      0.618436   131A      0.625308   132A      0.666022  
     133A      0.690156   134A      0.716199   135A      0.747476  
     136A      0.759079   137A      0.766944   138A      0.780265  
     139A      0.796951   140A      0.813973   141A      0.832966  
     142A      0.840383   143A      0.846649   144A      0.867365  
     145A      0.874046   146A      0.883872   147A      0.894358  
     148A      0.897952   149A      0.903775   150A      0.908742  
     151A      0.920230   152A      0.924366   153A      0.929299  
     154A      0.934353   155A      0.946556   156A      0.953924  
     157A      0.956068   158A      0.961583   159A      0.968747  
     160A      0.979896   161A      0.988276   162A      1.004719  
     163A      1.007567   164A      1.020132   165A      1.028055  
     166A      1.049583   167A      1.061886   168A      1.064706  
     169A      1.109804   170A      1.119235   171A      1.137901  
     172A      1.147669   173A      1.164482   174A      1.191044  
     175A      1.201875   176A      1.206458   177A      1.229153  
     178A      1.235593   179A      1.249396   180A      1.258398  
     181A      1.265374   182A      1.277351   183A      1.282469  
     184A      1.287129   185A      1.306327   186A      1.347423  
     187A      1.362412   188A      1.376580   189A      1.383817  
     190A      1.400397   191A      1.430439   192A      1.456049  
     193A      1.481050   194A      1.499641   195A      1.507198  
     196A      1.526550   197A      1.528411   198A      1.560122  
     199A      1.579177   200A      1.591497   201A      1.607684  
     202A      1.615013   203A      1.624025   204A      1.652411  
     205A      1.664189   206A      1.666155   207A      1.674569  
     208A      1.688212   209A      1.699969   210A      1.716206  
     211A      1.753591   212A      1.766565   213A      1.770206  
     214A      1.779675   215A      1.806734   216A      1.836964  
     217A      1.849873   218A      1.878797   219A      1.885630  
     220A      1.899223   221A      1.910570   222A      1.925316  
     223A      1.934923   224A      1.936166   225A      1.941989  
     226A      1.965197   227A      1.971602   228A      1.980018  
     229A      1.995252   230A      2.003512   231A      2.013223  
     232A      2.017875   233A      2.035599   234A      2.045938  
     235A      2.064010   236A      2.071641   237A      2.078513  
     238A      2.087767   239A      2.127303   240A      2.137027  
     241A      2.148328   242A      2.158512   243A      2.161786  
     244A      2.179601   245A      2.195374   246A      2.207907  
     247A      2.226025   248A      2.276211   249A      2.321669  
     250A      2.341172   251A      2.373794   252A      2.378556  
     253A      2.385407   254A      2.390169   255A      2.399208  
     256A      2.412740   257A      2.421975   258A      2.430124  
     259A      2.460083   260A      2.483415   261A      2.513370  
     262A      2.568904   263A      2.628701   264A      2.680791  
     265A      2.704053   266A      2.733632   267A      2.760486  
     268A      2.772655   269A      2.783375   270A      2.790986  
     271A      2.793330   272A      2.816777   273A      2.842796  
     274A      2.859605   275A      2.878306   276A      2.920495  
     277A      2.976220   278A      2.987250   279A      3.012119  
     280A      3.029055   281A      3.069873   282A      3.093263  
     283A      3.116321   284A      3.127232   285A      3.202428  
     286A      3.242556   287A      3.271932   288A      3.283760  
     289A      3.328652   290A      3.364388   291A      3.436843  
     292A      3.552720   293A      3.574228   294A      3.642855  
     295A      3.680321   296A      3.759302   297A      3.821689  
     298A      3.842075   299A      3.936041   300A      4.019961  
     301A      4.066550   302A      4.081999  

    Final Occupation by Irrep:
              A 
    DOCC [    51 ]

  Energy converged.

  @DF-RHF Final Energy:  -684.04710814010286

   => Energetics <=

    Nuclear Repulsion Energy =            892.1276599185931673
    One-Electron Energy =               -2705.6884855531170615
    Two-Electron Energy =                1129.5137174944211438
    DFT Exchange-Correlation Energy =       0.0000000000000000
    Empirical Dispersion Energy =           0.0000000000000000
    PCM Polarization Energy =               0.0000000000000000
    EFP Energy =                            0.0000000000000000
    Total Energy =                       -684.0471081401028641



Properties will be evaluated at   0.000000,   0.000000,   0.000000 Bohr

Properties computed using the SCF density matrix

  Nuclear Dipole Moment: (a.u.)
     X:    -0.3277      Y:     0.1382      Z:     5.7488

  Electronic Dipole Moment: (a.u.)
     X:     0.4457      Y:    -0.8569      Z:    -5.0534

  Dipole Moment: (a.u.)
     X:     0.1180      Y:    -0.7187      Z:     0.6953     Total:     1.0070

  Dipole Moment: (Debye)
     X:     0.3000      Y:    -1.8269      Z:     1.7674     Total:     2.5595


*** tstop() called on ThinkPad-P50 at Tue Dec 12 11:24:54 2017
Module time:
	user time   =     185.46 seconds =       3.09 minutes
	system time =       1.80 seconds =       0.03 minutes
	total time  =        188 seconds =       3.13 minutes
Total time:
	user time   =     185.46 seconds =       3.09 minutes
	system time =       1.80 seconds =       0.03 minutes
	total time  =        188 seconds =       3.13 minutes
   => Loading Basis Set <=

    Name: (JUN-CC-PVDZ AUX)
    Role: JKFIT
    Keyword: DF_BASIS_SCF
    atoms 1, 4, 8, 11, 17-22 entry C          line   145 file /home/junteng/Softwares/psi4conda/share/psi4/basis/jun-cc-pvdz-jkfit.gbs 
    atoms 2-3, 9-10          entry O          line   257 file /home/junteng/Softwares/psi4conda/share/psi4/basis/jun-cc-pvdz-jkfit.gbs 
    atoms 5-7, 12-16, 23-24  entry H          line    69 file /home/junteng/Softwares/psi4conda/share/psi4/basis/jun-cc-pvdz-jkfit.gbs 

   => Loading Basis Set <=

    Name: (JUN-CC-PVDZ AUX)
    Role: RIFIT
    Keyword: DF_BASIS_SAPT
    atoms 1, 4, 8, 11, 17-22 entry C          line    99 file /home/junteng/Softwares/psi4conda/share/psi4/basis/jun-cc-pvdz-ri.gbs 
    atoms 2-3, 9-10          entry O          line   187 file /home/junteng/Softwares/psi4conda/share/psi4/basis/jun-cc-pvdz-ri.gbs 
    atoms 5-7, 12-16, 23-24  entry H          line    29 file /home/junteng/Softwares/psi4conda/share/psi4/basis/jun-cc-pvdz-ri.gbs 

   => Loading Basis Set <=

    Name: CC-PVTZ-MINAO
    Role: ORBITAL
    Keyword: BASIS
    atoms 1, 4, 8, 11, 17-22 entry C          line   130 file /home/junteng/Softwares/psi4conda/share/psi4/basis/cc-pvtz-minao.gbs 
    atoms 2-3, 9-10          entry O          line   190 file /home/junteng/Softwares/psi4conda/share/psi4/basis/cc-pvtz-minao.gbs 
    atoms 5-7, 12-16, 23-24  entry H          line    19 file /home/junteng/Softwares/psi4conda/share/psi4/basis/cc-pvtz-minao.gbs 


*** tstart() called on ThinkPad-P50
*** at Tue Dec 12 11:24:57 2017

	 --------------------------------------------
	                    FISAPT0                  
	                  Rob Parrish                
	 --------------------------------------------

    Do F-SAPT =         Yes
    Do Plot   =          No
    Memory    =      78.580 [GD]

  ==> Localization (IBO) <==

  ==> IBO Localizer 2 <==

    MinAO Basis = CC-PVTZ-MINAO
    Use Ghosts  =       FALSE
    Use Stars   =       FALSE
    Condition   =   1.000E-07
    Power       =           4
    Convergence =   1.000E-12
    Maxiter     =        1000

    @IBO Iter:                   Metric       Gradient
    @IBO    1:   1.9241182437131703E+00   2.749603E+00
    @IBO    2:   2.1390635701001783E+00   2.247521E+00
    @IBO    3:   2.2220044662677760E+00   8.940044E-01
    @IBO    4:   2.2293468049353100E+00   8.232512E-02
    @IBO    5:   2.2293964537774622E+00   1.704560E-03
    @IBO    6:   2.2293964789528298E+00   6.175099E-05
    @IBO    7:   2.2293964790488170E+00   7.692267E-06
    @IBO    8:   2.2293964790519989E+00   1.589448E-06
    @IBO    9:   2.2293964790521370E+00   3.414749E-07
    @IBO   10:   2.2293964790521432E+00   7.464608E-08
    @IBO   11:   2.2293964790521441E+00   1.655124E-08
    @IBO   12:   2.2293964790521437E+00   3.706067E-09
    @IBO   13:   2.2293964790521437E+00   8.344027E-10
    @IBO   14:   2.2293964790521437E+00   1.883210E-10
    @IBO   15:   2.2293964790521441E+00   4.253719E-11
    @IBO   16:   2.2293964790521437E+00   9.609863E-12
    @IBO   17:   2.2293964790521437E+00   2.171401E-12
    @IBO   18:   2.2293964790521441E+00   4.908548E-13

    IBO Localizer 2 converged.

  ==> Partitioning <==

   => Atomic Partitioning <= 

    Monomer A:   7 atoms
    Monomer B:   7 atoms
    Monomer C:  10 atoms

   => Link Bond Identification <=

    Link Bond Selection = AUTOMATIC

    Charge Completeness = 0.800

    Total Link Bonds = 2

    --------------------------
    N     Orb Type Aind1 Aind2
    --------------------------
    1      16   AC     1    18
    2      27   BC     8    17
    --------------------------

   => Link Bond Assignment <=

    Link Bond Assignment      = C

   => Partition Summary <=

    Monomer A:  0 charge,  30 protons,  30 electrons,  15 docc
    Monomer B:  0 charge,  30 protons,  30 electrons,  15 docc
    Monomer C:  0 charge,  42 protons,  42 electrons,  21 docc

  ==> Overlap Integrals <==

  ==> Kinetic Integrals <==

  ==> Nuclear Integrals <==

    Nuclear Repulsion Tot:   8.9212765991859305E+02 [Eh]

  ==> Coulomb Integrals <==

  ==> DFJK: Density-Fitted J/K Matrices <==

    J tasked:                  Yes
    K tasked:                  Yes
    wK tasked:                  No
    OpenMP threads:              1
    Integrals threads:           1
    Memory (MB):            643730
    Algorithm:                Core
    Integral Cache:           NONE
    Schwarz Cutoff:          1E-12
    Fitting Condition:       1E-12

   => Auxiliary Basis Set <=

  Basis Set: (JUN-CC-PVDZ AUX)
    Blend: JUN-CC-PVDZ-JKFIT
    Number of shells: 468
    Number of basis function: 1336
    Number of Cartesian functions: 1524
    Spherical Harmonics?: true
    Max angular momentum: 3

  ==> Relaxed SCF Equations <==

  ==> SCF A: <==

    Maxiter =          50
    E Tol   =   1.000E-06
    D Tol   =   1.000E-08

    Max DIIS Vectors = 5

    Iter   N:                        E          dE         |D|
    Iter   1:  -2.2399623377257669E+02  -2.240E+02   1.117E-03 
    Iter   2:  -2.2401302937764896E+02  -1.680E-02   6.930E-05 DIIS
    Iter   3:  -2.2401326609782990E+02  -2.367E-04   2.888E-05 DIIS
    Iter   4:  -2.2401329522365288E+02  -2.913E-05   1.093E-05 DIIS
    Iter   5:  -2.2401330036436244E+02  -5.141E-06   1.958E-06 DIIS
    Iter   6:  -2.2401330064311688E+02  -2.788E-07   7.222E-07 DIIS
    Iter   7:  -2.2401330068590374E+02  -4.279E-08   2.394E-07 DIIS
    Iter   8:  -2.2401330068964145E+02  -3.738E-09   9.969E-08 DIIS
    Iter   9:  -2.2401330069027978E+02  -6.383E-10   3.529E-08 DIIS
    Iter  10:  -2.2401330069038593E+02  -1.062E-10   1.508E-08 DIIS
    Iter  11:  -2.2401330069040006E+02  -1.413E-11   6.598E-09 DIIS

    FISAPTSCF Converged.

    Final SCF Energy:  -2.2401330069040006E+02 [Eh]

   => Occupied Orbital Energies <=

       1  -20.604966     2  -20.545460     3  -11.387994  
       4  -11.293136     5   -1.436636     6   -1.354653  
       7   -0.961171     8   -0.765045     9   -0.666959  
      10   -0.658843    11   -0.620412    12   -0.536137  
      13   -0.534430    14   -0.472303    15   -0.458147  

   => Virtual Orbital Energies <=

      16    0.029625    17    0.056728    18    0.061880  
      19    0.065061    20    0.075038    21    0.080318  
      22    0.088827    23    0.091260    24    0.098551  
      25    0.101877    26    0.104943    27    0.111501  
      28    0.120450    29    0.124304    30    0.126007  
      31    0.128017    32    0.137520    33    0.144224  
      34    0.148179    35    0.155183    36    0.160593  
      37    0.172273    38    0.172796    39    0.181608  
      40    0.185121    41    0.197180    42    0.204342  
      43    0.210151    44    0.219794    45    0.223054  
      46    0.229995    47    0.233614    48    0.241824  
      49    0.243164    50    0.252519    51    0.258332  
      52    0.263791    53    0.271610    54    0.277267  
      55    0.279344    56    0.283854    57    0.288181  
      58    0.294034    59    0.303757    60    0.314352  
      61    0.319244    62    0.321124    63    0.328039  
      64    0.328949    65    0.333099    66    0.339998  
      67    0.350985    68    0.363758    69    0.369167  
      70    0.372412    71    0.380059    72    0.384119  
      73    0.391654    74    0.396935    75    0.405666  
      76    0.414790    77    0.419319    78    0.426165  
      79    0.440317    80    0.445050    81    0.458371  
      82    0.465527    83    0.472354    84    0.477673  
      85    0.489444    86    0.497524    87    0.507837  
      88    0.520295    89    0.534641    90    0.546057  
      91    0.565831    92    0.594199    93    0.605852  
      94    0.618069    95    0.627577    96    0.643068  
      97    0.666781    98    0.683144    99    0.693414  
     100    0.735886   101    0.782164   102    0.786308  
     103    0.790391   104    0.803847   105    0.825166  
     106    0.834571   107    0.863736   108    0.866868  
     109    0.875900   110    0.894172   111    0.896631  
     112    0.915000   113    0.923005   114    0.930238  
     115    0.935912   116    0.945152   117    0.948716  
     118    0.952206   119    0.963155   120    0.968375  
     121    0.975291   122    0.994473   123    1.001225  
     124    1.006033   125    1.016318   126    1.039544  
     127    1.041689   128    1.049136   129    1.072264  
     130    1.087622   131    1.098319   132    1.117578  
     133    1.129791   134    1.155570   135    1.177523  
     136    1.184111   137    1.203608   138    1.215569  
     139    1.219143   140    1.240956   141    1.256838  
     142    1.257879   143    1.277043   144    1.294967  
     145    1.302865   146    1.307866   147    1.312493  
     148    1.336194   149    1.348762   150    1.370267  
     151    1.401433   152    1.441952   153    1.460309  
     154    1.511332   155    1.517184   156    1.528018  
     157    1.555557   158    1.561294   159    1.568134  
     160    1.585780   161    1.609145   162    1.619842  
     163    1.638198   164    1.648332   165    1.665548  
     166    1.694927   167    1.724284   168    1.737955  
     169    1.763370   170    1.769227   171    1.796564  
     172    1.802261   173    1.829523   174    1.832838  
     175    1.844599   176    1.867854   177    1.907714  
     178    1.920097   179    1.925141   180    1.938474  
     181    1.944005   182    1.960467   183    1.969185  
     184    1.974694   185    1.990629   186    2.018668  
     187    2.024917   188    2.039322   189    2.047719  
     190    2.051607   191    2.058355   192    2.066389  
     193    2.068568   194    2.093470   195    2.113288  
     196    2.151559   197    2.153481   198    2.162911  
     199    2.184301   200    2.186437   201    2.199424  
     202    2.208147   203    2.238443   204    2.242958  
     205    2.253986   206    2.259372   207    2.299115  
     208    2.328325   209    2.351673   210    2.370117  
     211    2.386333   212    2.387914   213    2.405157  
     214    2.425497   215    2.432238   216    2.447680  
     217    2.465924   218    2.502660   219    2.548255  
     220    2.579347   221    2.599192   222    2.616141  
     223    2.618708   224    2.648869   225    2.683979  
     226    2.728050   227    2.736613   228    2.778367  
     229    2.789918   230    2.800467   231    2.829158  
     232    2.836873   233    2.857232   234    2.868761  
     235    2.878974   236    2.897554   237    2.910773  
     238    2.964461   239    2.999282   240    3.013411  
     241    3.033473   242    3.059157   243    3.099474  
     244    3.133075   245    3.173796   246    3.250796  
     247    3.258928   248    3.299768   249    3.419114  
     250    3.466049   251    3.566149   252    3.591765  
     253    3.694660   254    3.720907   255    3.843835  
     256    3.923537   257    3.950651   258    4.071097  
     259    4.094794   260    4.137422   261    4.192957  
     262    4.441109   263    4.519463   264    4.532421  
     265    4.755095   266    4.926455   267    5.039243  
     268    5.062945   269    5.217174   270    5.315243  
     271    5.485756   272    5.563831   273    5.739576  
     274    5.816805   275    6.072965   276    6.360257  
     277    6.670350   278   13.359791   279   18.422417  
     280   33.419016   281   33.466843  

  ==> SCF B: <==

    Maxiter =          50
    E Tol   =   1.000E-06
    D Tol   =   1.000E-08

    Max DIIS Vectors = 5

    Iter   N:                        E          dE         |D|
    Iter   1:  -2.2433688196511383E+02  -2.243E+02   7.637E-04 
    Iter   2:  -2.2434501635111388E+02  -8.134E-03   4.346E-05 DIIS
    Iter   3:  -2.2434514745916979E+02  -1.311E-04   1.346E-05 DIIS
    Iter   4:  -2.2434515675726908E+02  -9.298E-06   6.606E-06 DIIS
    Iter   5:  -2.2434515898476786E+02  -2.227E-06   1.882E-06 DIIS
    Iter   6:  -2.2434515923145275E+02  -2.467E-07   7.096E-07 DIIS
    Iter   7:  -2.2434515927449209E+02  -4.304E-08   2.874E-07 DIIS
    Iter   8:  -2.2434515928154846E+02  -7.056E-09   9.825E-08 DIIS
    Iter   9:  -2.2434515928237002E+02  -8.216E-10   4.275E-08 DIIS
    Iter  10:  -2.2434515928254990E+02  -1.799E-10   1.417E-08 DIIS
    Iter  11:  -2.2434515928256471E+02  -1.481E-11   9.371E-09 DIIS

    FISAPTSCF Converged.

    Final SCF Energy:  -2.2434515928256471E+02 [Eh]

   => Occupied Orbital Energies <=

       1  -20.611810     2  -20.555430     3  -11.394817  
       4  -11.295643     5   -1.443117     6   -1.362993  
       7   -0.964660     8   -0.770154     9   -0.674656  
      10   -0.666997    11   -0.623390    12   -0.546698  
      13   -0.538506    14   -0.478287    15   -0.462725  

   => Virtual Orbital Energies <=

      16    0.031570    17    0.056710    18    0.060757  
      19    0.071114    20    0.074395    21    0.080409  
      22    0.090595    23    0.096861    24    0.099826  
      25    0.103669    26    0.110305    27    0.119660  
      28    0.120004    29    0.123869    30    0.128994  
      31    0.131852    32    0.137482    33    0.142935  
      34    0.149308    35    0.156818    36    0.163638  
      37    0.170275    38    0.178992    39    0.182711  
      40    0.190644    41    0.195614    42    0.201753  
      43    0.206885    44    0.209749    45    0.215041  
      46    0.219129    47    0.230294    48    0.242191  
      49    0.251596    50    0.253124    51    0.257393  
      52    0.262498    53    0.265766    54    0.272075  
      55    0.276644    56    0.278082    57    0.287017  
      58    0.292546    59    0.300405    60    0.306535  
      61    0.315667    62    0.320712    63    0.327463  
      64    0.330633    65    0.339693    66    0.345917  
      67    0.356792    68    0.366055    69    0.368963  
      70    0.371499    71    0.381938    72    0.387608  
      73    0.392436    74    0.397946    75    0.412069  
      76    0.421331    77    0.425229    78    0.426133  
      79    0.431829    80    0.445165    81    0.453617  
      82    0.459953    83    0.463411    84    0.480445  
      85    0.492729    86    0.509456    87    0.515960  
      88    0.539856    89    0.564869    90    0.570590  
      91    0.584482    92    0.592075    93    0.600181  
      94    0.617976    95    0.632462    96    0.633417  
      97    0.650273    98    0.680779    99    0.702707  
     100    0.723890   101    0.765100   102    0.773517  
     103    0.790096   104    0.796871   105    0.803543  
     106    0.826969   107    0.848327   108    0.854382  
     109    0.859074   110    0.879443   111    0.889758  
     112    0.911367   113    0.920414   114    0.924518  
     115    0.932751   116    0.935958   117    0.945443  
     118    0.951920   119    0.961074   120    0.964601  
     121    0.972900   122    0.977284   123    0.984435  
     124    0.995272   125    1.006214   126    1.019848  
     127    1.025967   128    1.043967   129    1.058349  
     130    1.083600   131    1.093980   132    1.101261  
     133    1.152212   134    1.166718   135    1.173238  
     136    1.182303   137    1.204589   138    1.226284  
     139    1.234585   140    1.256436   141    1.272131  
     142    1.286377   143    1.297513   144    1.308232  
     145    1.312059   146    1.329776   147    1.336854  
     148    1.368680   149    1.386988   150    1.424439  
     151    1.438080   152    1.456823   153    1.459951  
     154    1.481369   155    1.515837   156    1.531591  
     157    1.554922   158    1.569726   159    1.577492  
     160    1.590187   161    1.610697   162    1.634734  
     163    1.642379   164    1.662145   165    1.670986  
     166    1.694383   167    1.703715   168    1.753728  
     169    1.758118   170    1.765057   171    1.780802  
     172    1.793168   173    1.826273   174    1.850591  
     175    1.861269   176    1.887313   177    1.894480  
     178    1.916999   179    1.920911   180    1.926490  
     181    1.946374   182    1.961000   183    1.981043  
     184    1.995921   185    1.999139   186    2.000961  
     187    2.014479   188    2.018682   189    2.024452  
     190    2.029696   191    2.050512   192    2.064176  
     193    2.071581   194    2.085381   195    2.107510  
     196    2.141479   197    2.152083   198    2.165847  
     199    2.174004   200    2.179964   201    2.194794  
     202    2.225133   203    2.234210   204    2.247751  
     205    2.261678   206    2.284129   207    2.311297  
     208    2.325132   209    2.347016   210    2.353098  
     211    2.371087   212    2.387334   213    2.394381  
     214    2.411775   215    2.421060   216    2.433536  
     217    2.456924   218    2.463477   219    2.523765  
     220    2.553545   221    2.604466   222    2.632408  
     223    2.654236   224    2.676289   225    2.685381  
     226    2.694444   227    2.713074   228    2.771881  
     229    2.787714   230    2.795439   231    2.808534  
     232    2.824021   233    2.835545   234    2.871939  
     235    2.873640   236    2.890883   237    2.900167  
     238    2.937105   239    2.945460   240    3.034013  
     241    3.037295   242    3.071111   243    3.092031  
     244    3.104144   245    3.173151   246    3.261010  
     247    3.270499   248    3.333573   249    3.368107  
     250    3.447590   251    3.580776   252    3.645595  
     253    3.655067   254    3.762472   255    3.782026  
     256    3.923424   257    3.983281   258    4.027540  
     259    4.072644   260    4.118686   261    4.216199  
     262    4.430550   263    4.505529   264    4.577915  
     265    4.744227   266    4.943601   267    5.040250  
     268    5.065267   269    5.206130   270    5.332762  
     271    5.535160   272    5.537917   273    5.632198  
     274    5.807572   275    6.210809   276    6.366156  
     277    6.731344   278   13.400761   279   18.430607  
     280   33.420987   281   33.474304  

  ==> Frozen Core <==


    ------------------
    Range      A     B
    ------------------
    nbf      302   302
    nmo      281   281
    nocc      15    15
    nvir     266   266
    nfocc      4     4
    naocc     11    11
    navir    266   266
    nfvir      0     0
    ------------------

  ==> Unification <==

  ==> dHF <==

    E ABC(HF) =  -6.8404710814010286E+02 [Eh]
    E AC(0)   =  -4.5607600065950112E+02 [Eh]
    E BC(0)   =  -4.5601891107670963E+02 [Eh]
    E A(0)    =  -2.1264014977397105E+02 [Eh]
    E B(0)    =  -2.1267047947668092E+02 [Eh]
    E AC(HF)  =  -4.5605893374167806E+02 [Eh]
    E BC(HF)  =  -4.5601063375925980E+02 [Eh]
    E AB(HF)  =  -4.2527593078943579E+02 [Eh]
    E A(HF)   =  -2.1261172872947614E+02 [Eh]
    E B(HF)   =  -2.1265454196186877E+02 [Eh]
    E C       =  -2.2803211945891661E+02 [Eh]
    E HF      =   1.5684137191271930E-02 [Eh]

  ==> Electrostatics <==

    Elst10,r            =     0.010748042680 [Eh]

  ==> Exchange <==

    Exch10(S^2)         =     0.007308715411 [Eh]
    Exch10              =     0.007335587959 [Eh]

  ==> Induction <==

    Ind20,u (A<-B)      =    -0.001837184969 [Eh]
    Ind20,u (B<-A)      =    -0.001212993887 [Eh]
    Ind20,u             =    -0.003050178856 [Eh]
    Exch-Ind20,u (A<-B) =     0.000677944204 [Eh]
    Exch-Ind20,u (B<-A) =     0.000821583583 [Eh]
    Exch-Ind20,u        =     0.001499527787 [Eh]

  ==> CPHF Iterations <==

    Maxiter     =          50
    Convergence =   1.000E-08

    -----------------------------------------
    Iter   Monomer A    Monomer B    Time [s]
    -----------------------------------------
    1      2.358E-01    1.525E-01          11
    2      8.395E-02    5.453E-02          24
    3      2.365E-02    1.129E-02          34
    4      7.800E-03    4.603E-03          45
    5      2.460E-03    1.459E-03          56
    6      9.736E-04    5.276E-04          64
    7      2.859E-04    1.757E-04          75
    8      1.124E-04    8.408E-05          85
    9      2.772E-05    1.985E-05          94
    10     7.886E-06    4.560E-06         107
    11     1.791E-06    1.753E-06         118
    12     3.787E-07    6.026E-07         131
    13     1.515E-07    1.043E-07         145
    14     4.776E-08    3.219E-08         155
    15     9.178E-09*   6.797E-09*        164
    -----------------------------------------

    Ind20,r (A<-B)      =    -0.002124584769 [Eh]
    Ind20,r (B<-A)      =    -0.001377969449 [Eh]
    Ind20,r             =    -0.003502554218 [Eh]
    Exch-Ind20,r (A<-B) =     0.000859826038 [Eh]
    Exch-Ind20,r (B<-A) =     0.000965258398 [Eh]
    Exch-Ind20,r        =     0.001825084435 [Eh]

  ==> F-SAPT Localization (IBO) <==

  Local Orbitals for Monomer A:

  ==> IBO Localizer 2 <==

    MinAO Basis = CC-PVTZ-MINAO
    Use Ghosts  =       FALSE
    Use Stars   =       FALSE
    Condition   =   1.000E-07
    Power       =           4
    Convergence =   1.000E-12
    Maxiter     =        1000

    @IBO Iter:                   Metric       Gradient
    @IBO    1:   1.4818888928643437E+00   1.573651E+00
    @IBO    2:   1.6752064644701368E+00   1.088738E+00
    @IBO    3:   1.7095709980453049E+00   3.118720E-01
    @IBO    4:   1.7108015677047617E+00   5.156353E-03
    @IBO    5:   1.7108023375758834E+00   1.869494E-04
    @IBO    6:   1.7108023380129815E+00   2.911904E-06
    @IBO    7:   1.7108023380131323E+00   8.131952E-08
    @IBO    8:   1.7108023380131323E+00   2.137921E-09
    @IBO    9:   1.7108023380131321E+00   7.027548E-11
    @IBO   10:   1.7108023380131321E+00   2.666085E-12
    @IBO   11:   1.7108023380131321E+00   1.060779E-13

    IBO Localizer 2 converged.

  Local Orbitals for Monomer B:

  ==> IBO Localizer 2 <==

    MinAO Basis = CC-PVTZ-MINAO
    Use Ghosts  =       FALSE
    Use Stars   =       FALSE
    Condition   =   1.000E-07
    Power       =           4
    Convergence =   1.000E-12
    Maxiter     =        1000

    @IBO Iter:                   Metric       Gradient
    @IBO    1:   1.4826302967996723E+00   1.686952E+00
    @IBO    2:   1.6772019467755148E+00   9.388478E-01
    @IBO    3:   1.7087047581999240E+00   3.382827E-01
    @IBO    4:   1.7101067429556589E+00   2.716380E-03
    @IBO    5:   1.7101069828115327E+00   1.112769E-04
    @IBO    6:   1.7101069829566404E+00   1.816473E-06
    @IBO    7:   1.7101069829567057E+00   6.362713E-08
    @IBO    8:   1.7101069829567062E+00   1.970928E-09
    @IBO    9:   1.7101069829567057E+00   7.433698E-11
    @IBO   10:   1.7101069829567057E+00   3.107607E-12
    @IBO   11:   1.7101069829567059E+00   1.345914E-13

    IBO Localizer 2 converged.

  ==> F-SAPT Electrostatics <==

  ==> DFERI: Density Fitted 3-Index Tensors <==

    Schwarz cutoff =   0.000E+00
    J cutoff       =   1.000E-12
    Mem (GB)       =         628

   => Auxiliary Basis <=

  Basis Set: (JUN-CC-PVDZ AUX)
    Blend: JUN-CC-PVDZ-JKFIT
    Number of shells: 468
    Number of basis function: 1336
    Number of Cartesian functions: 1524
    Spherical Harmonics?: true
    Max angular momentum: 3

    Elst10,r            =     0.010748045357 [Eh]

  ==> F-SAPT Exchange <==

  ==> DFERI: Density Fitted 3-Index Tensors <==

    Schwarz cutoff =   0.000E+00
    J cutoff       =   1.000E-12
    Mem (GB)       =         628

   => Auxiliary Basis <=

  Basis Set: (JUN-CC-PVDZ AUX)
    Blend: JUN-CC-PVDZ-JKFIT
    Number of shells: 468
    Number of basis function: 1336
    Number of Cartesian functions: 1524
    Spherical Harmonics?: true
    Max angular momentum: 3

    Exch10(S^2)         =     0.007308715411 [Eh]

    Scaling F-SAPT Exch10(S^2) by   1.004E+00 to match Exch10

  ==> F-SAPT Induction <==

  ==> DFERI: Density Fitted 3-Index Tensors <==

    Schwarz cutoff =   0.000E+00
    J cutoff       =   1.000E-12
    Mem (GB)       =         628

   => Auxiliary Basis <=

  Basis Set: (JUN-CC-PVDZ AUX)
    Blend: JUN-CC-PVDZ-JKFIT
    Number of shells: 468
    Number of basis function: 1336
    Number of Cartesian functions: 1524
    Spherical Harmonics?: true
    Max angular momentum: 3

    Ind20,u (A<-B)      =    -0.001837184968 [Eh]
    Ind20,u (B<-A)      =    -0.001212993889 [Eh]
    Ind20,u             =    -0.003050178857 [Eh]
    Exch-Ind20,u (A<-B) =     0.000677944204 [Eh]
    Exch-Ind20,u (B<-A) =     0.000821583583 [Eh]
    Exch-Ind20,u        =     0.001499527788 [Eh]

    Scaling for delta HF        =   1.430E+00
    Scaling for response (A<-B) =   1.091E+00
    Scaling for response (B<-A) =   1.054E+00
    Scaling for total (A<-B)    =   1.561E+00
    Scaling for total (B<-A)    =   1.508E+00

  ==> F-SAPT Dispersion <==

  ==> DFERI: Density Fitted 3-Index Tensors <==

    Schwarz cutoff =   0.000E+00
    J cutoff       =   1.000E-12
    Mem (GB)       =         628

   => Auxiliary Basis <=

  Basis Set: (JUN-CC-PVDZ AUX)
    Blend: JUN-CC-PVDZ-RI
    Number of shells: 354
    Number of basis function: 1050
    Number of Cartesian functions: 1214
    Spherical Harmonics?: true
    Max angular momentum: 3

    Disp20              =    -0.004207445006 [Eh]
    Exch-Disp20         =     0.000509788370 [Eh]

  ==> F-SAPT Output <==

    F-SAPT Data Filepath = fsapt/

  ==> Results <==


    SAPT Results  
  --------------------------------------------------------------------------------------------------------
    Electrostatics                 10.74804268 [mEh]       6.74449889 [kcal/mol]      28.21898606 [kJ/mol]
      Elst10,r                     10.74804268 [mEh]       6.74449889 [kcal/mol]      28.21898606 [kJ/mol]

    Exchange                        7.33558796 [mEh]       4.60315113 [kcal/mol]      19.25958619 [kJ/mol]
      Exch10                        7.33558796 [mEh]       4.60315113 [kcal/mol]      19.25958619 [kJ/mol]
      Exch10(S^2)                   7.30871541 [mEh]       4.58628835 [kcal/mol]      19.18903231 [kJ/mol]

    Induction                      -2.39949345 [mEh]      -1.50570493 [kcal/mol]      -6.29987005 [kJ/mol]
      Ind20,r                      -3.50255422 [mEh]      -2.19788605 [kcal/mol]      -9.19595610 [kJ/mol]
      Exch-Ind20,r                  1.82508444 [mEh]       1.14525782 [kcal/mol]       4.79175918 [kJ/mol]
      delta HF,r (2)               -0.72202366 [mEh]      -0.45307671 [kcal/mol]      -1.89567313 [kJ/mol]
      Induction (A<-B)             -1.80914155 [mEh]      -1.13525351 [kcal/mol]      -4.74990115 [kJ/mol]
      Induction (B<-A)             -0.59035189 [mEh]      -0.37045142 [kcal/mol]      -1.54996890 [kJ/mol]

    Dispersion                     -3.69765664 [mEh]      -2.32031467 [kcal/mol]      -9.70819750 [kJ/mol]
      Disp20                       -4.20744501 [mEh]      -2.64021171 [kcal/mol]     -11.04664686 [kJ/mol]
      Exch-Disp20                   0.50978837 [mEh]       0.31989705 [kcal/mol]       1.33844937 [kJ/mol]

  Total HF                         15.68413719 [mEh]       9.84194509 [kcal/mol]      41.17870220 [kJ/mol]
  Total SAPT0                      11.98648056 [mEh]       7.52163042 [kcal/mol]      31.47050470 [kJ/mol]

  --------------------------------------------------------------------------------------------------------
    Han Solo: This is *not* gonna work.
    Luke Skywalker: Why didn't you say so before?
    Han Solo: I *did* say so before.

*** tstop() called on ThinkPad-P50 at Tue Dec 12 11:32:51 2017
Module time:
	user time   =     468.53 seconds =       7.81 minutes
	system time =       4.80 seconds =       0.08 minutes
	total time  =        474 seconds =       7.90 minutes
Total time:
	user time   =     656.21 seconds =      10.94 minutes
	system time =       6.60 seconds =       0.11 minutes
	total time  =        665 seconds =      11.08 minutes

*** Psi4 exiting successfully. Buy a developer a beer!
