
    -----------------------------------------------------------------------
          Psi4: An Open-Source Ab Initio Electronic Structure Package
                               Psi4 1.1 release

                         Git: Rev {HEAD} add49b9 


    R. M. Parrish, L. A. Burns, D. G. A. Smith, A. C. Simmonett,
    A. E. DePrince III, E. G. Hohenstein, U. Bozkaya, A. Yu. Sokolov,
    R. Di Remigio, R. M. Richard, J. F. Gonthier, A. M. James,
    H. R. McAlexander, A. Kumar, M. Saitow, X. Wang, B. P. Pritchard,
    P. Verma, H. F. Schaefer III, K. Patkowski, R. A. King, E. F. Valeev,
    F. A. Evangelista, J. M. Turney, T. D. Crawford, and C. D. Sherrill,
    J. Chem. Theory Comput. in press (2017).
    (doi: 10.1021/acs.jctc.7b00174)

    -----------------------------------------------------------------------


    Psi4 started on: Tuesday, 12 December 2017 11:32AM

    Process ID:  15682
    PSIDATADIR: /home/junteng/Softwares/psi4conda/share/psi4
    Memory:     500.0 MiB
    Threads:    1
    
  ==> Input File <==

--------------------------------------------------------------------------
memory 750000 mb

molecule mol {
0 1
C         -0.43297        1.54085       -0.10880
O         -0.61259        2.49385       -0.82809
O         -1.31150        1.13134        0.82854
C         -2.57363        1.82034        0.86046
H         -2.42411        2.88666        1.03426
H         -3.10439        1.68138       -0.08344
H         -3.12689        1.37087        1.68202
--
0 1
C         -0.43923       -1.50105        0.15492
O         -0.62933       -2.41776        0.91703
O         -1.29982       -1.14359       -0.81954
C         -2.55327       -1.84928       -0.84773
H         -3.09724       -1.43732       -1.69475
H         -3.10243       -1.68355        0.08111
H         -2.38793       -2.91935       -0.98013
--
0 1
H          2.01551        2.45451       -0.40018
H          2.00142       -2.43108        0.39056
C          0.80938       -0.67687        0.11234
C          0.81283        0.71370       -0.09039
C          2.02089       -1.36123        0.22174
C          3.22888       -0.68157        0.09702
C          3.23229        0.69171       -0.14044
C          2.02852        1.38475       -0.23148
H          4.16997        1.22449       -0.24697
H          4.16321       -1.22490        0.17746

symmetry c1
no_reorient
no_com
}

set {
basis jun-cc-pvdz
scf_type df
guess sad
freeze_core true
}

energy('fisapt0')
--------------------------------------------------------------------------

  Memory set to 698.492 GiB by Python driver.

*** tstart() called on ThinkPad-P50
*** at Tue Dec 12 11:32:52 2017

   => Loading Basis Set <=

    Name: JUN-CC-PVDZ
    Role: ORBITAL
    Keyword: BASIS
    atoms 1, 4, 8, 11, 17-22 entry C          line   157 file /home/junteng/Softwares/psi4conda/share/psi4/basis/jun-cc-pvdz.gbs 
    atoms 2-3, 9-10          entry O          line   225 file /home/junteng/Softwares/psi4conda/share/psi4/basis/jun-cc-pvdz.gbs 
    atoms 5-7, 12-16, 23-24  entry H          line    35 file /home/junteng/Softwares/psi4conda/share/psi4/basis/jun-cc-pvdz.gbs 


         ---------------------------------------------------------
                                   SCF
            by Justin Turney, Rob Parrish, and Andy Simmonett
                              RHF Reference
                        1 Threads, 715255 MiB Core
         ---------------------------------------------------------

  ==> Geometry <==

    Molecular point group: c1
    Full point group: C1

    Geometry (in Angstrom), charge = 0, multiplicity = 1:

       Center              X                  Y                   Z               Mass       
    ------------   -----------------  -----------------  -----------------  -----------------
           C         -0.432970000000     1.540850000000    -0.108800000000    12.000000000000
           O         -0.612590000000     2.493850000000    -0.828090000000    15.994914619560
           O         -1.311500000000     1.131340000000     0.828540000000    15.994914619560
           C         -2.573630000000     1.820340000000     0.860460000000    12.000000000000
           H         -2.424110000000     2.886660000000     1.034260000000     1.007825032070
           H         -3.104390000000     1.681380000000    -0.083440000000     1.007825032070
           H         -3.126890000000     1.370870000000     1.682020000000     1.007825032070
           C         -0.439230000000    -1.501050000000     0.154920000000    12.000000000000
           O         -0.629330000000    -2.417760000000     0.917030000000    15.994914619560
           O         -1.299820000000    -1.143590000000    -0.819540000000    15.994914619560
           C         -2.553270000000    -1.849280000000    -0.847730000000    12.000000000000
           H         -3.097240000000    -1.437320000000    -1.694750000000     1.007825032070
           H         -3.102430000000    -1.683550000000     0.081110000000     1.007825032070
           H         -2.387930000000    -2.919350000000    -0.980130000000     1.007825032070
           H          2.015510000000     2.454510000000    -0.400180000000     1.007825032070
           H          2.001420000000    -2.431080000000     0.390560000000     1.007825032070
           C          0.809380000000    -0.676870000000     0.112340000000    12.000000000000
           C          0.812830000000     0.713700000000    -0.090390000000    12.000000000000
           C          2.020890000000    -1.361230000000     0.221740000000    12.000000000000
           C          3.228880000000    -0.681570000000     0.097020000000    12.000000000000
           C          3.232290000000     0.691710000000    -0.140440000000    12.000000000000
           C          2.028520000000     1.384750000000    -0.231480000000    12.000000000000
           H          4.169970000000     1.224490000000    -0.246970000000     1.007825032070
           H          4.163210000000    -1.224900000000     0.177460000000     1.007825032070

  Running in c1 symmetry.

  Rotational constants: A =      0.03039  B =      0.02214  C =      0.01443 [cm^-1]
  Rotational constants: A =    911.14848  B =    663.67188  C =    432.55719 [MHz]
  Nuclear repulsion =  897.156459548449106

  Charge       = 0
  Multiplicity = 1
  Electrons    = 102
  Nalpha       = 51
  Nbeta        = 51

  ==> Algorithm <==

  SCF Algorithm Type is DF.
  DIIS enabled.
  MOM disabled.
  Fractional occupation disabled.
  Guess Type is SAD.
  Energy threshold   = 1.00e-08
  Density threshold  = 1.00e-08
  Integral threshold = 0.00e+00

  ==> Primary Basis <==

  Basis Set: JUN-CC-PVDZ
    Blend: JUN-CC-PVDZ
    Number of shells: 142
    Number of basis function: 302
    Number of Cartesian functions: 316
    Spherical Harmonics?: true
    Max angular momentum: 2

   => Loading Basis Set <=

    Name: (JUN-CC-PVDZ AUX)
    Role: JKFIT
    Keyword: DF_BASIS_SCF
    atoms 1, 4, 8, 11, 17-22 entry C          line   145 file /home/junteng/Softwares/psi4conda/share/psi4/basis/jun-cc-pvdz-jkfit.gbs 
    atoms 2-3, 9-10          entry O          line   257 file /home/junteng/Softwares/psi4conda/share/psi4/basis/jun-cc-pvdz-jkfit.gbs 
    atoms 5-7, 12-16, 23-24  entry H          line    69 file /home/junteng/Softwares/psi4conda/share/psi4/basis/jun-cc-pvdz-jkfit.gbs 

  ==> Pre-Iterations <==

   -------------------------------------------------------
    Irrep   Nso     Nmo     Nalpha   Nbeta   Ndocc  Nsocc
   -------------------------------------------------------
     A        302     302       0       0       0       0
   -------------------------------------------------------
    Total     302     302      51      51      51       0
   -------------------------------------------------------

  ==> Integral Setup <==

  ==> DFJK: Density-Fitted J/K Matrices <==

    J tasked:                  Yes
    K tasked:                  Yes
    wK tasked:                  No
    OpenMP threads:              1
    Integrals threads:           1
    Memory (MB):            536441
    Algorithm:                Core
    Integral Cache:           NONE
    Schwarz Cutoff:          1E-12
    Fitting Condition:       1E-12

   => Auxiliary Basis Set <=

  Basis Set: (JUN-CC-PVDZ AUX)
    Blend: JUN-CC-PVDZ-JKFIT
    Number of shells: 468
    Number of basis function: 1336
    Number of Cartesian functions: 1524
    Spherical Harmonics?: true
    Max angular momentum: 3

  Minimum eigenvalue in the overlap matrix is 5.9870738961E-06.
  Using Symmetric Orthogonalization.

  SCF Guess: Superposition of Atomic Densities via on-the-fly atomic UHF.

  ==> Iterations <==

                           Total Energy        Delta E     RMS |[F,P]|

   @DF-RHF iter   0:  -689.49194401545458   -6.89492e+02   2.33257e-02 
   @DF-RHF iter   1:  -683.55179886607436    5.94015e+00   3.04539e-03 
   @DF-RHF iter   2:  -683.86493373937560   -3.13135e-01   2.17268e-03 DIIS
   @DF-RHF iter   3:  -684.03086539505466   -1.65932e-01   5.25703e-04 DIIS
   @DF-RHF iter   4:  -684.04687718036178   -1.60118e-02   1.53183e-04 DIIS
   @DF-RHF iter   5:  -684.04843660509937   -1.55942e-03   4.47267e-05 DIIS
   @DF-RHF iter   6:  -684.04863506252786   -1.98457e-04   1.69662e-05 DIIS
   @DF-RHF iter   7:  -684.04866753503870   -3.24725e-05   6.29725e-06 DIIS
   @DF-RHF iter   8:  -684.04867202144737   -4.48641e-06   2.35155e-06 DIIS
   @DF-RHF iter   9:  -684.04867276064465   -7.39197e-07   1.04263e-06 DIIS
   @DF-RHF iter  10:  -684.04867292641711   -1.65772e-07   3.75897e-07 DIIS
   @DF-RHF iter  11:  -684.04867295056749   -2.41504e-08   1.54627e-07 DIIS
   @DF-RHF iter  12:  -684.04867295475094   -4.18345e-09   5.50053e-08 DIIS
   @DF-RHF iter  13:  -684.04867295543283   -6.81894e-10   1.99125e-08 DIIS
   @DF-RHF iter  14:  -684.04867295551639   -8.35598e-11   8.45765e-09 DIIS

  ==> Post-Iterations <==

    Orbital Energies (a.u.)
    -----------------------

    Doubly Occupied:                                                      

       1A    -20.616472     2A    -20.616193     3A    -20.562024  
       4A    -20.561873     5A    -11.400988     6A    -11.400910  
       7A    -11.300652     8A    -11.300547     9A    -11.279149  
      10A    -11.277871    11A    -11.266392    12A    -11.266126  
      13A    -11.265146    14A    -11.264177    15A     -1.475986  
      16A     -1.469061    17A     -1.372754    18A     -1.371219  
      19A     -1.186349    20A     -1.070869    21A     -1.055848  
      22A     -0.989221    23A     -0.978968    24A     -0.889556  
      25A     -0.861998    26A     -0.800183    27A     -0.786458  
      28A     -0.751385    29A     -0.714598    30A     -0.700168  
      31A     -0.684147    32A     -0.683343    33A     -0.663884  
      34A     -0.663211    35A     -0.641941    36A     -0.627871  
      37A     -0.603658    38A     -0.592932    39A     -0.567039  
      40A     -0.555692    41A     -0.547237    42A     -0.539477  
      43A     -0.526776    44A     -0.523007    45A     -0.516233  
      46A     -0.475130    47A     -0.464582    48A     -0.463158  
      49A     -0.455448    50A     -0.360319    51A     -0.357813  

    Virtual:                                                              

      52A      0.054807    53A      0.058251    54A      0.061386  
      55A      0.067683    56A      0.073614    57A      0.083022  
      58A      0.088566    59A      0.090083    60A      0.098205  
      61A      0.101696    62A      0.109089    63A      0.110127  
      64A      0.113953    65A      0.125967    66A      0.126340  
      67A      0.127381    68A      0.149355    69A      0.151239  
      70A      0.155723    71A      0.161210    72A      0.164341  
      73A      0.168138    74A      0.174467    75A      0.188879  
      76A      0.194168    77A      0.198972    78A      0.203833  
      79A      0.207582    80A      0.210021    81A      0.219912  
      82A      0.228765    83A      0.232212    84A      0.241675  
      85A      0.251549    86A      0.253298    87A      0.256054  
      88A      0.261704    89A      0.265771    90A      0.273574  
      91A      0.283206    92A      0.285408    93A      0.297095  
      94A      0.299980    95A      0.305641    96A      0.318401  
      97A      0.319481    98A      0.322645    99A      0.343655  
     100A      0.344671   101A      0.348813   102A      0.354402  
     103A      0.356495   104A      0.360224   105A      0.370422  
     106A      0.378310   107A      0.380952   108A      0.383180  
     109A      0.389688   110A      0.396459   111A      0.399248  
     112A      0.403973   113A      0.409952   114A      0.412529  
     115A      0.426670   116A      0.435600   117A      0.438737  
     118A      0.455419   119A      0.456660   120A      0.459986  
     121A      0.479621   122A      0.481093   123A      0.485910  
     124A      0.497964   125A      0.505686   126A      0.525406  
     127A      0.543061   128A      0.562188   129A      0.574862  
     130A      0.616652   131A      0.623163   132A      0.685687  
     133A      0.688048   134A      0.709550   135A      0.748693  
     136A      0.759270   137A      0.770815   138A      0.801352  
     139A      0.814743   140A      0.818816   141A      0.835671  
     142A      0.841452   143A      0.847209   144A      0.865610  
     145A      0.871777   146A      0.884367   147A      0.888064  
     148A      0.899750   149A      0.900123   150A      0.916112  
     151A      0.918289   152A      0.924505   153A      0.926646  
     154A      0.940132   155A      0.940628   156A      0.947393  
     157A      0.956575   158A      0.962003   159A      0.962767  
     160A      0.981476   161A      0.983864   162A      0.989564  
     163A      1.003533   164A      1.016013   165A      1.027569  
     166A      1.046243   167A      1.054389   168A      1.067826  
     169A      1.102420   170A      1.105382   171A      1.136352  
     172A      1.146065   173A      1.157613   174A      1.165611  
     175A      1.207807   176A      1.224689   177A      1.238441  
     178A      1.247392   179A      1.251299   180A      1.257566  
     181A      1.272587   182A      1.276015   183A      1.287883  
     184A      1.301470   185A      1.325413   186A      1.332563  
     187A      1.348683   188A      1.367496   189A      1.380758  
     190A      1.397860   191A      1.440459   192A      1.454176  
     193A      1.475828   194A      1.505346   195A      1.519132  
     196A      1.540717   197A      1.551832   198A      1.563433  
     199A      1.570559   200A      1.595355   201A      1.597630  
     202A      1.607536   203A      1.615083   204A      1.620435  
     205A      1.650452   206A      1.663429   207A      1.670948  
     208A      1.691237   209A      1.697632   210A      1.714069  
     211A      1.728740   212A      1.753606   213A      1.774368  
     214A      1.806294   215A      1.842001   216A      1.846350  
     217A      1.857543   218A      1.861212   219A      1.886753  
     220A      1.890443   221A      1.915082   222A      1.917545  
     223A      1.925401   224A      1.938901   225A      1.951489  
     226A      1.957965   227A      1.967269   228A      1.969108  
     229A      2.000992   230A      2.002412   231A      2.012686  
     232A      2.014588   233A      2.025719   234A      2.038830  
     235A      2.042587   236A      2.050999   237A      2.052431  
     238A      2.079893   239A      2.118861   240A      2.133710  
     241A      2.134322   242A      2.153920   243A      2.169433  
     244A      2.177590   245A      2.204763   246A      2.231933  
     247A      2.242301   248A      2.255928   249A      2.292994  
     250A      2.329845   251A      2.334869   252A      2.363166  
     253A      2.366080   254A      2.388994   255A      2.392016  
     256A      2.402721   257A      2.405829   258A      2.423937  
     259A      2.435668   260A      2.489665   261A      2.532347  
     262A      2.533911   263A      2.612894   264A      2.634738  
     265A      2.671782   266A      2.729281   267A      2.761370  
     268A      2.768555   269A      2.786792   270A      2.796899  
     271A      2.798312   272A      2.807942   273A      2.857231  
     274A      2.866855   275A      2.903037   276A      2.911967  
     277A      2.934425   278A      2.971209   279A      3.019867  
     280A      3.022850   281A      3.074614   282A      3.090429  
     283A      3.091797   284A      3.126079   285A      3.196315  
     286A      3.255400   287A      3.259367   288A      3.279322  
     289A      3.305903   290A      3.386182   291A      3.430216  
     292A      3.558658   293A      3.573701   294A      3.667254  
     295A      3.676012   296A      3.755939   297A      3.810114  
     298A      3.845795   299A      3.957117   300A      3.985391  
     301A      4.053294   302A      4.067891  

    Final Occupation by Irrep:
              A 
    DOCC [    51 ]

  Energy converged.

  @DF-RHF Final Energy:  -684.04867295551639

   => Energetics <=

    Nuclear Repulsion Energy =            897.1564595484491065
    One-Electron Energy =               -2715.6781978423300643
    Two-Electron Energy =                1134.4730653383644494
    DFT Exchange-Correlation Energy =       0.0000000000000000
    Empirical Dispersion Energy =           0.0000000000000000
    PCM Polarization Energy =               0.0000000000000000
    EFP Energy =                            0.0000000000000000
    Total Energy =                       -684.0486729555163947



Properties will be evaluated at   0.000000,   0.000000,   0.000000 Bohr

Properties computed using the SCF density matrix

  Nuclear Dipole Moment: (a.u.)
     X:     2.0472      Y:     1.7395      Z:     1.7183

  Electronic Dipole Moment: (a.u.)
     X:    -2.0600      Y:    -1.7771      Z:    -1.7575

  Dipole Moment: (a.u.)
     X:    -0.0128      Y:    -0.0376      Z:    -0.0392     Total:     0.0558

  Dipole Moment: (Debye)
     X:    -0.0326      Y:    -0.0955      Z:    -0.0996     Total:     0.1418


*** tstop() called on ThinkPad-P50 at Tue Dec 12 11:35:08 2017
Module time:
	user time   =     133.86 seconds =       2.23 minutes
	system time =       1.05 seconds =       0.02 minutes
	total time  =        136 seconds =       2.27 minutes
Total time:
	user time   =     133.86 seconds =       2.23 minutes
	system time =       1.05 seconds =       0.02 minutes
	total time  =        136 seconds =       2.27 minutes
   => Loading Basis Set <=

    Name: (JUN-CC-PVDZ AUX)
    Role: JKFIT
    Keyword: DF_BASIS_SCF
    atoms 1, 4, 8, 11, 17-22 entry C          line   145 file /home/junteng/Softwares/psi4conda/share/psi4/basis/jun-cc-pvdz-jkfit.gbs 
    atoms 2-3, 9-10          entry O          line   257 file /home/junteng/Softwares/psi4conda/share/psi4/basis/jun-cc-pvdz-jkfit.gbs 
    atoms 5-7, 12-16, 23-24  entry H          line    69 file /home/junteng/Softwares/psi4conda/share/psi4/basis/jun-cc-pvdz-jkfit.gbs 

   => Loading Basis Set <=

    Name: (JUN-CC-PVDZ AUX)
    Role: RIFIT
    Keyword: DF_BASIS_SAPT
    atoms 1, 4, 8, 11, 17-22 entry C          line    99 file /home/junteng/Softwares/psi4conda/share/psi4/basis/jun-cc-pvdz-ri.gbs 
    atoms 2-3, 9-10          entry O          line   187 file /home/junteng/Softwares/psi4conda/share/psi4/basis/jun-cc-pvdz-ri.gbs 
    atoms 5-7, 12-16, 23-24  entry H          line    29 file /home/junteng/Softwares/psi4conda/share/psi4/basis/jun-cc-pvdz-ri.gbs 

   => Loading Basis Set <=

    Name: CC-PVTZ-MINAO
    Role: ORBITAL
    Keyword: BASIS
    atoms 1, 4, 8, 11, 17-22 entry C          line   130 file /home/junteng/Softwares/psi4conda/share/psi4/basis/cc-pvtz-minao.gbs 
    atoms 2-3, 9-10          entry O          line   190 file /home/junteng/Softwares/psi4conda/share/psi4/basis/cc-pvtz-minao.gbs 
    atoms 5-7, 12-16, 23-24  entry H          line    19 file /home/junteng/Softwares/psi4conda/share/psi4/basis/cc-pvtz-minao.gbs 


*** tstart() called on ThinkPad-P50
*** at Tue Dec 12 11:35:10 2017

	 --------------------------------------------
	                    FISAPT0                  
	                  Rob Parrish                
	 --------------------------------------------

    Do F-SAPT =         Yes
    Do Plot   =          No
    Memory    =      78.580 [GD]

  ==> Localization (IBO) <==

  ==> IBO Localizer 2 <==

    MinAO Basis = CC-PVTZ-MINAO
    Use Ghosts  =       FALSE
    Use Stars   =       FALSE
    Condition   =   1.000E-07
    Power       =           4
    Convergence =   1.000E-12
    Maxiter     =        1000

    @IBO Iter:                   Metric       Gradient
    @IBO    1:   1.7273388033845367E+00   2.901975E+00
    @IBO    2:   2.1458050959177255E+00   2.176303E+00
    @IBO    3:   2.2216613289249176E+00   9.873342E-01
    @IBO    4:   2.2288575569979514E+00   1.635248E-01
    @IBO    5:   2.2290115404225075E+00   2.057746E-03
    @IBO    6:   2.2290116304561902E+00   2.593480E-04
    @IBO    7:   2.2290116345248134E+00   6.443655E-05
    @IBO    8:   2.2290116347946487E+00   1.736536E-05
    @IBO    9:   2.2290116348142361E+00   4.945264E-06
    @IBO   10:   2.2290116348157594E+00   1.447967E-06
    @IBO   11:   2.2290116348158828E+00   4.272570E-07
    @IBO   12:   2.2290116348158930E+00   1.257788E-07
    @IBO   13:   2.2290116348158939E+00   3.680272E-08
    @IBO   14:   2.2290116348158944E+00   1.069522E-08
    @IBO   15:   2.2290116348158944E+00   3.088544E-09
    @IBO   16:   2.2290116348158939E+00   8.870762E-10
    @IBO   17:   2.2290116348158939E+00   2.536409E-10
    @IBO   18:   2.2290116348158939E+00   7.226010E-11
    @IBO   19:   2.2290116348158939E+00   2.052640E-11
    @IBO   20:   2.2290116348158944E+00   5.817262E-12
    @IBO   21:   2.2290116348158939E+00   1.645604E-12
    @IBO   22:   2.2290116348158939E+00   4.648254E-13

    IBO Localizer 2 converged.

  ==> Partitioning <==

   => Atomic Partitioning <= 

    Monomer A:   7 atoms
    Monomer B:   7 atoms
    Monomer C:  10 atoms

   => Link Bond Identification <=

    Link Bond Selection = AUTOMATIC

    Charge Completeness = 0.800

    Total Link Bonds = 2

    --------------------------
    N     Orb Type Aind1 Aind2
    --------------------------
    1      16   BC     8    17
    2      28   AC     1    18
    --------------------------

   => Link Bond Assignment <=

    Link Bond Assignment      = C

   => Partition Summary <=

    Monomer A:  0 charge,  30 protons,  30 electrons,  15 docc
    Monomer B:  0 charge,  30 protons,  30 electrons,  15 docc
    Monomer C:  0 charge,  42 protons,  42 electrons,  21 docc

  ==> Overlap Integrals <==

  ==> Kinetic Integrals <==

  ==> Nuclear Integrals <==

    Nuclear Repulsion Tot:   8.9715645954844922E+02 [Eh]

  ==> Coulomb Integrals <==

  ==> DFJK: Density-Fitted J/K Matrices <==

    J tasked:                  Yes
    K tasked:                  Yes
    wK tasked:                  No
    OpenMP threads:              1
    Integrals threads:           1
    Memory (MB):            643730
    Algorithm:                Core
    Integral Cache:           NONE
    Schwarz Cutoff:          1E-12
    Fitting Condition:       1E-12

   => Auxiliary Basis Set <=

  Basis Set: (JUN-CC-PVDZ AUX)
    Blend: JUN-CC-PVDZ-JKFIT
    Number of shells: 468
    Number of basis function: 1336
    Number of Cartesian functions: 1524
    Spherical Harmonics?: true
    Max angular momentum: 3

  ==> Relaxed SCF Equations <==

  ==> SCF A: <==

    Maxiter =          50
    E Tol   =   1.000E-06
    D Tol   =   1.000E-08

    Max DIIS Vectors = 5

    Iter   N:                        E          dE         |D|
    Iter   1:  -2.2410796442830875E+02  -2.241E+02   9.441E-04 
    Iter   2:  -2.2411898756590639E+02  -1.102E-02   5.763E-05 DIIS
    Iter   3:  -2.2411916475952239E+02  -1.772E-04   2.463E-05 DIIS
    Iter   4:  -2.2411918691048797E+02  -2.215E-05   9.956E-06 DIIS
    Iter   5:  -2.2411919143383514E+02  -4.523E-06   1.662E-06 DIIS
    Iter   6:  -2.2411919169630241E+02  -2.625E-07   7.490E-07 DIIS
    Iter   7:  -2.2411919174442662E+02  -4.812E-08   2.464E-07 DIIS
    Iter   8:  -2.2411919175051472E+02  -6.088E-09   1.084E-07 DIIS
    Iter   9:  -2.2411919175147119E+02  -9.565E-10   4.556E-08 DIIS
    Iter  10:  -2.2411919175169430E+02  -2.231E-10   1.780E-08 DIIS
    Iter  11:  -2.2411919175171923E+02  -2.493E-11   8.379E-09 DIIS

    FISAPTSCF Converged.

    Final SCF Energy:  -2.2411919175171923E+02 [Eh]

   => Occupied Orbital Energies <=

       1  -20.605418     2  -20.550044     3  -11.389676  
       4  -11.292708     5   -1.436549     6   -1.357494  
       7   -0.960409     8   -0.764932     9   -0.669492  
      10   -0.660514    11   -0.619613    12   -0.541396  
      13   -0.534240    14   -0.473979    15   -0.458810  

   => Virtual Orbital Energies <=

      16    0.030415    17    0.055641    18    0.062678  
      19    0.067835    20    0.075775    21    0.081485  
      22    0.091469    23    0.096334    24    0.099170  
      25    0.102249    26    0.107792    27    0.111327  
      28    0.119835    29    0.122835    30    0.125182  
      31    0.132349    32    0.141001    33    0.143904  
      34    0.151626    35    0.157820    36    0.163641  
      37    0.168495    38    0.175150    39    0.183099  
      40    0.184802    41    0.197349    42    0.200146  
      43    0.208757    44    0.211815    45    0.220408  
      46    0.230207    47    0.238601    48    0.241545  
      49    0.248806    50    0.250590    51    0.263026  
      52    0.264916    53    0.270102    54    0.272551  
      55    0.275424    56    0.280278    57    0.286223  
      58    0.292176    59    0.303646    60    0.306173  
      61    0.316300    62    0.322181    63    0.335060  
      64    0.337958    65    0.339993    66    0.346576  
      67    0.349735    68    0.363004    69    0.367909  
      70    0.374769    71    0.382104    72    0.387336  
      73    0.397181    74    0.402444    75    0.406003  
      76    0.410804    77    0.414848    78    0.428569  
      79    0.433283    80    0.437410    81    0.440777  
      82    0.455694    83    0.466794    84    0.483549  
      85    0.488637    86    0.502852    87    0.519899  
      88    0.528834    89    0.540175    90    0.556164  
      91    0.570764    92    0.583515    93    0.604168  
      94    0.619463    95    0.622081    96    0.647213  
      97    0.651786    98    0.683704    99    0.731124  
     100    0.742001   101    0.767423   102    0.783086  
     103    0.790647   104    0.804020   105    0.831498  
     106    0.838861   107    0.844735   108    0.860162  
     109    0.869074   110    0.886945   111    0.893190  
     112    0.912233   113    0.919907   114    0.931787  
     115    0.933732   116    0.935814   117    0.941825  
     118    0.954017   119    0.965678   120    0.968941  
     121    0.973716   122    0.976643   123    0.991160  
     124    0.994290   125    1.015102   126    1.033735  
     127    1.038517   128    1.043904   129    1.078616  
     130    1.090165   131    1.107384   132    1.118648  
     133    1.126722   134    1.161717   135    1.179704  
     136    1.191618   137    1.201328   138    1.211781  
     139    1.223504   140    1.244755   141    1.258948  
     142    1.273283   143    1.287958   144    1.291601  
     145    1.302010   146    1.311766   147    1.323021  
     148    1.332166   149    1.358415   150    1.398586  
     151    1.404854   152    1.430644   153    1.492123  
     154    1.510200   155    1.529773   156    1.533922  
     157    1.543678   158    1.568810   159    1.583215  
     160    1.597857   161    1.611457   162    1.620537  
     163    1.640182   164    1.649377   165    1.677906  
     166    1.684292   167    1.711172   168    1.719822  
     169    1.748635   170    1.765051   171    1.785132  
     172    1.803221   173    1.820254   174    1.838504  
     175    1.859474   176    1.877093   177    1.887908  
     178    1.909078   179    1.925294   180    1.931691  
     181    1.945587   182    1.951187   183    1.954469  
     184    1.974494   185    1.994074   186    2.017934  
     187    2.023230   188    2.029737   189    2.043801  
     190    2.054985   191    2.059615   192    2.068395  
     193    2.098357   194    2.114275   195    2.117964  
     196    2.122392   197    2.135928   198    2.156254  
     199    2.167223   200    2.189406   201    2.203017  
     202    2.225970   203    2.248906   204    2.256780  
     205    2.267532   206    2.271671   207    2.303718  
     208    2.316939   209    2.335985   210    2.350538  
     211    2.362386   212    2.379220   213    2.395770  
     214    2.404148   215    2.417982   216    2.429399  
     217    2.442971   218    2.475896   219    2.510942  
     220    2.557218   221    2.603021   222    2.617058  
     223    2.641985   224    2.653331   225    2.673747  
     226    2.694130   227    2.733212   228    2.767415  
     229    2.787042   230    2.798666   231    2.811511  
     232    2.826641   233    2.842400   234    2.865733  
     235    2.873705   236    2.895152   237    2.904002  
     238    2.925913   239    2.952032   240    3.011726  
     241    3.036821   242    3.057733   243    3.087537  
     244    3.113077   245    3.158855   246    3.252376  
     247    3.267636   248    3.304963   249    3.396682  
     250    3.454236   251    3.573705   252    3.593443  
     253    3.682098   254    3.736049   255    3.802448  
     256    3.929484   257    3.947569   258    4.039970  
     259    4.074026   260    4.131831   261    4.198261  
     262    4.436590   263    4.506246   264    4.560801  
     265    4.754364   266    4.926642   267    5.038312  
     268    5.064138   269    5.179144   270    5.311672  
     271    5.499884   272    5.603345   273    5.699502  
     274    5.831439   275    6.097766   276    6.324342  
     277    6.697890   278   13.364897   279   18.422028  
     280   33.414536   281   33.472774  

  ==> SCF B: <==

    Maxiter =          50
    E Tol   =   1.000E-06
    D Tol   =   1.000E-08

    Max DIIS Vectors = 5

    Iter   N:                        E          dE         |D|
    Iter   1:  -2.2410431176325366E+02  -2.241E+02   9.178E-04 
    Iter   2:  -2.2411476596966199E+02  -1.045E-02   5.598E-05 DIIS
    Iter   3:  -2.2411493728548788E+02  -1.713E-04   2.369E-05 DIIS
    Iter   4:  -2.2411495804222335E+02  -2.076E-05   9.803E-06 DIIS
    Iter   5:  -2.2411496244368416E+02  -4.401E-06   1.636E-06 DIIS
    Iter   6:  -2.2411496270573639E+02  -2.621E-07   7.564E-07 DIIS
    Iter   7:  -2.2411496275505476E+02  -4.932E-08   2.503E-07 DIIS
    Iter   8:  -2.2411496276155850E+02  -6.504E-09   1.092E-07 DIIS
    Iter   9:  -2.2411496276256358E+02  -1.005E-09   4.618E-08 DIIS
    Iter  10:  -2.2411496276279939E+02  -2.358E-10   1.821E-08 DIIS
    Iter  11:  -2.2411496276282736E+02  -2.797E-11   8.811E-09 DIIS

    FISAPTSCF Converged.

    Final SCF Energy:  -2.2411496276282736E+02 [Eh]

   => Occupied Orbital Energies <=

       1  -20.606060     2  -20.550531     3  -11.390254  
       4  -11.292929     5   -1.437130     6   -1.357667  
       7   -0.960508     8   -0.765238     9   -0.669710  
      10   -0.660707    11   -0.619703    12   -0.540976  
      13   -0.534638    14   -0.474338    15   -0.459167  

   => Virtual Orbital Energies <=

      16    0.030230    17    0.055696    18    0.062698  
      19    0.068102    20    0.075651    21    0.081509  
      22    0.091746    23    0.096178    24    0.099696  
      25    0.103266    26    0.107958    27    0.111149  
      28    0.120283    29    0.122637    30    0.125397  
      31    0.132668    32    0.140565    33    0.144471  
      34    0.151312    35    0.157485    36    0.163922  
      37    0.168466    38    0.174901    39    0.182863  
      40    0.186443    41    0.196663    42    0.200485  
      43    0.209052    44    0.211442    45    0.219444  
      46    0.229091    47    0.238299    48    0.242163  
      49    0.248447    50    0.250213    51    0.262130  
      52    0.265162    53    0.269904    54    0.271858  
      55    0.275265    56    0.280326    57    0.286731  
      58    0.292447    59    0.303159    60    0.304574  
      61    0.315333    62    0.323706    63    0.335046  
      64    0.338824    65    0.340110    66    0.347124  
      67    0.350410    68    0.363161    69    0.366930  
      70    0.375236    71    0.381933    72    0.387206  
      73    0.395926    74    0.403997    75    0.404105  
      76    0.411021    77    0.416229    78    0.429714  
      79    0.433343    80    0.437333    81    0.441137  
      82    0.456506    83    0.465591    84    0.483223  
      85    0.488498    86    0.502737    87    0.521627  
      88    0.527409    89    0.543051    90    0.558369  
      91    0.569941    92    0.583379    93    0.605420  
      94    0.617750    95    0.622086    96    0.648218  
      97    0.648444    98    0.683959    99    0.732454  
     100    0.738469   101    0.767538   102    0.784327  
     103    0.792120   104    0.802588   105    0.830728  
     106    0.837686   107    0.844473   108    0.860188  
     109    0.867940   110    0.885297   111    0.892400  
     112    0.910123   113    0.921640   114    0.932545  
     115    0.934113   116    0.935328   117    0.942337  
     118    0.952161   119    0.962463   120    0.969549  
     121    0.973228   122    0.975987   123    0.992035  
     124    0.994626   125    1.015091   126    1.033405  
     127    1.037160   128    1.044463   129    1.075978  
     130    1.087272   131    1.105892   132    1.117342  
     133    1.127459   134    1.164220   135    1.179372  
     136    1.193135   137    1.200888   138    1.215451  
     139    1.230238   140    1.243904   141    1.257486  
     142    1.272343   143    1.289246   144    1.291788  
     145    1.304006   146    1.314801   147    1.323607  
     148    1.331641   149    1.355711   150    1.405329  
     151    1.406357   152    1.431619   153    1.493488  
     154    1.508298   155    1.527706   156    1.534171  
     157    1.543354   158    1.570311   159    1.581335  
     160    1.599420   161    1.613307   162    1.621975  
     163    1.643167   164    1.649877   165    1.675460  
     166    1.678517   167    1.711225   168    1.714988  
     169    1.748658   170    1.765939   171    1.784857  
     172    1.805703   173    1.821982   174    1.838680  
     175    1.862396   176    1.879589   177    1.885728  
     178    1.908637   179    1.925540   180    1.931087  
     181    1.944743   182    1.949136   183    1.953228  
     184    1.975899   185    1.996608   186    2.017479  
     187    2.023812   188    2.029151   189    2.042371  
     190    2.052050   191    2.060250   192    2.064129  
     193    2.096672   194    2.113914   195    2.116786  
     196    2.122803   197    2.137521   198    2.156260  
     199    2.168406   200    2.189641   201    2.206564  
     202    2.223397   203    2.248064   204    2.256704  
     205    2.265460   206    2.273610   207    2.303204  
     208    2.319347   209    2.339539   210    2.349669  
     211    2.360154   212    2.382092   213    2.396238  
     214    2.401443   215    2.420879   216    2.433742  
     217    2.442074   218    2.477411   219    2.501950  
     220    2.558653   221    2.595405   222    2.616697  
     223    2.644376   224    2.655949   225    2.671058  
     226    2.694161   227    2.736971   228    2.764601  
     229    2.786486   230    2.798694   231    2.811106  
     232    2.826628   233    2.839426   234    2.866107  
     235    2.875989   236    2.897527   237    2.903611  
     238    2.923823   239    2.949557   240    3.011663  
     241    3.036840   242    3.054825   243    3.086380  
     244    3.112229   245    3.159099   246    3.250957  
     247    3.266785   248    3.306000   249    3.393953  
     250    3.452718   251    3.573159   252    3.594413  
     253    3.676938   254    3.739164   255    3.797883  
     256    3.930385   257    3.946729   258    4.036846  
     259    4.073873   260    4.131363   261    4.198389  
     262    4.436773   263    4.505614   264    4.562924  
     265    4.753115   266    4.925369   267    5.038307  
     268    5.064505   269    5.178345   270    5.312826  
     271    5.501096   272    5.598737   273    5.699280  
     274    5.827469   275    6.096014   276    6.325527  
     277    6.701038   278   13.365354   279   18.422564  
     280   33.414026   281   33.472272  

  ==> Frozen Core <==


    ------------------
    Range      A     B
    ------------------
    nbf      302   302
    nmo      281   281
    nocc      15    15
    nvir     266   266
    nfocc      4     4
    naocc     11    11
    navir    266   266
    nfvir      0     0
    ------------------

  ==> Unification <==

  ==> dHF <==

    E ABC(HF) =  -6.8404867295551639E+02 [Eh]
    E AC(0)   =  -4.5604625471319827E+02 [Eh]
    E BC(0)   =  -4.5604004025470709E+02 [Eh]
    E A(0)    =  -2.1265808333002195E+02 [Eh]
    E B(0)    =  -2.1265095510987396E+02 [Eh]
    E AC(HF)  =  -4.5603502738978710E+02 [Eh]
    E BC(HF)  =  -4.5602938925513371E+02 [Eh]
    E AB(HF)  =  -4.2527657548502475E+02 [Eh]
    E A(HF)   =  -2.1263794277554297E+02 [Eh]
    E B(HF)   =  -2.1263126566014262E+02 [Eh]
    E C       =  -2.2802311073873210E+02 [Eh]
    E HF      =   1.4511273656864887E-02 [Eh]

  ==> Electrostatics <==

    Elst10,r            =     0.009831002790 [Eh]

  ==> Exchange <==

    Exch10(S^2)         =     0.006628848502 [Eh]
    Exch10              =     0.006653430740 [Eh]

  ==> Induction <==

    Ind20,u (A<-B)      =    -0.001560443232 [Eh]
    Ind20,u (B<-A)      =    -0.001505538328 [Eh]
    Ind20,u             =    -0.003065981560 [Eh]
    Exch-Ind20,u (A<-B) =     0.000820825639 [Eh]
    Exch-Ind20,u (B<-A) =     0.000811579567 [Eh]
    Exch-Ind20,u        =     0.001632405206 [Eh]

  ==> CPHF Iterations <==

    Maxiter     =          50
    Convergence =   1.000E-08

    -----------------------------------------
    Iter   Monomer A    Monomer B    Time [s]
    -----------------------------------------
    1      1.969E-01    1.915E-01          13
    2      7.662E-02    7.407E-02          28
    3      1.907E-02    1.819E-02          44
    4      7.397E-03    7.227E-03          59
    5      1.942E-03    1.906E-03          74
    6      6.959E-04    6.827E-04          91
    7      1.697E-04    1.712E-04         105
    8      5.206E-05    5.849E-05         114
    9      1.210E-05    1.695E-05         124
    10     4.769E-06    6.723E-06         135
    11     1.791E-06    2.209E-06         146
    12     3.860E-07    4.055E-07         161
    13     1.027E-07    1.015E-07         182
    14     2.934E-08    2.694E-08         204
    15     6.485E-09*   5.507E-09*        225
    -----------------------------------------

    Ind20,r (A<-B)      =    -0.001804819590 [Eh]
    Ind20,r (B<-A)      =    -0.001736329171 [Eh]
    Ind20,r             =    -0.003541148761 [Eh]
    Exch-Ind20,r (A<-B) =     0.001014173939 [Eh]
    Exch-Ind20,r (B<-A) =     0.000995261872 [Eh]
    Exch-Ind20,r        =     0.002009435811 [Eh]

  ==> F-SAPT Localization (IBO) <==

  Local Orbitals for Monomer A:

  ==> IBO Localizer 2 <==

    MinAO Basis = CC-PVTZ-MINAO
    Use Ghosts  =       FALSE
    Use Stars   =       FALSE
    Condition   =   1.000E-07
    Power       =           4
    Convergence =   1.000E-12
    Maxiter     =        1000

    @IBO Iter:                   Metric       Gradient
    @IBO    1:   1.4803056338428517E+00   1.674739E+00
    @IBO    2:   1.6777582391838732E+00   9.490354E-01
    @IBO    3:   1.7095574027555092E+00   2.899831E-01
    @IBO    4:   1.7106004566524644E+00   2.539412E-03
    @IBO    5:   1.7106006842082930E+00   1.138985E-04
    @IBO    6:   1.7106006843919432E+00   2.730484E-06
    @IBO    7:   1.7106006843920989E+00   1.005780E-07
    @IBO    8:   1.7106006843920991E+00   3.563488E-09
    @IBO    9:   1.7106006843920991E+00   1.376184E-10
    @IBO   10:   1.7106006843920993E+00   5.552689E-12
    @IBO   11:   1.7106006843920993E+00   2.292223E-13

    IBO Localizer 2 converged.

  Local Orbitals for Monomer B:

  ==> IBO Localizer 2 <==

    MinAO Basis = CC-PVTZ-MINAO
    Use Ghosts  =       FALSE
    Use Stars   =       FALSE
    Condition   =   1.000E-07
    Power       =           4
    Convergence =   1.000E-12
    Maxiter     =        1000

    @IBO Iter:                   Metric       Gradient
    @IBO    1:   1.4801455905553642E+00   1.673933E+00
    @IBO    2:   1.6777299200959872E+00   9.479146E-01
    @IBO    3:   1.7096264951477047E+00   2.876153E-01
    @IBO    4:   1.7106516611096336E+00   2.369104E-03
    @IBO    5:   1.7106518545647029E+00   1.026683E-04
    @IBO    6:   1.7106518547121587E+00   2.483874E-06
    @IBO    7:   1.7106518547122820E+00   8.909580E-08
    @IBO    8:   1.7106518547122820E+00   3.048229E-09
    @IBO    9:   1.7106518547122820E+00   1.149200E-10
    @IBO   10:   1.7106518547122820E+00   4.582101E-12
    @IBO   11:   1.7106518547122820E+00   1.882722E-13

    IBO Localizer 2 converged.

  ==> F-SAPT Electrostatics <==

  ==> DFERI: Density Fitted 3-Index Tensors <==

    Schwarz cutoff =   0.000E+00
    J cutoff       =   1.000E-12
    Mem (GB)       =         628

   => Auxiliary Basis <=

  Basis Set: (JUN-CC-PVDZ AUX)
    Blend: JUN-CC-PVDZ-JKFIT
    Number of shells: 468
    Number of basis function: 1336
    Number of Cartesian functions: 1524
    Spherical Harmonics?: true
    Max angular momentum: 3

    Elst10,r            =     0.009831003164 [Eh]

  ==> F-SAPT Exchange <==

  ==> DFERI: Density Fitted 3-Index Tensors <==

    Schwarz cutoff =   0.000E+00
    J cutoff       =   1.000E-12
    Mem (GB)       =         628

   => Auxiliary Basis <=

  Basis Set: (JUN-CC-PVDZ AUX)
    Blend: JUN-CC-PVDZ-JKFIT
    Number of shells: 468
    Number of basis function: 1336
    Number of Cartesian functions: 1524
    Spherical Harmonics?: true
    Max angular momentum: 3

    Exch10(S^2)         =     0.006628848502 [Eh]

    Scaling F-SAPT Exch10(S^2) by   1.004E+00 to match Exch10

  ==> F-SAPT Induction <==

  ==> DFERI: Density Fitted 3-Index Tensors <==

    Schwarz cutoff =   0.000E+00
    J cutoff       =   1.000E-12
    Mem (GB)       =         628

   => Auxiliary Basis <=

  Basis Set: (JUN-CC-PVDZ AUX)
    Blend: JUN-CC-PVDZ-JKFIT
    Number of shells: 468
    Number of basis function: 1336
    Number of Cartesian functions: 1524
    Spherical Harmonics?: true
    Max angular momentum: 3

    Ind20,u (A<-B)      =    -0.001560443231 [Eh]
    Ind20,u (B<-A)      =    -0.001505538328 [Eh]
    Ind20,u             =    -0.003065981559 [Eh]
    Exch-Ind20,u (A<-B) =     0.000820825639 [Eh]
    Exch-Ind20,u (B<-A) =     0.000811579568 [Eh]
    Exch-Ind20,u        =     0.001632405207 [Eh]

    Scaling for delta HF        =   1.288E+00
    Scaling for response (A<-B) =   1.069E+00
    Scaling for response (B<-A) =   1.068E+00
    Scaling for total (A<-B)    =   1.377E+00
    Scaling for total (B<-A)    =   1.376E+00

  ==> F-SAPT Dispersion <==

  ==> DFERI: Density Fitted 3-Index Tensors <==

    Schwarz cutoff =   0.000E+00
    J cutoff       =   1.000E-12
    Mem (GB)       =         628

   => Auxiliary Basis <=

  Basis Set: (JUN-CC-PVDZ AUX)
    Blend: JUN-CC-PVDZ-RI
    Number of shells: 354
    Number of basis function: 1050
    Number of Cartesian functions: 1214
    Spherical Harmonics?: true
    Max angular momentum: 3

    Disp20              =    -0.004315700213 [Eh]
    Exch-Disp20         =     0.000472848979 [Eh]

  ==> F-SAPT Output <==

    F-SAPT Data Filepath = fsapt/

  ==> Results <==


    SAPT Results  
  --------------------------------------------------------------------------------------------------------
    Electrostatics                  9.83100279 [mEh]       6.16904765 [kcal/mol]      25.81129783 [kJ/mol]
      Elst10,r                      9.83100279 [mEh]       6.16904765 [kcal/mol]      25.81129783 [kJ/mol]

    Exchange                        6.65343074 [mEh]       4.17509100 [kcal/mol]      17.46858241 [kJ/mol]
      Exch10                        6.65343074 [mEh]       4.17509100 [kcal/mol]      17.46858241 [kJ/mol]
      Exch10(S^2)                   6.62884850 [mEh]       4.15966541 [kcal/mol]      17.40404174 [kJ/mol]

    Induction                      -1.97315987 [mEh]      -1.23817657 [kcal/mol]      -5.18053125 [kJ/mol]
      Ind20,r                      -3.54114876 [mEh]      -2.22210449 [kcal/mol]      -9.29728607 [kJ/mol]
      Exch-Ind20,r                  2.00943581 [mEh]       1.26094006 [kcal/mol]       5.27577372 [kJ/mol]
      delta HF,r (2)               -0.44144692 [mEh]      -0.27701214 [kcal/mol]      -1.15901890 [kJ/mol]
      Induction (A<-B)             -1.01851347 [mEh]      -0.63912688 [kcal/mol]      -2.67410712 [kJ/mol]
      Induction (B<-A)             -0.95464640 [mEh]      -0.59904969 [kcal/mol]      -2.50642413 [kJ/mol]

    Dispersion                     -3.84285123 [mEh]      -2.41142566 [kcal/mol]     -10.08940591 [kJ/mol]
      Disp20                       -4.31570021 [mEh]      -2.70814288 [kcal/mol]     -11.33087091 [kJ/mol]
      Exch-Disp20                   0.47284898 [mEh]       0.29671723 [kcal/mol]       1.24146500 [kJ/mol]

  Total HF                         14.51127366 [mEh]       9.10596208 [kcal/mol]      38.09934899 [kJ/mol]
  Total SAPT0                      10.66842242 [mEh]       6.69453642 [kcal/mol]      28.00994307 [kJ/mol]

  --------------------------------------------------------------------------------------------------------
    Han Solo: This is *not* gonna work.
    Luke Skywalker: Why didn't you say so before?
    Han Solo: I *did* say so before.

*** tstop() called on ThinkPad-P50 at Tue Dec 12 11:45:33 2017
Module time:
	user time   =     614.93 seconds =      10.25 minutes
	system time =       6.17 seconds =       0.10 minutes
	total time  =        623 seconds =      10.38 minutes
Total time:
	user time   =     750.49 seconds =      12.51 minutes
	system time =       7.22 seconds =       0.12 minutes
	total time  =        761 seconds =      12.68 minutes

*** Psi4 exiting successfully. Buy a developer a beer!
