
    -----------------------------------------------------------------------
          Psi4: An Open-Source Ab Initio Electronic Structure Package
                               Psi4 1.1 release

                         Git: Rev {HEAD} add49b9 


    R. M. Parrish, L. A. Burns, D. G. A. Smith, A. C. Simmonett,
    A. E. DePrince III, E. G. Hohenstein, U. Bozkaya, A. Yu. Sokolov,
    R. Di Remigio, R. M. Richard, J. F. Gonthier, A. M. James,
    H. R. McAlexander, A. Kumar, M. Saitow, X. Wang, B. P. Pritchard,
    P. Verma, H. F. Schaefer III, K. Patkowski, R. A. King, E. F. Valeev,
    F. A. Evangelista, J. M. Turney, T. D. Crawford, and C. D. Sherrill,
    J. Chem. Theory Comput. in press (2017).
    (doi: 10.1021/acs.jctc.7b00174)

    -----------------------------------------------------------------------


    Psi4 started on: Monday, 15 January 2018 06:33PM

    Process ID:  20942
    PSIDATADIR: /home/junteng/Softwares/psi4conda/share/psi4
    Memory:     500.0 MiB
    Threads:    4
    
  ==> Input File <==

--------------------------------------------------------------------------
memory 750000 mb

molecule mol {
0 1
C         -0.82600        1.31730       -0.65104
O         -1.53015        1.48313       -1.61786
O         -1.15455        1.71991        0.58955
C         -2.47105        2.27400        0.74131
H         -2.56347        2.51908        1.79712
H         -2.58679        3.16763        0.12589
H         -3.22380        1.53982        0.44942
--
0 1
C         -0.50462       -1.72788       -0.19394
O         -0.38787       -2.91667       -0.00989
O         -1.65775       -1.06678       -0.04002
C         -2.79756       -1.84716        0.36857
H         -2.63430       -2.25772        1.36585
H         -2.97275       -2.66103       -0.33548
H         -3.63552       -1.15401        0.36981
--
0 1
H          1.29696        2.03678        0.91873
H          1.84199       -1.98499        0.88115
C          0.66809       -0.86848       -0.64546
C          0.55990        0.69963       -0.72186
C          1.82123       -1.01723        0.38845
C          3.15835       -0.53798       -0.21887
C          2.99022        1.01011       -0.13910
C          1.55224        1.11499        0.40546
O          1.49293        0.01494        1.32834
H          0.95387       -1.27921       -1.61623
H          0.93546        1.01276       -1.69708
H          3.99631       -0.88300        0.38790
H          3.30533       -0.90516       -1.23660
H          3.69247        1.44861        0.57139
H          3.11939        1.51150       -1.10050

symmetry c1
no_reorient
no_com
}

set {
basis jun-cc-pvdz
scf_type df
guess sad
freeze_core true
}

energy('fisapt0')
--------------------------------------------------------------------------

  Memory set to 698.492 GiB by Python driver.

*** tstart() called on ThinkPad-P50
*** at Mon Jan 15 18:33:47 2018

   => Loading Basis Set <=

    Name: JUN-CC-PVDZ
    Role: ORBITAL
    Keyword: BASIS
    atoms 1, 4, 8, 11, 17-22 entry C          line   157 file /home/junteng/Softwares/psi4conda/share/psi4/basis/jun-cc-pvdz.gbs 
    atoms 2-3, 9-10, 23      entry O          line   225 file /home/junteng/Softwares/psi4conda/share/psi4/basis/jun-cc-pvdz.gbs 
    atoms 5-7, 12-16, 24-29  entry H          line    35 file /home/junteng/Softwares/psi4conda/share/psi4/basis/jun-cc-pvdz.gbs 


         ---------------------------------------------------------
                                   SCF
            by Justin Turney, Rob Parrish, and Andy Simmonett
                              RHF Reference
                        4 Threads, 715255 MiB Core
         ---------------------------------------------------------

  ==> Geometry <==

    Molecular point group: c1
    Full point group: C1

    Geometry (in Angstrom), charge = 0, multiplicity = 1:

       Center              X                  Y                   Z               Mass       
    ------------   -----------------  -----------------  -----------------  -----------------
           C         -0.826000000000     1.317300000000    -0.651040000000    12.000000000000
           O         -1.530150000000     1.483130000000    -1.617860000000    15.994914619560
           O         -1.154550000000     1.719910000000     0.589550000000    15.994914619560
           C         -2.471050000000     2.274000000000     0.741310000000    12.000000000000
           H         -2.563470000000     2.519080000000     1.797120000000     1.007825032070
           H         -2.586790000000     3.167630000000     0.125890000000     1.007825032070
           H         -3.223800000000     1.539820000000     0.449420000000     1.007825032070
           C         -0.504620000000    -1.727880000000    -0.193940000000    12.000000000000
           O         -0.387870000000    -2.916670000000    -0.009890000000    15.994914619560
           O         -1.657750000000    -1.066780000000    -0.040020000000    15.994914619560
           C         -2.797560000000    -1.847160000000     0.368570000000    12.000000000000
           H         -2.634300000000    -2.257720000000     1.365850000000     1.007825032070
           H         -2.972750000000    -2.661030000000    -0.335480000000     1.007825032070
           H         -3.635520000000    -1.154010000000     0.369810000000     1.007825032070
           H          1.296960000000     2.036780000000     0.918730000000     1.007825032070
           H          1.841990000000    -1.984990000000     0.881150000000     1.007825032070
           C          0.668090000000    -0.868480000000    -0.645460000000    12.000000000000
           C          0.559900000000     0.699630000000    -0.721860000000    12.000000000000
           C          1.821230000000    -1.017230000000     0.388450000000    12.000000000000
           C          3.158350000000    -0.537980000000    -0.218870000000    12.000000000000
           C          2.990220000000     1.010110000000    -0.139100000000    12.000000000000
           C          1.552240000000     1.114990000000     0.405460000000    12.000000000000
           O          1.492930000000     0.014940000000     1.328340000000    15.994914619560
           H          0.953870000000    -1.279210000000    -1.616230000000     1.007825032070
           H          0.935460000000     1.012760000000    -1.697080000000     1.007825032070
           H          3.996310000000    -0.883000000000     0.387900000000     1.007825032070
           H          3.305330000000    -0.905160000000    -1.236600000000     1.007825032070
           H          3.692470000000     1.448610000000     0.571390000000     1.007825032070
           H          3.119390000000     1.511500000000    -1.100500000000     1.007825032070

  Running in c1 symmetry.

  Rotational constants: A =      0.02703  B =      0.01967  C =      0.01361 [cm^-1]
  Rotational constants: A =    810.42931  B =    589.76535  C =    407.89660 [MHz]
  Nuclear repulsion = 1118.201666521945299

  Charge       = 0
  Multiplicity = 1
  Electrons    = 114
  Nalpha       = 57
  Nbeta        = 57

  ==> Algorithm <==

  SCF Algorithm Type is DF.
  DIIS enabled.
  MOM disabled.
  Fractional occupation disabled.
  Guess Type is SAD.
  Energy threshold   = 1.00e-08
  Density threshold  = 1.00e-08
  Integral threshold = 0.00e+00

  ==> Primary Basis <==

  Basis Set: JUN-CC-PVDZ
    Blend: JUN-CC-PVDZ
    Number of shells: 162
    Number of basis function: 340
    Number of Cartesian functions: 355
    Spherical Harmonics?: true
    Max angular momentum: 2

   => Loading Basis Set <=

    Name: (JUN-CC-PVDZ AUX)
    Role: JKFIT
    Keyword: DF_BASIS_SCF
    atoms 1, 4, 8, 11, 17-22 entry C          line   145 file /home/junteng/Softwares/psi4conda/share/psi4/basis/jun-cc-pvdz-jkfit.gbs 
    atoms 2-3, 9-10, 23      entry O          line   257 file /home/junteng/Softwares/psi4conda/share/psi4/basis/jun-cc-pvdz-jkfit.gbs 
    atoms 5-7, 12-16, 24-29  entry H          line    69 file /home/junteng/Softwares/psi4conda/share/psi4/basis/jun-cc-pvdz-jkfit.gbs 

  ==> Pre-Iterations <==

   -------------------------------------------------------
    Irrep   Nso     Nmo     Nalpha   Nbeta   Ndocc  Nsocc
   -------------------------------------------------------
     A        340     340       0       0       0       0
   -------------------------------------------------------
    Total     340     340      57      57      57       0
   -------------------------------------------------------

  ==> Integral Setup <==

  ==> DFJK: Density-Fitted J/K Matrices <==

    J tasked:                  Yes
    K tasked:                  Yes
    wK tasked:                  No
    OpenMP threads:              4
    Integrals threads:           4
    Memory (MB):            536441
    Algorithm:                Core
    Integral Cache:           NONE
    Schwarz Cutoff:          1E-12
    Fitting Condition:       1E-12

   => Auxiliary Basis Set <=

  Basis Set: (JUN-CC-PVDZ AUX)
    Blend: JUN-CC-PVDZ-JKFIT
    Number of shells: 531
    Number of basis function: 1507
    Number of Cartesian functions: 1715
    Spherical Harmonics?: true
    Max angular momentum: 3

  Minimum eigenvalue in the overlap matrix is 1.4104103343E-05.
  Using Symmetric Orthogonalization.

  SCF Guess: Superposition of Atomic Densities via on-the-fly atomic UHF.

  ==> Iterations <==

                           Total Energy        Delta E     RMS |[F,P]|

   @DF-RHF iter   0:  -767.70011931418628   -7.67700e+02   4.28369e-02 
   @DF-RHF iter   1:  -760.68274712366951    7.01737e+00   5.47472e-03 
   @DF-RHF iter   2:  -761.04827670708937   -3.65530e-01   3.70847e-03 DIIS
   @DF-RHF iter   3:  -761.20316648159974   -1.54890e-01   9.21343e-04 DIIS
   @DF-RHF iter   4:  -761.22172809490439   -1.85616e-02   3.14010e-04 DIIS
   @DF-RHF iter   5:  -761.22396655677380   -2.23846e-03   1.06928e-04 DIIS
   @DF-RHF iter   6:  -761.22431635083842   -3.49794e-04   4.19699e-05 DIIS
   @DF-RHF iter   7:  -761.22437497802457   -5.86272e-05   1.53134e-05 DIIS
   @DF-RHF iter   8:  -761.22438351175447   -8.53373e-06   5.14280e-06 DIIS
   @DF-RHF iter   9:  -761.22438473139789   -1.21964e-06   1.95480e-06 DIIS
   @DF-RHF iter  10:  -761.22438489461183   -1.63214e-07   7.86937e-07 DIIS
   @DF-RHF iter  11:  -761.22438491984053   -2.52287e-08   3.09003e-07 DIIS
   @DF-RHF iter  12:  -761.22438492405342   -4.21289e-09   1.23112e-07 DIIS
   @DF-RHF iter  13:  -761.22438492466358   -6.10157e-10   5.46673e-08 DIIS
   @DF-RHF iter  14:  -761.22438492482274   -1.59162e-10   2.24298e-08 DIIS
   @DF-RHF iter  15:  -761.22438492484548   -2.27374e-11   7.74305e-09 DIIS

  ==> Post-Iterations <==

    Orbital Energies (a.u.)
    -----------------------

    Doubly Occupied:                                                      

       1A    -20.617909     2A    -20.608057     3A    -20.571144  
       4A    -20.557060     5A    -20.550079     6A    -11.396676  
       7A    -11.390270     8A    -11.300380     9A    -11.298522  
      10A    -11.297250    11A    -11.295000    12A    -11.273263  
      13A    -11.266897    14A    -11.243304    15A    -11.242536  
      16A     -1.475824    17A     -1.463656    18A     -1.406728  
      19A     -1.370363    20A     -1.362448    21A     -1.114221  
      22A     -1.052903    23A     -1.040602    24A     -0.984456  
      25A     -0.972128    26A     -0.893524    27A     -0.824620  
      28A     -0.807333    29A     -0.782196    30A     -0.774575  
      31A     -0.742101    32A     -0.704211    33A     -0.691486  
      34A     -0.680459    35A     -0.674369    36A     -0.668115  
      37A     -0.662279    38A     -0.658535    39A     -0.628374  
      40A     -0.591176    41A     -0.584402    42A     -0.567412  
      43A     -0.563094    44A     -0.553892    45A     -0.536749  
      46A     -0.529840    47A     -0.517209    48A     -0.515286  
      49A     -0.510229    50A     -0.499517    51A     -0.487612  
      52A     -0.482026    53A     -0.469406    54A     -0.456815  
      55A     -0.451160    56A     -0.439243    57A     -0.427535  

    Virtual:                                                              

      58A      0.050776    59A      0.056063    60A      0.061751  
      61A      0.068897    62A      0.074129    63A      0.077649  
      64A      0.092388    65A      0.093174    66A      0.094619  
      67A      0.107712    68A      0.109225    69A      0.116496  
      70A      0.121306    71A      0.123825    72A      0.133813  
      73A      0.139436    74A      0.149182    75A      0.151183  
      76A      0.154769    77A      0.158406    78A      0.167332  
      79A      0.169125    80A      0.174580    81A      0.177699  
      82A      0.184261    83A      0.194680    84A      0.198101  
      85A      0.207280    86A      0.213923    87A      0.217411  
      88A      0.222066    89A      0.222544    90A      0.230666  
      91A      0.238212    92A      0.243797    93A      0.248159  
      94A      0.250769    95A      0.254930    96A      0.259285  
      97A      0.268480    98A      0.274276    99A      0.281928  
     100A      0.294380   101A      0.301040   102A      0.308469  
     103A      0.317514   104A      0.320497   105A      0.330460  
     106A      0.335043   107A      0.345014   108A      0.351972  
     109A      0.356034   110A      0.357036   111A      0.364055  
     112A      0.371301   113A      0.376571   114A      0.380649  
     115A      0.383441   116A      0.387273   117A      0.391459  
     118A      0.395942   119A      0.396311   120A      0.402913  
     121A      0.405920   122A      0.416571   123A      0.421018  
     124A      0.426143   125A      0.427118   126A      0.442587  
     127A      0.452272   128A      0.455614   129A      0.462024  
     130A      0.469031   131A      0.478673   132A      0.482126  
     133A      0.492123   134A      0.500464   135A      0.505519  
     136A      0.510860   137A      0.524983   138A      0.534880  
     139A      0.536538   140A      0.545231   141A      0.551600  
     142A      0.565307   143A      0.582784   144A      0.604991  
     145A      0.622202   146A      0.641533   147A      0.674793  
     148A      0.688975   149A      0.713535   150A      0.752413  
     151A      0.774010   152A      0.788864   153A      0.797440  
     154A      0.806827   155A      0.811707   156A      0.816983  
     157A      0.829722   158A      0.859710   159A      0.876834  
     160A      0.878085   161A      0.890940   162A      0.901186  
     163A      0.904088   164A      0.910391   165A      0.915178  
     166A      0.922043   167A      0.933580   168A      0.936362  
     169A      0.940586   170A      0.941934   171A      0.953500  
     172A      0.961852   173A      0.970208   174A      0.972922  
     175A      0.975699   176A      0.987157   177A      0.995566  
     178A      1.000818   179A      1.006208   180A      1.017923  
     181A      1.026347   182A      1.038380   183A      1.046035  
     184A      1.073499   185A      1.075128   186A      1.081112  
     187A      1.092167   188A      1.099980   189A      1.118746  
     190A      1.128345   191A      1.140005   192A      1.185441  
     193A      1.199066   194A      1.221084   195A      1.230453  
     196A      1.254152   197A      1.274892   198A      1.288941  
     199A      1.313411   200A      1.329602   201A      1.349607  
     202A      1.386271   203A      1.421001   204A      1.436673  
     205A      1.460122   206A      1.469552   207A      1.480273  
     208A      1.487051   209A      1.507522   210A      1.516693  
     211A      1.524561   212A      1.534361   213A      1.552397  
     214A      1.554425   215A      1.570167   216A      1.587971  
     217A      1.603108   218A      1.618877   219A      1.622770  
     220A      1.636132   221A      1.652855   222A      1.657538  
     223A      1.665395   224A      1.670043   225A      1.678090  
     226A      1.689508   227A      1.703710   228A      1.726237  
     229A      1.740781   230A      1.746633   231A      1.771742  
     232A      1.775226   233A      1.814498   234A      1.826971  
     235A      1.837823   236A      1.845184   237A      1.861900  
     238A      1.866930   239A      1.897294   240A      1.905018  
     241A      1.914644   242A      1.932353   243A      1.941276  
     244A      1.954084   245A      1.955086   246A      1.974204  
     247A      1.983762   248A      1.991573   249A      2.001349  
     250A      2.021632   251A      2.023732   252A      2.027551  
     253A      2.033602   254A      2.049192   255A      2.055617  
     256A      2.059015   257A      2.071181   258A      2.084376  
     259A      2.096410   260A      2.107835   261A      2.118754  
     262A      2.125961   263A      2.149865   264A      2.171049  
     265A      2.178797   266A      2.184585   267A      2.193619  
     268A      2.217950   269A      2.233635   270A      2.255758  
     271A      2.261485   272A      2.293319   273A      2.305227  
     274A      2.321577   275A      2.333448   276A      2.341759  
     277A      2.376349   278A      2.379366   279A      2.383667  
     280A      2.394053   281A      2.409773   282A      2.412192  
     283A      2.417974   284A      2.440208   285A      2.457067  
     286A      2.467155   287A      2.486339   288A      2.491339  
     289A      2.526663   290A      2.535838   291A      2.567551  
     292A      2.605733   293A      2.620445   294A      2.633941  
     295A      2.701548   296A      2.729307   297A      2.731576  
     298A      2.766976   299A      2.781680   300A      2.785644  
     301A      2.791283   302A      2.809390   303A      2.839554  
     304A      2.854954   305A      2.860292   306A      2.877383  
     307A      2.885710   308A      2.902437   309A      2.941870  
     310A      2.951536   311A      2.979318   312A      3.004044  
     313A      3.012875   314A      3.035386   315A      3.058153  
     316A      3.116469   317A      3.137683   318A      3.194194  
     319A      3.239514   320A      3.266314   321A      3.297099  
     322A      3.313311   323A      3.363548   324A      3.382983  
     325A      3.397498   326A      3.404350   327A      3.480709  
     328A      3.505723   329A      3.566879   330A      3.586186  
     331A      3.632395   332A      3.664191   333A      3.679750  
     334A      3.783196   335A      3.788247   336A      3.814746  
     337A      3.942370   338A      3.955570   339A      4.068172  
     340A      4.091847  

    Final Occupation by Irrep:
              A 
    DOCC [    57 ]

  Energy converged.

  @DF-RHF Final Energy:  -761.22438492484548

   => Energetics <=

    Nuclear Repulsion Energy =           1118.2016665219452989
    One-Electron Energy =               -3263.7991950922669275
    Two-Electron Energy =                1384.3731436454761479
    DFT Exchange-Correlation Energy =       0.0000000000000000
    Empirical Dispersion Energy =           0.0000000000000000
    PCM Polarization Energy =               0.0000000000000000
    EFP Energy =                            0.0000000000000000
    Total Energy =                       -761.2243849248454808



Properties will be evaluated at   0.000000,   0.000000,   0.000000 Bohr

Properties computed using the SCF density matrix

  Nuclear Dipole Moment: (a.u.)
     X:     1.0031      Y:    -2.8514      Z:    -2.1100

  Electronic Dipole Moment: (a.u.)
     X:    -0.8319      Y:     3.4696      Z:     2.2157

  Dipole Moment: (a.u.)
     X:     0.1712      Y:     0.6182      Z:     0.1058     Total:     0.6502

  Dipole Moment: (Debye)
     X:     0.4351      Y:     1.5714      Z:     0.2688     Total:     1.6525


*** tstop() called on ThinkPad-P50 at Mon Jan 15 18:34:26 2018
Module time:
	user time   =     120.01 seconds =       2.00 minutes
	system time =       0.66 seconds =       0.01 minutes
	total time  =         39 seconds =       0.65 minutes
Total time:
	user time   =     120.01 seconds =       2.00 minutes
	system time =       0.66 seconds =       0.01 minutes
	total time  =         39 seconds =       0.65 minutes
   => Loading Basis Set <=

    Name: (JUN-CC-PVDZ AUX)
    Role: JKFIT
    Keyword: DF_BASIS_SCF
    atoms 1, 4, 8, 11, 17-22 entry C          line   145 file /home/junteng/Softwares/psi4conda/share/psi4/basis/jun-cc-pvdz-jkfit.gbs 
    atoms 2-3, 9-10, 23      entry O          line   257 file /home/junteng/Softwares/psi4conda/share/psi4/basis/jun-cc-pvdz-jkfit.gbs 
    atoms 5-7, 12-16, 24-29  entry H          line    69 file /home/junteng/Softwares/psi4conda/share/psi4/basis/jun-cc-pvdz-jkfit.gbs 

   => Loading Basis Set <=

    Name: (JUN-CC-PVDZ AUX)
    Role: RIFIT
    Keyword: DF_BASIS_SAPT
    atoms 1, 4, 8, 11, 17-22 entry C          line    99 file /home/junteng/Softwares/psi4conda/share/psi4/basis/jun-cc-pvdz-ri.gbs 
    atoms 2-3, 9-10, 23      entry O          line   187 file /home/junteng/Softwares/psi4conda/share/psi4/basis/jun-cc-pvdz-ri.gbs 
    atoms 5-7, 12-16, 24-29  entry H          line    29 file /home/junteng/Softwares/psi4conda/share/psi4/basis/jun-cc-pvdz-ri.gbs 

   => Loading Basis Set <=

    Name: CC-PVTZ-MINAO
    Role: ORBITAL
    Keyword: BASIS
    atoms 1, 4, 8, 11, 17-22 entry C          line   130 file /home/junteng/Softwares/psi4conda/share/psi4/basis/cc-pvtz-minao.gbs 
    atoms 2-3, 9-10, 23      entry O          line   190 file /home/junteng/Softwares/psi4conda/share/psi4/basis/cc-pvtz-minao.gbs 
    atoms 5-7, 12-16, 24-29  entry H          line    19 file /home/junteng/Softwares/psi4conda/share/psi4/basis/cc-pvtz-minao.gbs 


*** tstart() called on ThinkPad-P50
*** at Mon Jan 15 18:34:27 2018

	 --------------------------------------------
	                    FISAPT0                  
	                  Rob Parrish                
	 --------------------------------------------

    Do F-SAPT =         Yes
    Do Plot   =          No
    Memory    =      78.580 [GD]

  ==> Localization (IBO) <==

  ==> IBO Localizer 2 <==

    MinAO Basis = CC-PVTZ-MINAO
    Use Ghosts  =       FALSE
    Use Stars   =       FALSE
    Condition   =   1.000E-07
    Power       =           4
    Convergence =   1.000E-12
    Maxiter     =        1000

    @IBO Iter:                   Metric       Gradient
    @IBO    1:   1.9442649999791035E+00   2.885113E+00
    @IBO    2:   2.1867557107063411E+00   2.601363E+00
    @IBO    3:   2.2938350458765355E+00   1.046752E+00
    @IBO    4:   2.3049115185647908E+00   1.367585E-01
    @IBO    5:   2.3051101507628595E+00   2.797632E-03
    @IBO    6:   2.3051102274420265E+00   5.232230E-05
    @IBO    7:   2.3051102274730719E+00   1.239242E-06
    @IBO    8:   2.3051102274730839E+00   3.355573E-08
    @IBO    9:   2.3051102274730839E+00   1.176607E-09
    @IBO   10:   2.3051102274730844E+00   4.837935E-11
    @IBO   11:   2.3051102274730844E+00   2.114841E-12
    @IBO   12:   2.3051102274730844E+00   9.467084E-14

    IBO Localizer 2 converged.

  ==> Partitioning <==

   => Atomic Partitioning <= 

    Monomer A:   7 atoms
    Monomer B:   7 atoms
    Monomer C:  15 atoms

   => Link Bond Identification <=

    Link Bond Selection = AUTOMATIC

    Charge Completeness = 0.800

    Total Link Bonds = 2

    --------------------------
    N     Orb Type Aind1 Aind2
    --------------------------
    1      48   BC     8    17
    2      50   AC     1    18
    --------------------------

   => Link Bond Assignment <=

    Link Bond Assignment      = C

   => Partition Summary <=

    Monomer A:  0 charge,  30 protons,  30 electrons,  15 docc
    Monomer B:  0 charge,  30 protons,  30 electrons,  15 docc
    Monomer C:  0 charge,  54 protons,  54 electrons,  27 docc

  ==> Overlap Integrals <==

  ==> Kinetic Integrals <==

  ==> Nuclear Integrals <==

    Nuclear Repulsion Tot:   1.1182016665219462E+03 [Eh]

  ==> Coulomb Integrals <==

  ==> DFJK: Density-Fitted J/K Matrices <==

    J tasked:                  Yes
    K tasked:                  Yes
    wK tasked:                  No
    OpenMP threads:              4
    Integrals threads:           4
    Memory (MB):            643730
    Algorithm:                Core
    Integral Cache:           NONE
    Schwarz Cutoff:          1E-12
    Fitting Condition:       1E-12

   => Auxiliary Basis Set <=

  Basis Set: (JUN-CC-PVDZ AUX)
    Blend: JUN-CC-PVDZ-JKFIT
    Number of shells: 531
    Number of basis function: 1507
    Number of Cartesian functions: 1715
    Spherical Harmonics?: true
    Max angular momentum: 3

  ==> Relaxed SCF Equations <==

  ==> SCF A: <==

    Maxiter =          50
    E Tol   =   1.000E-06
    D Tol   =   1.000E-08

    Max DIIS Vectors = 5

    Iter   N:                        E          dE         |D|
    Iter   1:  -2.2408703302085820E+02  -2.241E+02   1.466E-03 
    Iter   2:  -2.2409616208151522E+02  -9.129E-03   8.484E-05 DIIS
    Iter   3:  -2.2409631203884177E+02  -1.500E-04   2.564E-05 DIIS
    Iter   4:  -2.2409632190117810E+02  -9.862E-06   1.283E-05 DIIS
    Iter   5:  -2.2409632415438577E+02  -2.253E-06   2.806E-06 DIIS
    Iter   6:  -2.2409632431924882E+02  -1.649E-07   1.094E-06 DIIS
    Iter   7:  -2.2409632434625098E+02  -2.700E-08   3.808E-07 DIIS
    Iter   8:  -2.2409632435047632E+02  -4.225E-09   1.515E-07 DIIS
    Iter   9:  -2.2409632435113753E+02  -6.612E-10   6.582E-08 DIIS
    Iter  10:  -2.2409632435131925E+02  -1.817E-10   2.577E-08 DIIS
    Iter  11:  -2.2409632435134154E+02  -2.228E-11   1.667E-08 DIIS
    Iter  12:  -2.2409632435135018E+02  -8.640E-12   6.568E-09 DIIS

    FISAPTSCF Converged.

    Final SCF Energy:  -2.2409632435135018E+02 [Eh]

   => Occupied Orbital Energies <=

       1  -20.604906     2  -20.545161     3  -11.384468  
       4  -11.291283     5   -1.437217     6   -1.354137  
       7   -0.959550     8   -0.764105     9   -0.666535  
      10   -0.660963    11   -0.618950    12   -0.538385  
      13   -0.532742    14   -0.470248    15   -0.456894  

   => Virtual Orbital Energies <=

      16    0.029719    17    0.055069    18    0.061180  
      19    0.068424    20    0.070663    21    0.075309  
      22    0.087836    23    0.089675    24    0.094266  
      25    0.101606    26    0.103839    27    0.111672  
      28    0.120453    29    0.124195    30    0.128112  
      31    0.134662    32    0.139104    33    0.145084  
      34    0.150563    35    0.157518    36    0.161802  
      37    0.173199    38    0.174355    39    0.180713  
      40    0.182901    41    0.195919    42    0.198732  
      43    0.200853    44    0.205670    45    0.214433  
      46    0.223357    47    0.228410    48    0.230599  
      49    0.241353    50    0.246261    51    0.250547  
      52    0.251885    53    0.258991    54    0.266217  
      55    0.273020    56    0.281997    57    0.286307  
      58    0.289199    59    0.295391    60    0.301724  
      61    0.307434    62    0.316054    63    0.321490  
      64    0.326766    65    0.335514    66    0.337298  
      67    0.347976    68    0.352314    69    0.361897  
      70    0.374595    71    0.380553    72    0.384374  
      73    0.389462    74    0.391892    75    0.396090  
      76    0.398086    77    0.400868    78    0.409306  
      79    0.419149    80    0.422963    81    0.428978  
      82    0.434787    83    0.442188    84    0.451412  
      85    0.458802    86    0.465747    87    0.471105  
      88    0.480633    89    0.489952    90    0.495115  
      91    0.508368    92    0.524356    93    0.534904  
      94    0.545768    95    0.552086    96    0.567239  
      97    0.570169    98    0.573812    99    0.593858  
     100    0.596972   101    0.610184   102    0.615124  
     103    0.630977   104    0.638828   105    0.652982  
     106    0.667581   107    0.682610   108    0.708376  
     109    0.725497   110    0.759548   111    0.773159  
     112    0.797607   113    0.807061   114    0.813196  
     115    0.834192   116    0.844779   117    0.873192  
     118    0.882950   119    0.895129   120    0.906227  
     121    0.922264   122    0.925105   123    0.928937  
     124    0.942110   125    0.947702   126    0.950556  
     127    0.955562   128    0.961683   129    0.967824  
     130    0.978514   131    0.985163   132    0.989025  
     133    1.001657   134    1.014242   135    1.022727  
     136    1.026900   137    1.030438   138    1.049697  
     139    1.057459   140    1.060219   141    1.081705  
     142    1.083675   143    1.106453   144    1.115019  
     145    1.119886   146    1.131116   147    1.145160  
     148    1.154121   149    1.183279   150    1.239063  
     151    1.246301   152    1.254859   153    1.273886  
     154    1.293635   155    1.333102   156    1.342046  
     157    1.386081   158    1.411008   159    1.442077  
     160    1.463315   161    1.472315   162    1.493020  
     163    1.513564   164    1.522937   165    1.534663  
     166    1.558334   167    1.569055   168    1.582922  
     169    1.588190   170    1.605051   171    1.616353  
     172    1.642296   173    1.651792   174    1.656555  
     175    1.662140   176    1.676839   177    1.679533  
     178    1.692549   179    1.708119   180    1.739629  
     181    1.755914   182    1.779041   183    1.793343  
     184    1.802765   185    1.824913   186    1.833660  
     187    1.845156   188    1.858194   189    1.859850  
     190    1.877744   191    1.896862   192    1.907860  
     193    1.943479   194    1.949754   195    1.956413  
     196    1.967193   197    1.973551   198    1.993315  
     199    1.998116   200    2.001460   201    2.020992  
     202    2.025078   203    2.034703   204    2.036207  
     205    2.046433   206    2.071017   207    2.088982  
     208    2.091786   209    2.100865   210    2.107805  
     211    2.131920   212    2.139569   213    2.141763  
     214    2.156313   215    2.168720   216    2.185802  
     217    2.198416   218    2.217696   219    2.238298  
     220    2.249896   221    2.262108   222    2.272196  
     223    2.286053   224    2.293802   225    2.309364  
     226    2.334194   227    2.351477   228    2.355789  
     229    2.365535   230    2.377231   231    2.388566  
     232    2.397478   233    2.400865   234    2.423888  
     235    2.443807   236    2.449268   237    2.466421  
     238    2.476767   239    2.496680   240    2.506855  
     241    2.536781   242    2.557728   243    2.581325  
     244    2.592511   245    2.621851   246    2.636968  
     247    2.649195   248    2.679403   249    2.682623  
     250    2.691854   251    2.714017   252    2.730782  
     253    2.780094   254    2.795464   255    2.801770  
     256    2.814036   257    2.845619   258    2.852488  
     259    2.873587   260    2.877507   261    2.884305  
     262    2.906944   263    2.925861   264    2.948345  
     265    2.983227   266    2.990426   267    3.022033  
     268    3.028586   269    3.047271   270    3.061919  
     271    3.095684   272    3.125731   273    3.225995  
     274    3.272167   275    3.291580   276    3.329131  
     277    3.409156   278    3.414697   279    3.429428  
     280    3.527170   281    3.587538   282    3.618805  
     283    3.643762   284    3.653076   285    3.682116  
     286    3.731976   287    3.806383   288    3.821094  
     289    3.951328   290    3.993957   291    4.099405  
     292    4.125993   293    4.192562   294    4.436907  
     295    4.509421   296    4.539359   297    4.750690  
     298    4.939680   299    5.044819   300    5.068164  
     301    5.201907   302    5.324085   303    5.508212  
     304    5.550512   305    5.671251   306    5.809137  
     307    6.230331   308    6.353894   309    6.685818  
     310   13.365467   311   18.428797   312   33.414776  
     313   33.471312  

  ==> SCF B: <==

    Maxiter =          50
    E Tol   =   1.000E-06
    D Tol   =   1.000E-08

    Max DIIS Vectors = 5

    Iter   N:                        E          dE         |D|
    Iter   1:  -2.2409901027682963E+02  -2.241E+02   2.078E-03 
    Iter   2:  -2.2411732382132882E+02  -1.831E-02   1.288E-04 DIIS
    Iter   3:  -2.2411760939465518E+02  -2.856E-04   4.835E-05 DIIS
    Iter   4:  -2.2411763675486051E+02  -2.736E-05   2.094E-05 DIIS
    Iter   5:  -2.2411764271253648E+02  -5.958E-06   3.644E-06 DIIS
    Iter   6:  -2.2411764299602697E+02  -2.835E-07   1.202E-06 DIIS
    Iter   7:  -2.2411764303258823E+02  -3.656E-08   3.711E-07 DIIS
    Iter   8:  -2.2411764303514096E+02  -2.553E-09   1.503E-07 DIIS
    Iter   9:  -2.2411764303551530E+02  -3.743E-10   5.213E-08 DIIS
    Iter  10:  -2.2411764303557115E+02  -5.585E-11   1.904E-08 DIIS
    Iter  11:  -2.2411764303557788E+02  -6.736E-12   1.103E-08 DIIS
    Iter  12:  -2.2411764303558010E+02  -2.217E-12   3.275E-09 DIIS

    FISAPTSCF Converged.

    Final SCF Energy:  -2.2411764303558010E+02 [Eh]

   => Occupied Orbital Energies <=

       1  -20.607276     2  -20.544875     3  -11.384626  
       4  -11.293286     5   -1.439275     6   -1.354717  
       7   -0.962483     8   -0.766355     9   -0.667172  
      10   -0.662034    11   -0.620408    12   -0.540877  
      13   -0.534675    14   -0.471830    15   -0.458111  

   => Virtual Orbital Energies <=

      16    0.029939    17    0.055952    18    0.061366  
      19    0.065190    20    0.070385    21    0.079078  
      22    0.083479    23    0.090788    24    0.094458  
      25    0.100989    26    0.109313    27    0.111726  
      28    0.117692    29    0.121849    30    0.126090  
      31    0.133818    32    0.139152    33    0.147934  
      34    0.155916    35    0.157568    36    0.162809  
      37    0.166957    38    0.172227    39    0.179138  
      40    0.186114    41    0.189485    42    0.202078  
      43    0.207971    44    0.212139    45    0.215124  
      46    0.217464    47    0.225477    48    0.228861  
      49    0.234809    50    0.247244    51    0.250661  
      52    0.252727    53    0.259876    54    0.261861  
      55    0.273244    56    0.279446    57    0.287699  
      58    0.291679    59    0.298779    60    0.302142  
      61    0.309373    62    0.316822    63    0.325737  
      64    0.328433    65    0.334679    66    0.345628  
      67    0.354018    68    0.364440    69    0.366973  
      70    0.372138    71    0.375593    72    0.381956  
      73    0.382952    74    0.391017    75    0.397124  
      76    0.403297    77    0.405195    78    0.409793  
      79    0.414083    80    0.417428    81    0.425085  
      82    0.426802    83    0.442618    84    0.451638  
      85    0.453573    86    0.461627    87    0.464477  
      88    0.480314    89    0.485721    90    0.496382  
      91    0.504691    92    0.519159    93    0.532369  
      94    0.540388    95    0.551176    96    0.553053  
      97    0.560782    98    0.569716    99    0.584367  
     100    0.599692   101    0.613016   102    0.621559  
     103    0.633962   104    0.647531   105    0.655714  
     106    0.677900   107    0.685383   108    0.721387  
     109    0.730189   110    0.761560   111    0.787556  
     112    0.804552   113    0.807945   114    0.825564  
     115    0.842021   116    0.842951   117    0.877624  
     118    0.880665   119    0.888284   120    0.902086  
     121    0.917625   122    0.923085   123    0.927865  
     124    0.929716   125    0.944051   126    0.946434  
     127    0.956036   128    0.967610   129    0.976090  
     130    0.985278   131    0.987852   132    0.993654  
     133    0.997700   134    1.016500   135    1.020611  
     136    1.033237   137    1.044717   138    1.053400  
     139    1.057426   140    1.064752   141    1.081312  
     142    1.101004   143    1.109321   144    1.110575  
     145    1.122088   146    1.136215   147    1.137060  
     148    1.161071   149    1.193530   150    1.227639  
     151    1.238877   152    1.273234   153    1.288648  
     154    1.310898   155    1.334170   156    1.339258  
     157    1.355416   158    1.388410   159    1.438757  
     160    1.450435   161    1.474771   162    1.490599  
     163    1.496527   164    1.513764   165    1.531382  
     166    1.540735   167    1.567137   168    1.571671  
     169    1.580347   170    1.596906   171    1.607692  
     172    1.619380   173    1.639261   174    1.656905  
     175    1.666461   176    1.675977   177    1.688181  
     178    1.704907   179    1.717304   180    1.729727  
     181    1.759305   182    1.784657   183    1.793526  
     184    1.816080   185    1.827390   186    1.843155  
     187    1.849221   188    1.860471   189    1.864847  
     190    1.874305   191    1.900553   192    1.912341  
     193    1.925099   194    1.939480   195    1.955312  
     196    1.969667   197    1.976017   198    1.985559  
     199    2.015030   200    2.024913   201    2.027197  
     202    2.035163   203    2.046358   204    2.049010  
     205    2.059836   206    2.066541   207    2.086072  
     208    2.092373   209    2.099492   210    2.110676  
     211    2.128976   212    2.138650   213    2.146875  
     214    2.158045   215    2.177322   216    2.184237  
     217    2.200961   218    2.218063   219    2.228322  
     220    2.233710   221    2.260056   222    2.281403  
     223    2.284175   224    2.296498   225    2.325339  
     226    2.328898   227    2.344943   228    2.348346  
     229    2.362263   230    2.387565   231    2.396260  
     232    2.404609   233    2.409909   234    2.425968  
     235    2.429316   236    2.451607   237    2.464553  
     238    2.485483   239    2.498994   240    2.520954  
     241    2.536196   242    2.557854   243    2.585431  
     244    2.596894   245    2.618696   246    2.641215  
     247    2.658150   248    2.672360   249    2.681792  
     250    2.695800   251    2.723708   252    2.748344  
     253    2.761337   254    2.792129   255    2.801447  
     256    2.808701   257    2.851884   258    2.866462  
     259    2.869340   260    2.883519   261    2.890518  
     262    2.896589   263    2.939934   264    2.958938  
     265    2.982796   266    2.998471   267    3.009131  
     268    3.039357   269    3.044185   270    3.063719  
     271    3.088707   272    3.158170   273    3.212482  
     274    3.255431   275    3.308309   276    3.315132  
     277    3.398751   278    3.410269   279    3.423022  
     280    3.526674   281    3.586799   282    3.601094  
     283    3.657866   284    3.660287   285    3.685075  
     286    3.762749   287    3.816424   288    3.846551  
     289    3.957731   290    3.971214   291    4.082187  
     292    4.132589   293    4.208090   294    4.447522  
     295    4.523531   296    4.554970   297    4.758596  
     298    4.942193   299    5.041650   300    5.067438  
     301    5.220789   302    5.339390   303    5.514990  
     304    5.575683   305    5.745771   306    5.821808  
     307    6.122971   308    6.357105   309    6.698461  
     310   13.386073   311   18.431357   312   33.426544  
     313   33.479501  

  ==> Frozen Core <==


    ------------------
    Range      A     B
    ------------------
    nbf      340   340
    nmo      313   313
    nocc      15    15
    nvir     298   298
    nfocc      4     4
    naocc     11    11
    navir    298   298
    nfvir      0     0
    ------------------

  ==> Unification <==

  ==> dHF <==

    E ABC(HF) =  -7.6122438492484548E+02 [Eh]
    E AC(0)   =  -5.3319578270259251E+02 [Eh]
    E BC(0)   =  -5.3320813326084942E+02 [Eh]
    E A(0)    =  -2.1266629895047441E+02 [Eh]
    E B(0)    =  -2.1266755620344628E+02 [Eh]
    E AC(HF)  =  -5.3318649137210116E+02 [Eh]
    E BC(HF)  =  -5.3318950050209958E+02 [Eh]
    E AB(HF)  =  -4.2529876150815846E+02 [Eh]
    E A(HF)   =  -2.1264876309026636E+02 [Eh]
    E B(HF)   =  -2.1263998156723017E+02 [Eh]
    E C       =  -3.0516162380001333E+02 [Eh]
    E HF      =   1.7907238583120488E-02 [Eh]

  ==> Electrostatics <==

    Elst10,r            =     0.011185956602 [Eh]

  ==> Exchange <==

    Exch10(S^2)         =     0.008795589570 [Eh]
    Exch10              =     0.008829038507 [Eh]

  ==> Induction <==

    Ind20,u (A<-B)      =    -0.001318519428 [Eh]
    Ind20,u (B<-A)      =    -0.002036304317 [Eh]
    Ind20,u             =    -0.003354823745 [Eh]
    Exch-Ind20,u (A<-B) =     0.000913093369 [Eh]
    Exch-Ind20,u (B<-A) =     0.001057253183 [Eh]
    Exch-Ind20,u        =     0.001970346552 [Eh]

  ==> CPHF Iterations <==

    Maxiter     =          50
    Convergence =   1.000E-08

    -----------------------------------------
    Iter   Monomer A    Monomer B    Time [s]
    -----------------------------------------
    1      1.536E-01    2.167E-01           4
    2      5.435E-02    8.180E-02           8
    3      1.222E-02    2.065E-02          12
    4      5.842E-03    6.890E-03          15
    5      2.025E-03    1.993E-03          19
    6      8.047E-04    6.680E-04          23
    7      2.411E-04    1.736E-04          27
    8      1.023E-04    4.874E-05          31
    9      2.686E-05    9.898E-06          35
    10     6.687E-06    3.013E-06          38
    11     2.175E-06    9.736E-07          42
    12     7.153E-07    2.691E-07          46
    13     1.156E-07    8.013E-08          50
    14     2.429E-08    1.807E-08          54
    15     7.700E-09*   4.519E-09*         58
    -----------------------------------------

    Ind20,r (A<-B)      =    -0.001497504640 [Eh]
    Ind20,r (B<-A)      =    -0.002409173899 [Eh]
    Ind20,r             =    -0.003906678538 [Eh]
    Exch-Ind20,r (A<-B) =     0.001075909910 [Eh]
    Exch-Ind20,r (B<-A) =     0.001353752252 [Eh]
    Exch-Ind20,r        =     0.002429662161 [Eh]

  ==> F-SAPT Localization (IBO) <==

  Local Orbitals for Monomer A:

  ==> IBO Localizer 2 <==

    MinAO Basis = CC-PVTZ-MINAO
    Use Ghosts  =       FALSE
    Use Stars   =       FALSE
    Condition   =   1.000E-07
    Power       =           4
    Convergence =   1.000E-12
    Maxiter     =        1000

    @IBO Iter:                   Metric       Gradient
    @IBO    1:   1.4831406036857890E+00   1.683826E+00
    @IBO    2:   1.6775877937871386E+00   9.393238E-01
    @IBO    3:   1.7097854231427601E+00   3.335829E-01
    @IBO    4:   1.7111819724157140E+00   3.208587E-03
    @IBO    5:   1.7111823281313705E+00   1.415612E-04
    @IBO    6:   1.7111823283894250E+00   2.641469E-06
    @IBO    7:   1.7111823283895728E+00   9.151642E-08
    @IBO    8:   1.7111823283895731E+00   3.161594E-09
    @IBO    9:   1.7111823283895733E+00   1.247658E-10
    @IBO   10:   1.7111823283895731E+00   5.159030E-12
    @IBO   11:   1.7111823283895731E+00   2.159962E-13

    IBO Localizer 2 converged.

  Local Orbitals for Monomer B:

  ==> IBO Localizer 2 <==

    MinAO Basis = CC-PVTZ-MINAO
    Use Ghosts  =       FALSE
    Use Stars   =       FALSE
    Condition   =   1.000E-07
    Power       =           4
    Convergence =   1.000E-12
    Maxiter     =        1000

    @IBO Iter:                   Metric       Gradient
    @IBO    1:   1.4838061659406789E+00   1.672644E+00
    @IBO    2:   1.6770613126097793E+00   9.261423E-01
    @IBO    3:   1.7086470564617522E+00   3.304012E-01
    @IBO    4:   1.7100215795485094E+00   3.237443E-03
    @IBO    5:   1.7100219512348531E+00   1.354657E-04
    @IBO    6:   1.7100219514580632E+00   1.957918E-06
    @IBO    7:   1.7100219514581343E+00   5.806705E-08
    @IBO    8:   1.7100219514581345E+00   1.493776E-09
    @IBO    9:   1.7100219514581345E+00   4.891420E-11
    @IBO   10:   1.7100219514581345E+00   1.897794E-12
    @IBO   11:   1.7100219514581345E+00   7.856480E-14

    IBO Localizer 2 converged.

  ==> F-SAPT Electrostatics <==

  ==> DFERI: Density Fitted 3-Index Tensors <==

    Schwarz cutoff =   0.000E+00
    J cutoff       =   1.000E-12
    Mem (GB)       =         628

   => Auxiliary Basis <=

  Basis Set: (JUN-CC-PVDZ AUX)
    Blend: JUN-CC-PVDZ-JKFIT
    Number of shells: 531
    Number of basis function: 1507
    Number of Cartesian functions: 1715
    Spherical Harmonics?: true
    Max angular momentum: 3

    Elst10,r            =     0.011185955386 [Eh]

  ==> F-SAPT Exchange <==

  ==> DFERI: Density Fitted 3-Index Tensors <==

    Schwarz cutoff =   0.000E+00
    J cutoff       =   1.000E-12
    Mem (GB)       =         628

   => Auxiliary Basis <=

  Basis Set: (JUN-CC-PVDZ AUX)
    Blend: JUN-CC-PVDZ-JKFIT
    Number of shells: 531
    Number of basis function: 1507
    Number of Cartesian functions: 1715
    Spherical Harmonics?: true
    Max angular momentum: 3

    Exch10(S^2)         =     0.008795589570 [Eh]

    Scaling F-SAPT Exch10(S^2) by   1.004E+00 to match Exch10

  ==> F-SAPT Induction <==

  ==> DFERI: Density Fitted 3-Index Tensors <==

    Schwarz cutoff =   0.000E+00
    J cutoff       =   1.000E-12
    Mem (GB)       =         628

   => Auxiliary Basis <=

  Basis Set: (JUN-CC-PVDZ AUX)
    Blend: JUN-CC-PVDZ-JKFIT
    Number of shells: 531
    Number of basis function: 1507
    Number of Cartesian functions: 1715
    Spherical Harmonics?: true
    Max angular momentum: 3

    Ind20,u (A<-B)      =    -0.001318519428 [Eh]
    Ind20,u (B<-A)      =    -0.002036304317 [Eh]
    Ind20,u             =    -0.003354823745 [Eh]
    Exch-Ind20,u (A<-B) =     0.000913093369 [Eh]
    Exch-Ind20,u (B<-A) =     0.001057253184 [Eh]
    Exch-Ind20,u        =     0.001970346552 [Eh]

    Scaling for delta HF        =   1.427E+00
    Scaling for response (A<-B) =   1.040E+00
    Scaling for response (B<-A) =   1.078E+00
    Scaling for total (A<-B)    =   1.484E+00
    Scaling for total (B<-A)    =   1.538E+00

  ==> F-SAPT Dispersion <==

  ==> DFERI: Density Fitted 3-Index Tensors <==

    Schwarz cutoff =   0.000E+00
    J cutoff       =   1.000E-12
    Mem (GB)       =         628

   => Auxiliary Basis <=

  Basis Set: (JUN-CC-PVDZ AUX)
    Blend: JUN-CC-PVDZ-RI
    Number of shells: 399
    Number of basis function: 1171
    Number of Cartesian functions: 1350
    Spherical Harmonics?: true
    Max angular momentum: 3

    Disp20              =    -0.004821229214 [Eh]
    Exch-Disp20         =     0.000636822835 [Eh]

  ==> F-SAPT Output <==

    F-SAPT Data Filepath = fsapt/

  ==> Results <==


    SAPT Results  
  --------------------------------------------------------------------------------------------------------
    Electrostatics                 11.18595660 [mEh]       7.01929403 [kcal/mol]      29.36872906 [kJ/mol]
      Elst10,r                     11.18595660 [mEh]       7.01929403 [kcal/mol]      29.36872906 [kJ/mol]

    Exchange                        8.82903851 [mEh]       5.54030554 [kcal/mol]      23.18064060 [kJ/mol]
      Exch10                        8.82903851 [mEh]       5.54030554 [kcal/mol]      23.18064060 [kJ/mol]
      Exch10(S^2)                   8.79558957 [mEh]       5.51931601 [kcal/mol]      23.09282042 [kJ/mol]

    Induction                      -2.10775653 [mEh]      -1.32263724 [kcal/mol]      -5.53391476 [kJ/mol]
      Ind20,r                      -3.90667854 [mEh]      -2.45147790 [kcal/mol]     -10.25698450 [kJ/mol]
      Exch-Ind20,r                  2.42966216 [mEh]       1.52463609 [kcal/mol]       6.37907800 [kJ/mol]
      delta HF,r (2)               -0.63074015 [mEh]      -0.39579544 [kcal/mol]      -1.65600826 [kJ/mol]
      Induction (A<-B)             -0.60163114 [mEh]      -0.37752925 [kcal/mol]      -1.57958255 [kJ/mol]
      Induction (B<-A)             -1.50612539 [mEh]      -0.94510799 [kcal/mol]      -3.95433221 [kJ/mol]

    Dispersion                     -4.18440638 [mEh]      -2.62575475 [kcal/mol]     -10.98615895 [kJ/mol]
      Disp20                       -4.82122921 [mEh]      -3.02536713 [kcal/mol]     -12.65813730 [kJ/mol]
      Exch-Disp20                   0.63682283 [mEh]       0.39961238 [kcal/mol]       1.67197835 [kJ/mol]

  Total HF                         17.90723858 [mEh]      11.23696233 [kcal/mol]      47.01545490 [kJ/mol]
  Total SAPT0                      13.72283220 [mEh]       8.61120757 [kcal/mol]      36.02929595 [kJ/mol]

  --------------------------------------------------------------------------------------------------------
    Han Solo: This is *not* gonna work.
    Luke Skywalker: Why didn't you say so before?
    Han Solo: I *did* say so before.

*** tstop() called on ThinkPad-P50 at Mon Jan 15 18:36:54 2018
Module time:
	user time   =     518.50 seconds =       8.64 minutes
	system time =       2.41 seconds =       0.04 minutes
	total time  =        147 seconds =       2.45 minutes
Total time:
	user time   =     639.59 seconds =      10.66 minutes
	system time =       3.07 seconds =       0.05 minutes
	total time  =        187 seconds =       3.12 minutes

*** Psi4 exiting successfully. Buy a developer a beer!
