r0156.ten.osc.edu 10.25.154
Q-Chem Developer Version! Running on 10.25.154.*
                  Welcome to Q-Chem
     A Quantum Leap Into The Future Of Chemistry


 Q-Chem 5.0, Q-Chem, Inc., Pleasanton, CA (2017)

 Yihan Shao,  Zhengting Gan,  E. Epifanovsky,  A. T. B. Gilbert,  M. Wormit,  
 J. Kussmann,  A. W. Lange,  A. Behn,  Jia Deng,  Xintian Feng,  D. Ghosh,  
 M. Goldey,  P. R. Horn,  L. D. Jacobson,  I. Kaliman,  T. Kus,  A. Landau,  
 Jie Liu,  E. I. Proynov,  R. M. Richard,  R. P. Steele,  E. J. Sundstrom,  
 H. L. Woodcock III,  P. M. Zimmerman,  D. Zuev,  B. Albrecht,  E. Alguire,  
 S. A. Baeppler,  Z. Benda,  Y. A. Bernard,  E. J. Berquist,  K. B. Bravaya,  
 D. Casanova,  Chun-Min Chang,  Yunqing Chen,  A. Chien,  K. D. Closser,  
 M. P. Coons,  S. Dasgupta,  M. Diedenhofen,  Hainam Do,  R. G. Edgar,  
 Po-Tung Fang,  S. Fatehi,  Qingguo Feng,  Qinghui Ge,  A. Ghysels,  
 J. Gomes,  J. Gonthier,  A. Gunina,  M. W. D. Hanson-Heine,  
 P. H. P. Harbach,  A. W. Hauser,  J. E. Herr,  E. G. Hohenstein,  
 Z. C. Holden,  Kerwin Hui,  T.-C. Jagau,  Hyunjun Ji,  B. Kaduk,  
 K. Khistyaev,  Jaehoon Kim,  P. Klunzinger,  K. Koh,  D. Kosenkov,  
 T. Kowalczyk,  C. M. Krauter,  A. Kunitsa,  Ka Un Lao,  A. Laurent,  
 K. V. Lawler,  Joonho Lee,  D. Lefrancois,  S. Lehtola,  D. S. Levine,  
 Yi-Pei Li,  You-Sheng Lin,  Fenglai Liu,  E. Livshits,  A. Luenser,  
 P. Manohar,  E. Mansoor,  S. F. Manzer,  Shan-Ping Mao,  Yuezhi Mao,  
 N. Mardirossian,  A. V. Marenich,  L. A. Martinez-Martinez,  S. A. Maurer,  
 N. J. Mayhall,  S. C. McKenzie,  J.-M. Mewes,  A. F. Morrison,  K. Nanda,  
 T. S. Nguyen-Beck,  R. Olivares-Amaya,  J. A. Parkhill,  T. M. Perrine,  
 F. Plasser,  S. Prager,  A. Prociuk,  D. R. Rehn,  F. Rob,  M. Schneider,  
 N. Sergueev,  S. M. Sharada,  S. Sharma,  D. W. Small,  T. Stauch,  
 T. Stein,  Yu-Chuan Su,  A. J. W. Thom,  T. Tsuchimochi,  L. Vogt,  
 O. Vydrov,  M. A. Watson,  J. Wenzel,  M. de Wergifosse,  T. A. Wesolowski,  
 A. White,  J. Witte,  A. Yamada,  Jun Yang,  K. Yao,  S. Yeganeh,  
 S. R. Yost,  Zhi-Qiang You,  A. Zech,  Igor Ying Zhang,  Xing Zhang,  
 Yan Zhao,  Ying Zhu,  B. R. Brooks,  G. K. L. Chan,  C. J. Cramer,  
 M. S. Gordon,  W. J. Hehre,  A. Klamt,  M. W. Schmidt,  C. D. Sherrill,  
 D. G. Truhlar,  A. Aspuru-Guzik,  R. Baer,  A. T. Bell,  N. A. Besley,  
 Jeng-Da Chai,  A. Dreuw,  B. D. Dunietz,  T. R. Furlani,  Chao-Ping Hsu,  
 Yousung Jung,  Jing Kong,  D. S. Lambrecht,  WanZhen Liang,  C. Ochsenfeld,  
 V. A. Rassolov,  L. V. Slipchenko,  J. E. Subotnik,  T. Van Voorhis,  
 J. M. Herbert,  A. I. Krylov,  P. M. W. Gill,  M. Head-Gordon

 Contributors to earlier versions of Q-Chem not listed above: 
 R. D. Adamson,  B. Austin,  J. Baker,  G. J. O. Beran,  K. Brandhorst,  
 S. T. Brown,  E. F. C. Byrd,  A. K. Chakraborty,  C.-L. Cheng,  
 Siu Hung Chien,  D. M. Chipman,  D. L. Crittenden,  H. Dachsel,  
 R. A. DiStasio Jr.,  R. J. Doerksen,  A. D. Dutoi,  L. Fusti-Molnar,  
 W. A. Goddard III,  A. Golubeva-Zadorozhnaya,  S. R. Gwaltney,  G. Hawkins,  
 A. Heyden,  S. Hirata,  G. Kedziora,  F. J. Keil,  C. Kelley,  Jihan Kim,  
 R. A. King,  R. Z. Khaliullin,  P. P. Korambath,  W. Kurlancheek,  
 A. M. Lee,  M. S. Lee,  S. V. Levchenko,  Ching Yeh Lin,  D. Liotard,  
 R. C. Lochan,  I. Lotan,  P. E. Maslen,  N. Nair,  D. P. O'Neill,  
 D. Neuhauser,  E. Neuscamman,  C. M. Oana,  R. Olson,  B. Peters,  
 R. Peverati,  P. A. Pieniazek,  Y. M. Rhee,  J. Ritchie,  M. A. Rohrdanz,  
 E. Rosta,  N. J. Russ,  H. F. Schaefer III,  N. E. Schultz,  N. Shenvi,  
 A. C. Simmonett,  A. Sodt,  D. Stuck,  K. S. Thanthiriwatte,  V. Vanovschi,  
 Tao Wang,  A. Warshel,  C. F. Williams,  Q. Wu,  X. Xu,  W. Zhang

 Please cite Q-Chem as follows:
 Y. Shao et al., Mol. Phys. 113, 184-215 (2015)
 DOI: 10.1080/00268976.2014.952696

 Q-Chem 5.0.1 for Intel X86 EM64T Linux

 Parts of Q-Chem use Armadillo 5.200.1 (Boston Tea Smuggler).
 http://arma.sourceforge.net/

 Q-Chem begins on Sun Oct 15 23:08:45 2017  

Host: r0156.ten.osc.edu
0

     Scratch files written to /tmp/pbstmp.1310577/15//
Processing $rem in /users/PAS0291/osu6415/.qchemrc.
molden_format             true

Checking the input file for inconsistencies... 	...done.

--------------------------------------------------------------
User input:
--------------------------------------------------------------
$molecule
0 1
C -0.51421445 0.97670392 0.52317990
C 0.61494428 -0.09807133 0.68862186
C -1.73596980 0.50684613 -0.24919657
C 0.12763867 -1.52207253 0.46389428
O -2.85197246 0.64398316 0.49850990
O -1.74079948 0.13310345 -1.39467193
O 1.10885777 -2.37113756 0.11733086
O -1.00438602 -1.88071296 0.68427061
C 0.72578621 -3.75280210 -0.03264256
C -4.06962126 0.18337979 -0.11407441
C 0.24503169 2.05902105 -0.28913259
C 1.27062930 2.76340851 0.62502846
C 2.38068457 1.67737892 0.70907762
C 1.78327999 0.53552708 -0.16540438
O 1.06334377 1.28321074 -1.16288091
H -0.84977574 1.35064260 1.48881438
H 0.92681538 -0.11745525 1.73813220
H -0.05568813 -3.84828313 -0.78717026
H -4.28126603 0.74836043 -1.02357726
H 1.63893861 3.67370033 0.14986028
H 0.85031038 3.03461759 1.59579336
H 3.31143677 2.02818140 0.26038129
H 2.60081600 1.35494993 1.72876319
H 1.63026514 -4.26880421 -0.34699768
H 0.36320712 -4.15243480 0.91558001
H -4.84801076 0.34605060 0.62831861
H -3.98534099 -0.87652861 -0.35816372
H -0.39704325 2.71534878 -0.87273139
C 2.81337082 -0.34819739 -0.83451988
H 3.53123073 0.28832287 -1.35752608
H 3.34727139 -0.95079970 -0.09830817
H 2.34835084 -1.01898779 -1.55433868
$end

$rem
sym_ignore      true
jobtype         ts
method          b3lyp
basis           6-311++G(d,p)
dft_d           d3_op
mem_total       62000
MEM_STATIC      4000
ao2mo_disk      350000
max_scf_cycles  200
geom_opt_max_cycles 1000
geom_opt_tol_displacement 1
GEOM_OPT_TOL_GRADIENT       1
GEOM_OPT_TOL_ENERGY         1
$end

--------------------------------------------------------------
 Adding empirical dispersion correction 
 ----------------------------------------------------------------
 Doing -D3(op) with
 s6 =   1.00000
 s8 =   0.78311
 a1 =   0.30000
 a2 =   4.25000
 n  =  10.00000
 -D3 energy without 3body term =     -0.0352658099 hartrees
 ----------------------------------------------------------------
             Standard Nuclear Orientation (Angstroms)
    I     Atom           X                Y                Z
 ----------------------------------------------------------------
    1      C      -0.5142144500     0.9767039200     0.5231799000
    2      C       0.6149442800    -0.0980713300     0.6886218600
    3      C      -1.7359698000     0.5068461300    -0.2491965700
    4      C       0.1276386700    -1.5220725300     0.4638942800
    5      O      -2.8519724600     0.6439831600     0.4985099000
    6      O      -1.7407994800     0.1331034500    -1.3946719300
    7      O       1.1088577700    -2.3711375600     0.1173308600
    8      O      -1.0043860200    -1.8807129600     0.6842706100
    9      C       0.7257862100    -3.7528021000    -0.0326425600
   10      C      -4.0696212600     0.1833797900    -0.1140744100
   11      C       0.2450316900     2.0590210500    -0.2891325900
   12      C       1.2706293000     2.7634085100     0.6250284600
   13      C       2.3806845700     1.6773789200     0.7090776200
   14      C       1.7832799900     0.5355270800    -0.1654043800
   15      O       1.0633437700     1.2832107400    -1.1628809100
   16      H      -0.8497757400     1.3506426000     1.4888143800
   17      H       0.9268153800    -0.1174552500     1.7381322000
   18      H      -0.0556881300    -3.8482831300    -0.7871702600
   19      H      -4.2812660300     0.7483604300    -1.0235772600
   20      H       1.6389386100     3.6737003300     0.1498602800
   21      H       0.8503103800     3.0346175900     1.5957933600
   22      H       3.3114367700     2.0281814000     0.2603812900
   23      H       2.6008160000     1.3549499300     1.7287631900
   24      H       1.6302651400    -4.2688042100    -0.3469976800
   25      H       0.3632071200    -4.1524348000     0.9155800100
   26      H      -4.8480107600     0.3460506000     0.6283186100
   27      H      -3.9853409900    -0.8765286100    -0.3581637200
   28      H      -0.3970432500     2.7153487800    -0.8727313900
   29      C       2.8133708200    -0.3481973900    -0.8345198800
   30      H       3.5312307300     0.2883228700    -1.3575260800
   31      H       3.3472713900    -0.9507997000    -0.0983081700
   32      H       2.3483508400    -1.0189877900    -1.5543386800
 ----------------------------------------------------------------
 Nuclear Repulsion Energy =  1244.9771935840 hartrees
 There are       61 alpha and       61 beta electrons
 Requested basis set is 6-311++G(d,p)
 There are 176 shells and 464 basis functions

 Total QAlloc Memory Limit  62000 MB
 Mega-Array Size      3911 MB
 MEM_STATIC part      4000 MB
 A cutoff of  1.0D-11 yielded  12635 shell pairs
 There are     89446 function pairs (     95380 Cartesian)
 
 -------------------------------------------------------
 OpenMP Integral Computing Module                       
 Release: version 1.0, May 2013, Q-Chem Inc. Pittsburgh 
 -------------------------------------------------------
 Integral Job Info:
 Integral job number is                      11
 Integral operator is                         1
 short-range coefficients                     0
 long-range coefficients              100000000
 Omega coefficients                           0
 if combine SR and LR in K                    0
 Integral screening is                        0
 Integral computing path is                   2
 max size of driver memory is            800000
 size of driver memory is                593474
 size of scratch memory is              2361544
 max col of scratch BK array               1296
 max len of scratch array in speh3          155
 max len of scratch index in speh4           18
 max int batch size is                      520
 min int batch size is                       52
 fixed nKL is                                52
 max L of basis functions is                  2
 order of int derivative is                   0
 number of shells is                        176
 number of basis is                         480
 number of cartesian basis is               480
 number of contracted shell pairs         12635
 number of primitive shell pairs          28145
 maxK2 (contraction) of shell pair           36
 max number of K2 of shell pair               1
 max number of CS2 of shell pair           2379
 max number of PS2 of shell pair           4074
 mem total for path MDJ                  159320
 -------------------------------------------------------
 Smallest overlap matrix eigenvalue = 6.60E-07

 Q-Chem warning in module /fs/scratch/osu6415/qchem-kaunlao-vdw/stvman/mkSTV.C, line 281:

 Overlap eigenvalue is smaller than square root of threshold

 Linear dependence detected in AO basis
 Number of orthogonalized atomic orbitals = 463
 Maximum deviation from orthogonality = 8.957E-11

 Scale SEOQF with 1.000000e-01/1.000000e-01/1.000000e-01

 Standard Electronic Orientation quadrupole field applied
 Nucleus-field energy     =     0.0000000363 hartrees
 Guess from superposition of atomic densities
 Warning:  Energy on first SCF cycle will be non-variational
 A restricted hybrid HF-DFT SCF calculation will be
 performed using Pulay DIIS extrapolation
 Exchange:     0.2000 Hartree-Fock + 0.0800 Slater + 0.7200 B88
 Correlation:  0.1900 VWN1RPA + 0.8100 LYP
 Using SG-1 standard quadrature grid
 Dispersion:   Grimme D3
 SCF converges when DIIS error is below 1.0E-08
 using 20 threads for integral computing
 -------------------------------------------------------
 OpenMP Integral computing Module                
 Release: version 1.0, May 2013, Q-Chem Inc. Pittsburgh 
 -------------------------------------------------------
 -------------------------------------------------------
 OpenMP BLAS3 based DFT computing Module                
 Release: version 1.0, May 2013, Q-Chem Inc. Pittsburgh 
 -------------------------------------------------------
 ---------------------------------------
  Cycle       Energy         DIIS Error
 ---------------------------------------
    1    -808.4364426320      2.94E-02
    2    -804.8626370399      3.84E-03
    3    -804.3655437258      6.35E-03
    4    -805.1469615717      1.42E-03
    5    -805.1876111911      3.73E-04
    6    -805.1898363113      1.51E-04
    7    -805.1902733363      3.56E-05
    8    -805.1902976012      1.02E-05
    9    -805.1902999155      2.44E-06
   10    -805.1903000132      1.33E-06
   11    -805.1903000437      4.62E-07
   12    -805.1903000479      1.48E-07
   13    -805.1903000476      4.11E-08
   14    -805.1903000482      1.47E-08
   15    -805.1903000532      3.78E-09 Convergence criterion met
 ---------------------------------------
 SCF time:  CPU 932.19 s  wall 49.10 s
 SCF   energy in the final basis set = -805.19030005
 Total energy in the final basis set = -805.19030005
 
 --------------------------------------------------------------
 
                    Orbital Energies (a.u.)
 --------------------------------------------------------------
 
 Alpha MOs
 -- Occupied --
-19.178 -19.163 -19.126 -19.119 -19.103 -10.311 -10.296 -10.241
-10.232 -10.232 -10.218 -10.209 -10.198 -10.179 -10.178 -10.162
 -1.121  -1.103  -1.061  -1.032  -1.016  -0.828  -0.791  -0.780
 -0.745  -0.724  -0.692  -0.647  -0.601  -0.594  -0.569  -0.555
 -0.526  -0.513  -0.502  -0.490  -0.488  -0.485  -0.476  -0.466
 -0.456  -0.436  -0.426  -0.419  -0.413  -0.408  -0.390  -0.380
 -0.371  -0.368  -0.364  -0.359  -0.355  -0.349  -0.335  -0.326
 -0.318  -0.302  -0.292  -0.277  -0.264
 -- Virtual --
 -0.020  -0.007  -0.003   0.001   0.007   0.011   0.015   0.022
  0.026   0.031   0.034   0.039   0.044   0.047   0.050   0.055
  0.063   0.067   0.071   0.076   0.084   0.086   0.090   0.097
  0.102   0.104   0.107   0.108   0.110   0.115   0.119   0.123
  0.126   0.128   0.132   0.132   0.136   0.137   0.139   0.146
  0.149   0.149   0.153   0.156   0.157   0.162   0.164   0.168
  0.170   0.173   0.177   0.178   0.184   0.187   0.190   0.194
  0.198   0.200   0.201   0.206   0.212   0.219   0.221   0.223
  0.228   0.230   0.241   0.246   0.250   0.254   0.259   0.263
  0.267   0.271   0.278   0.281   0.290   0.293   0.295   0.306
  0.311   0.313   0.316   0.319   0.330   0.333   0.341   0.344
  0.348   0.351   0.357   0.360   0.363   0.367   0.371   0.373
  0.375   0.379   0.385   0.393   0.399   0.402   0.404   0.409
  0.418   0.426   0.429   0.441   0.443   0.454   0.463   0.470
  0.487   0.493   0.502   0.518   0.521   0.526   0.536   0.547
  0.555   0.572   0.584   0.587   0.594   0.609   0.616   0.622
  0.627   0.635   0.639   0.648   0.652   0.655   0.657   0.667
  0.675   0.678   0.689   0.692   0.696   0.704   0.717   0.718
  0.727   0.732   0.738   0.743   0.750   0.761   0.761   0.771
  0.774   0.779   0.786   0.800   0.807   0.816   0.831   0.845
  0.875   0.905   0.912   0.919   0.935   0.987   0.992   1.014
  1.027   1.036   1.042   1.064   1.071   1.074   1.112   1.124
  1.136   1.172   1.183   1.205   1.209   1.221   1.227   1.231
  1.235   1.253   1.261   1.275   1.290   1.298   1.310   1.328
  1.335   1.352   1.364   1.374   1.376   1.385   1.396   1.416
  1.435   1.441   1.443   1.459   1.464   1.478   1.502   1.508
  1.521   1.541   1.548   1.558   1.565   1.572   1.576   1.582
  1.588   1.597   1.607   1.617   1.631   1.633   1.657   1.675
  1.681   1.696   1.700   1.704   1.712   1.720   1.721   1.727
  1.741   1.747   1.756   1.770   1.778   1.781   1.808   1.812
  1.828   1.831   1.839   1.856   1.873   1.880   1.887   1.914
  1.936   1.942   1.960   1.984   1.988   2.005   2.017   2.039
  2.041   2.052   2.063   2.101   2.113   2.120   2.130   2.134
  2.155   2.173   2.177   2.186   2.199   2.209   2.230   2.244
  2.260   2.296   2.321   2.337   2.394   2.426   2.442   2.451
  2.457   2.463   2.492   2.501   2.512   2.515   2.522   2.530
  2.536   2.544   2.554   2.561   2.580   2.595   2.616   2.645
  2.657   2.660   2.668   2.688   2.699   2.732   2.753   2.779
  2.799   2.812   2.824   2.828   2.853   2.857   2.875   2.882
  2.901   2.908   2.932   2.947   2.959   2.978   3.008   3.029
  3.041   3.054   3.058   3.067   3.075   3.091   3.099   3.118
  3.146   3.151   3.171   3.184   3.185   3.221   3.231   3.254
  3.266   3.308   3.315   3.346   3.384   3.397   3.405   3.453
  3.575   3.608   3.618   3.657   3.666   3.731   3.774   3.791
  3.825   3.843   3.851   3.856   3.935   3.949   4.023   4.029
  4.055   4.117   4.127   4.131   4.156   4.179   4.204   4.262
  4.276   4.431   4.492   5.046   5.068   5.126   5.148   5.235
  5.287   5.293   5.398   5.415   5.509   5.628   5.633   5.659
  5.886   5.900  23.790  23.829  23.846  23.875  23.900  23.928
 23.942  23.952  23.969  23.995  24.042  49.906  49.919  49.981
 50.030  50.056
 --------------------------------------------------------------
 
          Ground-State Mulliken Net Atomic Charges

     Atom                 Charge (a.u.)
  ----------------------------------------
      1 C                     0.120058
      2 C                     0.336509
      3 C                    -0.768789
      4 C                    -0.754674
      5 O                     0.005030
      6 O                    -0.185031
      7 O                    -0.074072
      8 O                    -0.179526
      9 C                    -0.255326
     10 C                    -0.219246
     11 C                     0.343130
     12 C                    -0.507227
     13 C                    -0.429788
     14 C                    -0.065526
     15 O                    -0.036914
     16 H                     0.306861
     17 H                     0.239086
     18 H                     0.197538
     19 H                     0.166012
     20 H                     0.185153
     21 H                     0.119644
     22 H                     0.169576
     23 H                     0.145557
     24 H                     0.147518
     25 H                     0.177138
     26 H                     0.147215
     27 H                     0.184361
     28 H                     0.275605
     29 C                    -0.318825
     30 H                     0.154427
     31 H                     0.180973
     32 H                     0.193555
  ----------------------------------------
  Sum of atomic charges =     0.000000

 -----------------------------------------------------------------
                    Cartesian Multipole Moments
 -----------------------------------------------------------------
    Charge (ESU x 10^10)
                 0.0000
    Dipole Moment (Debye)
         X       1.4161      Y      -0.1497      Z       2.5046
       Tot       2.8811
    Quadrupole Moments (Debye-Ang)
        XX     -87.9365     XY      -3.9278     YY     -83.7871
        XZ       2.0267     YZ       3.1351     ZZ    -100.8886
    Octopole Moments (Debye-Ang^2)
       XXX     -54.7456    XXY      -0.1673    XYY       7.3840
       YYY     -44.7254    XXZ      -5.2915    XYZ       2.0967
       YYZ      -8.0668    XZZ       2.1921    YZZ      -7.7809
       ZZZ      10.3172
    Hexadecapole Moments (Debye-Ang^3)
      XXXX   -2024.9512   XXXY     -25.3590   XXYY    -690.3841
      XYYY     -72.4086   YYYY   -1646.0882   XXXZ      -3.9359
      XXYZ      -5.5830   XYYZ       7.0846   YYYZ      -7.0218
      XXZZ    -461.7620   XYZZ     -20.0967   YYZZ    -375.5307
      XZZZ      -5.2559   YZZZ      -0.4845   ZZZZ    -413.6160
 -----------------------------------------------------------------
 Calculating analytic gradient of the SCF energy
 Gradient of SCF Energy
            1           2           3           4           5           6
    1   0.0002885  -0.0000613   0.0000895  -0.0001706  -0.0000297  -0.0000987
    2   0.0005361  -0.0001400  -0.0010091  -0.0000260  -0.0000024   0.0006183
    3  -0.0007670   0.0005191   0.0002807  -0.0001913  -0.0000040  -0.0001284
            7           8           9          10          11          12
    1  -0.0000030   0.0000973   0.0000745   0.0000142  -0.0001184  -0.0000456
    2  -0.0000392   0.0000008   0.0000632   0.0000268  -0.0000081  -0.0000876
    3   0.0000412   0.0001074  -0.0000393   0.0000376   0.0002854   0.0000317
           13          14          15          16          17          18
    1   0.0000398   0.0000101   0.0000041  -0.0000683  -0.0000400  -0.0000221
    2  -0.0000260  -0.0000187   0.0000221   0.0000057   0.0000403  -0.0000028
    3  -0.0000483   0.0001928  -0.0001556  -0.0000289   0.0000084   0.0000013
           19          20          21          22          23          24
    1   0.0000112  -0.0000121   0.0000200   0.0000171  -0.0000516  -0.0000053
    2  -0.0000120  -0.0000195   0.0000725   0.0000137  -0.0000258   0.0000068
    3  -0.0000478  -0.0000338   0.0000020   0.0000723   0.0000114  -0.0000058
           25          26          27          28          29          30
    1  -0.0000202   0.0000078   0.0000022   0.0000317   0.0000477   0.0000020
    2  -0.0000136  -0.0000021  -0.0000032   0.0000223  -0.0000990   0.0000270
    3  -0.0000115  -0.0000383  -0.0000543  -0.0000249  -0.0000227   0.0000257
           31          32
    1  -0.0000130   0.0000022
    2   0.0000152   0.0000643
    3   0.0000059  -0.0000208
 Max gradient component =       1.009E-03
 RMS gradient           =       1.797E-04
 Gradient time:  CPU 306.79 s  wall 22.33 s
 Geometry Optimization Parameters
   NAtoms,    NIC,     NZ,  NCons,   NDum,   NFix, NCnnct, MaxDiis
       32     251       0       0       0       0       0       0


** GEOMETRY OPTIMIZATION IN DELOCALIZED INTERNAL COORDINATES **
   Searching for a Transition State

   Optimization Cycle:   1

                       Coordinates (Angstroms)
     ATOM                X               Y               Z
      1  C        -0.5142144500    0.9767039200    0.5231799000
      2  C         0.6149442800   -0.0980713300    0.6886218600
      3  C        -1.7359698000    0.5068461300   -0.2491965700
      4  C         0.1276386700   -1.5220725300    0.4638942800
      5  O        -2.8519724600    0.6439831600    0.4985099000
      6  O        -1.7407994800    0.1331034500   -1.3946719300
      7  O         1.1088577700   -2.3711375600    0.1173308600
      8  O        -1.0043860200   -1.8807129600    0.6842706100
      9  C         0.7257862100   -3.7528021000   -0.0326425600
     10  C        -4.0696212600    0.1833797900   -0.1140744100
     11  C         0.2450316900    2.0590210500   -0.2891325900
     12  C         1.2706293000    2.7634085100    0.6250284600
     13  C         2.3806845700    1.6773789200    0.7090776200
     14  C         1.7832799900    0.5355270800   -0.1654043800
     15  O         1.0633437700    1.2832107400   -1.1628809100
     16  H        -0.8497757400    1.3506426000    1.4888143800
     17  H         0.9268153800   -0.1174552500    1.7381322000
     18  H        -0.0556881300   -3.8482831300   -0.7871702600
     19  H        -4.2812660300    0.7483604300   -1.0235772600
     20  H         1.6389386100    3.6737003300    0.1498602800
     21  H         0.8503103800    3.0346175900    1.5957933600
     22  H         3.3114367700    2.0281814000    0.2603812900
     23  H         2.6008160000    1.3549499300    1.7287631900
     24  H         1.6302651400   -4.2688042100   -0.3469976800
     25  H         0.3632071200   -4.1524348000    0.9155800100
     26  H        -4.8480107600    0.3460506000    0.6283186100
     27  H        -3.9853409900   -0.8765286100   -0.3581637200
     28  H        -0.3970432500    2.7153487800   -0.8727313900
     29  C         2.8133708200   -0.3481973900   -0.8345198800
     30  H         3.5312307300    0.2883228700   -1.3575260800
     31  H         3.3472713900   -0.9507997000   -0.0983081700
     32  H         2.3483508400   -1.0189877900   -1.5543386800
   Point Group: c1    Number of degrees of freedom:    90


   Energy is   -805.190300053


 Attempting to Generate Delocalized Internal Coordinates

 90 Hessian modes will be used to form the next step
  Hessian Eigenvalues:
     0.002954    0.006301    0.006550    0.007055    0.007433    0.010141
     0.010494    0.010516    0.010846    0.022074    0.022219    0.023178
     0.025055    0.033561    0.035775    0.036755    0.039384    0.044865
     0.048345    0.049904    0.053283    0.054679    0.055220    0.057372
     0.057845    0.060348    0.063834    0.064723    0.065964    0.074275
     0.082978    0.093322    0.097222    0.101289    0.101446    0.102508
     0.106050    0.106056    0.121876    0.125904    0.155836    0.160000
     0.160000    0.160000    0.160000    0.160000    0.160000    0.160000
     0.160000    0.160000    0.174171    0.230999    0.237621    0.249118
     0.249204    0.249616    0.250000    0.250000    0.250000    0.250000
     0.253957    0.266101    0.276679    0.301978    0.303787    0.310311
     0.337265    0.342367    0.345013    0.345750    0.345976    0.346493
     0.346758    0.346965    0.347023    0.347075    0.347086    0.347581
     0.349839    0.350127    0.350518    0.350579    0.350761    0.353017
     0.393657    0.397534    0.549558    0.565248    1.010217    1.023916
**WARNING** Hessian does not have the Desired Local Structure

 Transition State Search - Taking P-RFO Step
 Searching for Lamda that Maximizes Along the Lowest mode
 Value Taken    Lamda =   0.00295419
 Searching for Lamda that Minimizes Along All other modes
 Value Taken    Lamda =  -0.00005860
 Calculated Step too Large.  Step scaled by  0.000042
 Step Taken.  Stepsize is  0.300000

                             Maximum     Tolerance    Cnvgd?
         Gradient           0.000391      0.000001      NO
         Displacement       0.097048      0.000001      NO
         Energy change     *********      0.000000      NO


 New Cartesian Coordinates Obtained by Inverse Iteration

 Displacement from previous Coordinates is:  0.735249
 Adding empirical dispersion correction 
 ----------------------------------------------------------------
 Doing -D3(op) with
 s6 =   1.00000
 s8 =   0.78311
 a1 =   0.30000
 a2 =   4.25000
 n  =  10.00000
 -D3 energy without 3body term =     -0.0352350771 hartrees
 ----------------------------------------------------------------
             Standard Nuclear Orientation (Angstroms)
    I     Atom           X                Y                Z
 ----------------------------------------------------------------
    1      C      -0.5056204439     0.9713739800     0.5114526790
    2      C       0.6149090503    -0.1119325916     0.6825353244
    3      C      -1.7446078056     0.4984691115    -0.2310358302
    4      C       0.1243253569    -1.5296328520     0.4271879836
    5      O      -2.8464878226     0.6610079058     0.5323612054
    6      O      -1.7722920380     0.1025388102    -1.3687060376
    7      O       1.1070519439    -2.3784326483     0.0842653792
    8      O      -1.0131408149    -1.8856020940     0.6224447230
    9      C       0.7196106302    -3.7555241406    -0.0938946800
   10      C      -4.0785842779     0.2004285052    -0.0506384068
   11      C       0.2489556569     2.0337532081    -0.3329957169
   12      C       1.2568195510     2.7814837295     0.5643508411
   13      C       2.3526237977     1.6911804018     0.7344008993
   14      C       1.7982291915     0.5285945367    -0.1431598990
   15      O       1.0906292297     1.2446780931    -1.1719592198
   16      H      -0.8222903814     1.3670578524     1.4747988725
   17      H       0.9084782144    -0.1488422033     1.7368436760
   18      H      -0.0492031419    -3.8350572198    -0.8631350149
   19      H      -4.3002318210     0.7496110409    -0.9674060842
   20      H       1.6447950738     3.6600828486     0.0470440406
   21      H       0.8167016389     3.1105698046     1.5080697768
   22      H       3.3098730814     2.0257562093     0.3313831924
   23      H       2.5127532477     1.3927028968     1.7724022005
   24      H       1.6267458401    -4.2713974628    -0.4007169110
   25      H       0.3386985005    -4.1679350857     0.8415833231
   26      H      -4.8427637551     0.3851051424     0.7013081805
   27      H      -4.0084098136    -0.8648055316    -0.2752281702
   28      H      -0.3949382186     2.6616151399    -0.9452080552
   29      C       2.8611112822    -0.3473752876    -0.7698417379
   30      H       3.5833122737     0.2934549872    -1.2814848389
   31      H       3.3833529538    -0.9306556918    -0.0100821350
   32      H       2.4277148797    -1.0358214750    -1.4927192201
 ----------------------------------------------------------------
 Nuclear Repulsion Energy =  1244.9291843239 hartrees
 There are       61 alpha and       61 beta electrons
 Applying Cartesian multipole field
    Component          Value
    ---------          -----
     (2,0,0)        1.00000E-11
     (0,2,0)        2.00000E-11
     (0,0,2)       -3.00000E-11
 Nucleus-field energy     =     0.0000000367 hartrees
 Requested basis set is 6-311++G(d,p)
 There are 176 shells and 464 basis functions
 A cutoff of  1.0D-11 yielded  12637 shell pairs
 There are     89474 function pairs (     95408 Cartesian)
 Smallest overlap matrix eigenvalue = 6.41E-07

 Q-Chem warning in module /fs/scratch/osu6415/qchem-kaunlao-vdw/stvman/mkSTV.C, line 281:

 Overlap eigenvalue is smaller than square root of threshold

 Linear dependence detected in AO basis
 Number of orthogonalized atomic orbitals = 463
 Maximum deviation from orthogonality = 8.838E-11
 Guess MOs from SCF MO coefficient file
 Reading MOs from coefficient file
 Reading MOs from coefficient file
 A restricted hybrid HF-DFT SCF calculation will be
 performed using Pulay DIIS extrapolation
 Exchange:     0.2000 Hartree-Fock + 0.0800 Slater + 0.7200 B88
 Correlation:  0.1900 VWN1RPA + 0.8100 LYP
 Using SG-1 standard quadrature grid
 Dispersion:   Grimme D3
 SCF converges when DIIS error is below 1.0E-08
 Geometry optimization detected.  Setting ReadMinima to 0
 Setting SaveMinima to 0
 using 20 threads for integral computing
 -------------------------------------------------------
 OpenMP Integral computing Module                
 Release: version 1.0, May 2013, Q-Chem Inc. Pittsburgh 
 -------------------------------------------------------
 -------------------------------------------------------
 OpenMP BLAS3 based DFT computing Module                
 Release: version 1.0, May 2013, Q-Chem Inc. Pittsburgh 
 -------------------------------------------------------
 ---------------------------------------
  Cycle       Energy         DIIS Error
 ---------------------------------------
    1    -805.1649420560      1.07E-03
    2    -805.1895637924      1.42E-04
    3    -805.1893362558      1.79E-04
    4    -805.1900823959      3.78E-05
    5    -805.1901041178      1.78E-05
    6    -805.1901100981      4.16E-06
    7    -805.1901104240      1.73E-06
    8    -805.1901104810      5.58E-07
    9    -805.1901104868      1.47E-07
   10    -805.1901104878      6.40E-08
   11    -805.1901104878      2.14E-08
   12    -805.1901104863      5.55E-09 Convergence criterion met
 ---------------------------------------
 SCF time:  CPU 770.67 s  wall 42.38 s
 SCF   energy in the final basis set = -805.19011049
 Total energy in the final basis set = -805.19011049
 
 --------------------------------------------------------------
 
                    Orbital Energies (a.u.)
 --------------------------------------------------------------
 
 Alpha MOs
 -- Occupied --
-19.178 -19.163 -19.126 -19.118 -19.102 -10.311 -10.296 -10.242
-10.232 -10.232 -10.218 -10.209 -10.198 -10.179 -10.178 -10.162
 -1.121  -1.103  -1.061  -1.031  -1.016  -0.828  -0.791  -0.780
 -0.745  -0.724  -0.692  -0.647  -0.601  -0.593  -0.569  -0.555
 -0.526  -0.512  -0.502  -0.489  -0.489  -0.485  -0.476  -0.466
 -0.456  -0.436  -0.426  -0.418  -0.413  -0.408  -0.389  -0.380
 -0.371  -0.368  -0.364  -0.359  -0.355  -0.349  -0.334  -0.326
 -0.318  -0.301  -0.292  -0.277  -0.265
 -- Virtual --
 -0.020  -0.007  -0.003   0.001   0.007   0.011   0.015   0.022
  0.026   0.031   0.034   0.039   0.044   0.047   0.050   0.055
  0.062   0.066   0.071   0.076   0.084   0.085   0.090   0.098
  0.102   0.104   0.106   0.108   0.110   0.116   0.119   0.122
  0.125   0.128   0.131   0.132   0.135   0.137   0.139   0.145
  0.149   0.149   0.153   0.156   0.158   0.162   0.165   0.168
  0.171   0.173   0.177   0.178   0.184   0.187   0.190   0.194
  0.198   0.199   0.201   0.205   0.212   0.220   0.222   0.224
  0.229   0.232   0.242   0.247   0.248   0.255   0.260   0.262
  0.267   0.269   0.279   0.281   0.289   0.292   0.295   0.306
  0.309   0.313   0.318   0.320   0.331   0.334   0.340   0.344
  0.348   0.352   0.358   0.361   0.363   0.366   0.371   0.374
  0.375   0.380   0.383   0.393   0.399   0.401   0.404   0.408
  0.419   0.426   0.428   0.441   0.443   0.454   0.464   0.471
  0.489   0.491   0.503   0.517   0.522   0.525   0.536   0.548
  0.555   0.573   0.583   0.586   0.593   0.608   0.617   0.623
  0.628   0.636   0.639   0.648   0.651   0.651   0.657   0.668
  0.675   0.676   0.687   0.693   0.696   0.704   0.716   0.717
  0.727   0.730   0.737   0.745   0.751   0.760   0.762   0.769
  0.774   0.779   0.787   0.800   0.807   0.818   0.833   0.845
  0.878   0.901   0.909   0.919   0.936   0.990   0.993   1.014
  1.027   1.035   1.042   1.065   1.071   1.077   1.112   1.121
  1.138   1.170   1.183   1.204   1.212   1.218   1.228   1.230
  1.241   1.257   1.262   1.271   1.292   1.300   1.309   1.328
  1.335   1.354   1.363   1.372   1.383   1.389   1.394   1.415
  1.436   1.439   1.442   1.460   1.467   1.478   1.504   1.509
  1.521   1.542   1.548   1.555   1.568   1.572   1.577   1.581
  1.588   1.596   1.605   1.613   1.631   1.634   1.654   1.674
  1.680   1.694   1.702   1.707   1.712   1.719   1.721   1.727
  1.741   1.746   1.754   1.770   1.781   1.783   1.808   1.812
  1.831   1.834   1.846   1.857   1.870   1.881   1.886   1.914
  1.933   1.943   1.955   1.984   1.989   2.004   2.019   2.035
  2.040   2.050   2.065   2.100   2.108   2.120   2.132   2.135
  2.152   2.171   2.182   2.187   2.199   2.208   2.231   2.244
  2.261   2.299   2.318   2.337   2.394   2.429   2.443   2.451
  2.458   2.463   2.492   2.501   2.511   2.515   2.522   2.528
  2.538   2.544   2.554   2.562   2.581   2.596   2.615   2.644
  2.657   2.660   2.668   2.688   2.700   2.733   2.750   2.778
  2.801   2.817   2.823   2.824   2.853   2.858   2.876   2.883
  2.901   2.905   2.932   2.947   2.955   2.977   3.011   3.029
  3.042   3.046   3.059   3.067   3.078   3.084   3.100   3.117
  3.146   3.154   3.177   3.180   3.183   3.222   3.230   3.256
  3.264   3.305   3.310   3.342   3.385   3.397   3.406   3.452
  3.577   3.609   3.617   3.654   3.666   3.735   3.775   3.791
  3.824   3.843   3.851   3.857   3.933   3.948   4.023   4.028
  4.056   4.120   4.124   4.129   4.157   4.181   4.205   4.264
  4.277   4.431   4.494   5.044   5.066   5.122   5.158   5.230
  5.290   5.292   5.397   5.415   5.508   5.629   5.630   5.661
  5.885   5.903  23.789  23.830  23.847  23.878  23.901  23.928
 23.942  23.951  23.968  23.995  24.043  49.906  49.919  49.981
 50.031  50.056
 --------------------------------------------------------------
 
          Ground-State Mulliken Net Atomic Charges

     Atom                 Charge (a.u.)
  ----------------------------------------
      1 C                     0.168592
      2 C                     0.272866
      3 C                    -0.754452
      4 C                    -0.773952
      5 O                     0.002156
      6 O                    -0.189198
      7 O                    -0.073373
      8 O                    -0.177822
      9 C                    -0.255342
     10 C                    -0.217434
     11 C                     0.334619
     12 C                    -0.532902
     13 C                    -0.388269
     14 C                    -0.027940
     15 O                    -0.042377
     16 H                     0.308225
     17 H                     0.234062
     18 H                     0.198342
     19 H                     0.165734
     20 H                     0.185530
     21 H                     0.118629
     22 H                     0.169034
     23 H                     0.146596
     24 H                     0.146933
     25 H                     0.176836
     26 H                     0.147070
     27 H                     0.184371
     28 H                     0.277067
     29 C                    -0.331186
     30 H                     0.154951
     31 H                     0.178892
     32 H                     0.193742
  ----------------------------------------
  Sum of atomic charges =    -0.000000

 -----------------------------------------------------------------
                    Cartesian Multipole Moments
 -----------------------------------------------------------------
    Charge (ESU x 10^10)
                -0.0000
    Dipole Moment (Debye)
         X       1.4182      Y      -0.0940      Z       2.5330
       Tot       2.9045
    Quadrupole Moments (Debye-Ang)
        XX     -88.0304     XY      -3.9760     YY     -83.8068
        XZ       1.7497     YZ       2.9196     ZZ    -100.7381
    Octopole Moments (Debye-Ang^2)
       XXX     -54.6525    XXY       0.5626    XYY       7.5466
       YYY     -43.9370    XXZ      -3.5256    XYZ       2.6930
       YYZ      -8.6360    XZZ       1.8215    YZZ      -7.3347
       ZZZ      10.9277
    Hexadecapole Moments (Debye-Ang^3)
      XXXX   -2037.5475   XXXY     -24.9603   XXYY    -693.8525
      XYYY     -70.0522   YYYY   -1650.9485   XXXZ      -2.2043
      XXYZ      -8.0066   XYYZ       7.5605   YYYZ     -11.4011
      XXZZ    -463.3377   XYZZ     -19.5705   YYZZ    -372.3438
      XZZZ       1.4986   YZZZ      -7.7618   ZZZZ    -402.1855
 -----------------------------------------------------------------
 Calculating analytic gradient of the SCF energy
 Gradient of SCF Energy
            1           2           3           4           5           6
    1   0.0009650  -0.0007239  -0.0000557  -0.0000182   0.0000124  -0.0001239
    2   0.0012288  -0.0006645  -0.0008258   0.0003209   0.0001645  -0.0006581
    3   0.0000143  -0.0005414   0.0007823  -0.0000410  -0.0002158   0.0002083
            7           8           9          10          11          12
    1  -0.0000047  -0.0005015   0.0000984   0.0001029  -0.0009507   0.0004358
    2  -0.0000790   0.0003967   0.0000586   0.0001087  -0.0015173   0.0008467
    3   0.0001261  -0.0007338  -0.0000257   0.0000969   0.0002852  -0.0009085
           13          14          15          16          17          18
    1  -0.0006547   0.0016735   0.0002706  -0.0002041  -0.0000643  -0.0000148
    2  -0.0008572   0.0010251   0.0002167  -0.0000997   0.0000209  -0.0000101
    3   0.0005367   0.0001184   0.0003129   0.0000577  -0.0000136   0.0000035
           19          20          21          22          23          24
    1  -0.0000327   0.0000210  -0.0000261  -0.0000738  -0.0001599  -0.0000112
    2  -0.0000154   0.0001319   0.0001680  -0.0001632   0.0000388   0.0000111
    3  -0.0000692   0.0002205  -0.0000380  -0.0001098   0.0001357  -0.0000078
           25          26          27          28          29          30
    1  -0.0000224   0.0000218  -0.0000503   0.0001225   0.0003295  -0.0000696
    2  -0.0000151  -0.0000358  -0.0000100   0.0001368  -0.0000808   0.0000206
    3  -0.0000147  -0.0000369  -0.0000417  -0.0000112   0.0002373  -0.0000992
           31          32
    1  -0.0001797  -0.0001110
    2   0.0001983  -0.0000613
    3  -0.0000938  -0.0001340
 Max gradient component =       1.673E-03
 RMS gradient           =       4.310E-04
 Gradient time:  CPU 309.69 s  wall 22.12 s
 Geometry Optimization Parameters
   NAtoms,    NIC,     NZ,  NCons,   NDum,   NFix, NCnnct, MaxDiis
       32     251       0       0       0       0       0       0

 Cartesian Hessian Update
 Hessian Updated using Powell/Murtagh-Sargent Update
  Mixing factors:     0.000033 Powell
                      0.999967 Murtagh-Sargent


** GEOMETRY OPTIMIZATION IN DELOCALIZED INTERNAL COORDINATES **
   Searching for a Transition State

   Optimization Cycle:   2

                       Coordinates (Angstroms)
     ATOM                X               Y               Z
      1  C        -0.5056204439    0.9713739800    0.5114526790
      2  C         0.6149090503   -0.1119325916    0.6825353244
      3  C        -1.7446078056    0.4984691115   -0.2310358302
      4  C         0.1243253569   -1.5296328520    0.4271879836
      5  O        -2.8464878226    0.6610079058    0.5323612054
      6  O        -1.7722920380    0.1025388102   -1.3687060376
      7  O         1.1070519439   -2.3784326483    0.0842653792
      8  O        -1.0131408149   -1.8856020940    0.6224447230
      9  C         0.7196106302   -3.7555241406   -0.0938946800
     10  C        -4.0785842779    0.2004285052   -0.0506384068
     11  C         0.2489556569    2.0337532081   -0.3329957169
     12  C         1.2568195510    2.7814837295    0.5643508411
     13  C         2.3526237977    1.6911804018    0.7344008993
     14  C         1.7982291915    0.5285945367   -0.1431598990
     15  O         1.0906292297    1.2446780931   -1.1719592198
     16  H        -0.8222903814    1.3670578524    1.4747988725
     17  H         0.9084782144   -0.1488422033    1.7368436760
     18  H        -0.0492031419   -3.8350572198   -0.8631350149
     19  H        -4.3002318210    0.7496110409   -0.9674060842
     20  H         1.6447950738    3.6600828486    0.0470440406
     21  H         0.8167016389    3.1105698046    1.5080697768
     22  H         3.3098730814    2.0257562093    0.3313831924
     23  H         2.5127532477    1.3927028968    1.7724022005
     24  H         1.6267458401   -4.2713974628   -0.4007169110
     25  H         0.3386985005   -4.1679350857    0.8415833231
     26  H        -4.8427637551    0.3851051424    0.7013081805
     27  H        -4.0084098136   -0.8648055316   -0.2752281702
     28  H        -0.3949382186    2.6616151399   -0.9452080552
     29  C         2.8611112822   -0.3473752876   -0.7698417379
     30  H         3.5833122737    0.2934549872   -1.2814848389
     31  H         3.3833529538   -0.9306556918   -0.0100821350
     32  H         2.4277148797   -1.0358214750   -1.4927192201
   Point Group: c1    Number of degrees of freedom:    90


   Energy is   -805.190110486

 Hessian Updated using Powell/Murtagh-Sargent Update
  Mixing factors:     0.989427 Powell
                      0.010573 Murtagh-Sargent

 90 Hessian modes will be used to form the next step
  Hessian Eigenvalues:
    -0.001424    0.006375    0.006929    0.007429    0.009078    0.010142
     0.010516    0.010655    0.012716    0.022120    0.022220    0.023181
     0.025120    0.033688    0.035787    0.036778    0.039446    0.044867
     0.048404    0.049927    0.053449    0.054693    0.055222    0.057372
     0.057845    0.060350    0.063946    0.064832    0.066069    0.074304
     0.083101    0.093337    0.097320    0.101289    0.101447    0.102551
     0.106050    0.106057    0.122392    0.125958    0.156287    0.160000
     0.160000    0.160000    0.160000    0.160000    0.160000    0.160000
     0.160000    0.160006    0.174273    0.231005    0.237707    0.249131
     0.249226    0.249633    0.250000    0.250000    0.250000    0.250081
     0.254084    0.266126    0.276679    0.301996    0.303787    0.310312
     0.337295    0.342367    0.345013    0.345750    0.345977    0.346493
     0.346758    0.346965    0.347030    0.347075    0.347086    0.347581
     0.349840    0.350132    0.350518    0.350579    0.350761    0.353029
     0.393657    0.397535    0.549558    0.565248    1.010226    1.023917

 Transition State Search - Taking P-RFO Step
 Searching for Lamda that Maximizes Along the Lowest mode
 Value Taken    Lamda =   0.00000132
 Searching for Lamda that Minimizes Along All other modes
 Value Taken    Lamda =  -0.00036414
 Step Taken.  Stepsize is  0.144482

                             Maximum     Tolerance    Cnvgd?
         Gradient           0.001954      0.000001      NO
         Displacement       0.053150      0.000001      NO
         Energy change      0.000190      0.000000      NO


 New Cartesian Coordinates Obtained by Inverse Iteration

 Displacement from previous Coordinates is:  0.431053
 Adding empirical dispersion correction 
 ----------------------------------------------------------------
 Doing -D3(op) with
 s6 =   1.00000
 s8 =   0.78311
 a1 =   0.30000
 a2 =   4.25000
 n  =  10.00000
 -D3 energy without 3body term =     -0.0352082438 hartrees
 ----------------------------------------------------------------
             Standard Nuclear Orientation (Angstroms)
    I     Atom           X                Y                Z
 ----------------------------------------------------------------
    1      C      -0.5123527853     0.9735376663     0.5187483311
    2      C       0.6119660319    -0.1086224880     0.6833278469
    3      C      -1.7454000786     0.5173391502    -0.2436960095
    4      C       0.1268713598    -1.5318701410     0.4468361197
    5      O      -2.8526186573     0.6488630507     0.5179974635
    6      O      -1.7640420547     0.1563635571    -1.3931317078
    7      O       1.1089813580    -2.3730587974     0.0840040507
    8      O      -0.9960195416    -1.9021026986     0.6929183668
    9      C       0.7339624390    -3.7574893015    -0.0612899068
   10      C      -4.0775456535     0.1974710725    -0.0871244910
   11      C       0.2449016061     2.0467553296    -0.3102435624
   12      C       1.2647500608     2.7727224850     0.5912802629
   13      C       2.3615640664     1.6791419107     0.7246837846
   14      C       1.7855827297     0.5294456209    -0.1566371955
   15      O       1.0712092400     1.2624915355    -1.1687706458
   16      H      -0.8326581179     1.3578640245     1.4854006342
   17      H       0.9183893464    -0.1397917336     1.7341952401
   18      H      -0.0572733260    -3.8584185462    -0.8048224450
   19      H      -4.2967611928     0.7727183041    -0.9883223057
   20      H       1.6484412402     3.6592510312     0.0844488107
   21      H       0.8376851212     3.0852795793     1.5465293859
   22      H       3.3129464736     2.0174139816     0.3108489007
   23      H       2.5384353846     1.3649922207     1.7552415446
   24      H       1.6377624160    -4.2666539421    -0.3885564976
   25      H       0.3879184726    -4.1600702963     0.8918450623
   26      H      -4.8482221986     0.3539245351     0.6646280062
   27      H      -3.9978302260    -0.8599173157    -0.3433525965
   28      H      -0.4001327102     2.6877127238    -0.9074671661
   29      C       2.8340037450    -0.3488791718    -0.8039754252
   30      H       3.5553186297     0.2909449383    -1.3180809895
   31      H       3.3611274000    -0.9431550931    -0.0557949984
   32      H       2.3871604817    -1.0277532718    -1.5274475283
 ----------------------------------------------------------------
 Nuclear Repulsion Energy =  1243.9465211485 hartrees
 There are       61 alpha and       61 beta electrons
 Applying Cartesian multipole field
    Component          Value
    ---------          -----
     (2,0,0)        1.00000E-11
     (0,2,0)        2.00000E-11
     (0,0,2)       -3.00000E-11
 Nucleus-field energy     =     0.0000000365 hartrees
 Requested basis set is 6-311++G(d,p)
 There are 176 shells and 464 basis functions
 A cutoff of  1.0D-11 yielded  12638 shell pairs
 There are     89456 function pairs (     95390 Cartesian)
 Smallest overlap matrix eigenvalue = 6.57E-07

 Q-Chem warning in module /fs/scratch/osu6415/qchem-kaunlao-vdw/stvman/mkSTV.C, line 281:

 Overlap eigenvalue is smaller than square root of threshold

 Linear dependence detected in AO basis
 Number of orthogonalized atomic orbitals = 463
 Maximum deviation from orthogonality = 1.873E-10
 Guess MOs from SCF MO coefficient file
 Reading MOs from coefficient file
 Reading MOs from coefficient file
 A restricted hybrid HF-DFT SCF calculation will be
 performed using Pulay DIIS extrapolation
 Exchange:     0.2000 Hartree-Fock + 0.0800 Slater + 0.7200 B88
 Correlation:  0.1900 VWN1RPA + 0.8100 LYP
 Using SG-1 standard quadrature grid
 Dispersion:   Grimme D3
 SCF converges when DIIS error is below 1.0E-08
 Geometry optimization detected.  Setting ReadMinima to 0
 Setting SaveMinima to 0
 using 20 threads for integral computing
 -------------------------------------------------------
 OpenMP Integral computing Module                
 Release: version 1.0, May 2013, Q-Chem Inc. Pittsburgh 
 -------------------------------------------------------
 -------------------------------------------------------
 OpenMP BLAS3 based DFT computing Module                
 Release: version 1.0, May 2013, Q-Chem Inc. Pittsburgh 
 -------------------------------------------------------
 ---------------------------------------
  Cycle       Energy         DIIS Error
 ---------------------------------------
    1    -805.1943595153      7.54E-04
    2    -805.1900088007      7.37E-05
    3    -805.1899666322      9.44E-05
    4    -805.1901584746      2.78E-05
    5    -805.1901703630      1.20E-05
    6    -805.1901733024      2.41E-06
    7    -805.1901734210      1.10E-06
    8    -805.1901734441      3.86E-07
    9    -805.1901734472      1.38E-07
   10    -805.1901734473      4.03E-08
   11    -805.1901734466      1.79E-08
   12    -805.1901734486      3.23E-09 Convergence criterion met
 ---------------------------------------
 SCF time:  CPU 753.87 s  wall 40.45 s
 SCF   energy in the final basis set = -805.19017345
 Total energy in the final basis set = -805.19017345
 
 --------------------------------------------------------------
 
                    Orbital Energies (a.u.)
 --------------------------------------------------------------
 
 Alpha MOs
 -- Occupied --
-19.178 -19.164 -19.126 -19.118 -19.104 -10.311 -10.296 -10.241
-10.232 -10.232 -10.219 -10.209 -10.199 -10.179 -10.178 -10.162
 -1.121  -1.104  -1.061  -1.031  -1.017  -0.828  -0.791  -0.780
 -0.745  -0.724  -0.692  -0.647  -0.601  -0.593  -0.569  -0.555
 -0.526  -0.513  -0.502  -0.490  -0.488  -0.485  -0.476  -0.467
 -0.456  -0.436  -0.426  -0.419  -0.413  -0.408  -0.391  -0.380
 -0.371  -0.368  -0.364  -0.359  -0.355  -0.349  -0.335  -0.326
 -0.318  -0.303  -0.292  -0.277  -0.264
 -- Virtual --
 -0.020  -0.007  -0.003   0.001   0.006   0.011   0.015   0.022
  0.026   0.031   0.034   0.039   0.044   0.047   0.050   0.055
  0.063   0.066   0.071   0.076   0.084   0.085   0.090   0.097
  0.102   0.104   0.106   0.108   0.110   0.115   0.119   0.122
  0.126   0.127   0.131   0.132   0.135   0.137   0.139   0.145
  0.149   0.149   0.152   0.156   0.158   0.162   0.164   0.168
  0.171   0.173   0.177   0.178   0.184   0.187   0.189   0.194
  0.198   0.199   0.201   0.205   0.211   0.220   0.221   0.223
  0.228   0.231   0.242   0.246   0.249   0.254   0.260   0.262
  0.267   0.270   0.279   0.281   0.290   0.293   0.295   0.307
  0.310   0.312   0.318   0.319   0.330   0.334   0.340   0.343
  0.347   0.352   0.357   0.360   0.363   0.367   0.371   0.374
  0.374   0.378   0.384   0.392   0.398   0.402   0.403   0.408
  0.418   0.426   0.428   0.441   0.443   0.455   0.463   0.470
  0.488   0.492   0.503   0.516   0.521   0.525   0.536   0.547
  0.556   0.572   0.583   0.586   0.594   0.610   0.616   0.623
  0.627   0.635   0.639   0.648   0.651   0.653   0.657   0.667
  0.675   0.677   0.688   0.693   0.694   0.704   0.716   0.717
  0.727   0.731   0.737   0.742   0.750   0.760   0.762   0.770
  0.775   0.778   0.786   0.800   0.806   0.816   0.832   0.846
  0.876   0.901   0.910   0.919   0.935   0.990   0.995   1.016
  1.027   1.036   1.042   1.064   1.071   1.075   1.111   1.123
  1.136   1.171   1.181   1.204   1.211   1.219   1.225   1.229
  1.234   1.256   1.258   1.275   1.291   1.300   1.310   1.327
  1.336   1.350   1.365   1.374   1.381   1.385   1.394   1.414
  1.434   1.440   1.443   1.459   1.465   1.477   1.504   1.509
  1.521   1.542   1.548   1.556   1.566   1.571   1.575   1.581
  1.588   1.596   1.606   1.614   1.631   1.633   1.655   1.675
  1.680   1.695   1.700   1.707   1.714   1.719   1.721   1.728
  1.742   1.747   1.755   1.770   1.779   1.782   1.808   1.813
  1.830   1.830   1.843   1.856   1.870   1.881   1.886   1.912
  1.935   1.943   1.957   1.983   1.989   2.002   2.017   2.036
  2.042   2.052   2.062   2.100   2.111   2.120   2.130   2.136
  2.154   2.172   2.184   2.185   2.199   2.208   2.229   2.243
  2.259   2.297   2.318   2.338   2.393   2.429   2.443   2.450
  2.457   2.463   2.492   2.501   2.511   2.514   2.522   2.528
  2.536   2.543   2.553   2.561   2.581   2.596   2.616   2.645
  2.657   2.658   2.668   2.688   2.700   2.732   2.752   2.777
  2.799   2.812   2.823   2.825   2.852   2.858   2.876   2.880
  2.902   2.905   2.931   2.948   2.957   2.977   3.005   3.029
  3.042   3.048   3.058   3.067   3.075   3.087   3.100   3.117
  3.146   3.153   3.174   3.180   3.182   3.220   3.231   3.251
  3.264   3.308   3.310   3.343   3.384   3.399   3.404   3.451
  3.576   3.608   3.617   3.655   3.667   3.728   3.774   3.791
  3.824   3.843   3.851   3.856   3.934   3.948   4.022   4.027
  4.055   4.116   4.125   4.133   4.155   4.180   4.204   4.263
  4.277   4.431   4.493   5.045   5.067   5.124   5.145   5.233
  5.286   5.293   5.398   5.416   5.509   5.627   5.631   5.660
  5.884   5.898  23.790  23.829  23.847  23.875  23.898  23.928
 23.941  23.951  23.969  23.996  24.043  49.906  49.918  49.981
 50.031  50.054
 --------------------------------------------------------------
 
          Ground-State Mulliken Net Atomic Charges

     Atom                 Charge (a.u.)
  ----------------------------------------
      1 C                     0.144169
      2 C                     0.305426
      3 C                    -0.746153
      4 C                    -0.769292
      5 O                     0.004493
      6 O                    -0.186084
      7 O                    -0.075258
      8 O                    -0.180908
      9 C                    -0.257183
     10 C                    -0.222364
     11 C                     0.330274
     12 C                    -0.523390
     13 C                    -0.404855
     14 C                    -0.044760
     15 O                    -0.038380
     16 H                     0.308907
     17 H                     0.236259
     18 H                     0.197630
     19 H                     0.166043
     20 H                     0.184855
     21 H                     0.119942
     22 H                     0.169954
     23 H                     0.145164
     24 H                     0.146672
     25 H                     0.177386
     26 H                     0.147252
     27 H                     0.184711
     28 H                     0.276635
     29 C                    -0.326282
     30 H                     0.155108
     31 H                     0.180010
     32 H                     0.194018
  ----------------------------------------
  Sum of atomic charges =     0.000000

 -----------------------------------------------------------------
                    Cartesian Multipole Moments
 -----------------------------------------------------------------
    Charge (ESU x 10^10)
                 0.0000
    Dipole Moment (Debye)
         X       1.4083      Y      -0.1212      Z       2.4832
       Tot       2.8573
    Quadrupole Moments (Debye-Ang)
        XX     -87.8692     XY      -4.0325     YY     -83.8246
        XZ       2.0172     YZ       3.2335     ZZ    -100.9858
    Octopole Moments (Debye-Ang^2)
       XXX     -54.9395    XXY       0.0650    XYY       7.7706
       YYY     -44.3299    XXZ      -4.5050    XYZ       1.8821
       YYZ      -8.5488    XZZ       2.4070    YZZ      -7.5943
       ZZZ      10.6659
    Hexadecapole Moments (Debye-Ang^3)
      XXXX   -2029.6705   XXXY     -21.5266   XXYY    -692.0864
      XYYY     -68.9102   YYYY   -1652.7289   XXXZ      -2.9737
      XXYZ      -5.6727   XYYZ       8.1073   YYYZ      -6.3284
      XXZZ    -463.6098   XYZZ     -18.5974   YYZZ    -375.2354
      XZZZ      -2.2005   YZZZ      -1.3586   ZZZZ    -411.1939
 -----------------------------------------------------------------
 Calculating analytic gradient of the SCF energy
 Gradient of SCF Energy
            1           2           3           4           5           6
    1   0.0000700   0.0001546  -0.0000937  -0.0007999  -0.0002954  -0.0001310
    2   0.0001667  -0.0004808  -0.0000892   0.0003968   0.0001367   0.0009263
    3  -0.0002122   0.0010304  -0.0008347  -0.0025860   0.0001570  -0.0001707
            7           8           9          10          11          12
    1   0.0002085   0.0009334   0.0000153   0.0001376  -0.0004450   0.0001258
    2   0.0001119  -0.0009436   0.0000226  -0.0000147  -0.0003166   0.0002593
    3   0.0009243   0.0014537  -0.0000435   0.0000053   0.0002227   0.0001045
           13          14          15          16          17          18
    1  -0.0003614   0.0003590  -0.0003138   0.0002805   0.0003057  -0.0000176
    2  -0.0002282   0.0003259  -0.0000446   0.0001393  -0.0001492   0.0000360
    3   0.0000080  -0.0000452  -0.0001787   0.0000395  -0.0000110  -0.0000050
           19          20          21          22          23          24
    1   0.0000283   0.0000644   0.0000478   0.0001151  -0.0003312   0.0000069
    2  -0.0000015  -0.0001532   0.0002473  -0.0000600  -0.0000307  -0.0000051
    3  -0.0000400  -0.0000774   0.0000088   0.0001562   0.0000449   0.0000173
           25          26          27          28          29          30
    1   0.0000092  -0.0000293   0.0000482  -0.0000004  -0.0000562  -0.0000164
    2  -0.0000227   0.0000152  -0.0000144  -0.0000647  -0.0001046  -0.0000244
    3  -0.0000070  -0.0000359  -0.0000529  -0.0000917   0.0001966  -0.0000111
           31          32
    1   0.0000200  -0.0000389
    2  -0.0000153  -0.0000205
    3   0.0000448  -0.0000110
 Max gradient component =       2.586E-03
 RMS gradient           =       4.206E-04
 Gradient time:  CPU 309.08 s  wall 22.28 s
 Geometry Optimization Parameters
   NAtoms,    NIC,     NZ,  NCons,   NDum,   NFix, NCnnct, MaxDiis
       32     251       0       0       0       0       0       0

 Cartesian Hessian Update
 Hessian Updated using Powell/Murtagh-Sargent Update
  Mixing factors:     0.802126 Powell
                      0.197874 Murtagh-Sargent


** GEOMETRY OPTIMIZATION IN DELOCALIZED INTERNAL COORDINATES **
   Searching for a Transition State

   Optimization Cycle:   3

                       Coordinates (Angstroms)
     ATOM                X               Y               Z
      1  C        -0.5123527853    0.9735376663    0.5187483311
      2  C         0.6119660319   -0.1086224880    0.6833278469
      3  C        -1.7454000786    0.5173391502   -0.2436960095
      4  C         0.1268713598   -1.5318701410    0.4468361197
      5  O        -2.8526186573    0.6488630507    0.5179974635
      6  O        -1.7640420547    0.1563635571   -1.3931317078
      7  O         1.1089813580   -2.3730587974    0.0840040507
      8  O        -0.9960195416   -1.9021026986    0.6929183668
      9  C         0.7339624390   -3.7574893015   -0.0612899068
     10  C        -4.0775456535    0.1974710725   -0.0871244910
     11  C         0.2449016061    2.0467553296   -0.3102435624
     12  C         1.2647500608    2.7727224850    0.5912802629
     13  C         2.3615640664    1.6791419107    0.7246837846
     14  C         1.7855827297    0.5294456209   -0.1566371955
     15  O         1.0712092400    1.2624915355   -1.1687706458
     16  H        -0.8326581179    1.3578640245    1.4854006342
     17  H         0.9183893464   -0.1397917336    1.7341952401
     18  H        -0.0572733260   -3.8584185462   -0.8048224450
     19  H        -4.2967611928    0.7727183041   -0.9883223057
     20  H         1.6484412402    3.6592510312    0.0844488107
     21  H         0.8376851212    3.0852795793    1.5465293859
     22  H         3.3129464736    2.0174139816    0.3108489007
     23  H         2.5384353846    1.3649922207    1.7552415446
     24  H         1.6377624160   -4.2666539421   -0.3885564976
     25  H         0.3879184726   -4.1600702963    0.8918450623
     26  H        -4.8482221986    0.3539245351    0.6646280062
     27  H        -3.9978302260   -0.8599173157   -0.3433525965
     28  H        -0.4001327102    2.6877127238   -0.9074671661
     29  C         2.8340037450   -0.3488791718   -0.8039754252
     30  H         3.5553186297    0.2909449383   -1.3180809895
     31  H         3.3611274000   -0.9431550931   -0.0557949984
     32  H         2.3871604817   -1.0277532718   -1.5274475283
   Point Group: c1    Number of degrees of freedom:    90


   Energy is   -805.190173449

 Hessian Updated using Powell/Murtagh-Sargent Update
  Mixing factors:     0.891935 Powell
                      0.108065 Murtagh-Sargent

 83 Hessian modes will be used to form the next step
  Hessian Eigenvalues:
    -0.009760    0.005165    0.006682    0.006964    0.007441    0.010139
     0.010515    0.010745    0.019468    0.022214    0.023047    0.023257
     0.026730    0.033990    0.035930    0.037373    0.039996    0.045564
     0.048653    0.050525    0.054585    0.054667    0.055736    0.057372
     0.057846    0.060344    0.064090    0.064924    0.066204    0.074325
     0.083101    0.093325    0.098503    0.101289    0.101451    0.102852
     0.106051    0.106057    0.123722    0.128537    0.159951    0.159999
     0.160001    0.161461    0.176134    0.231086    0.238970    0.249139
     0.249564    0.249635    0.250000    0.250024    0.252440    0.254063
     0.267053    0.276682    0.302098    0.303896    0.310313    0.337466
     0.342372    0.345013    0.345752    0.345977    0.346493    0.346759
     0.346965    0.347033    0.347075    0.347089    0.347581    0.349840
     0.350131    0.350518    0.350580    0.350761    0.353171    0.393658
     0.397548    0.549590    0.565267    1.010274    1.023925

 Transition State Search - Taking P-RFO Step
 Searching for Lamda that Maximizes Along the Lowest mode
 Value Taken    Lamda =   0.00017171
 Searching for Lamda that Minimizes Along All other modes
 Value Taken    Lamda =  -0.00020830
 Step Taken.  Stepsize is  0.150754

                             Maximum     Tolerance    Cnvgd?
         Gradient           0.002785      0.000001      NO
         Displacement       0.046190      0.000001      NO
         Energy change     -0.000063      0.000000      NO


 New Cartesian Coordinates Obtained by Inverse Iteration

 Displacement from previous Coordinates is:  0.385002
 Adding empirical dispersion correction 
 ----------------------------------------------------------------
 Doing -D3(op) with
 s6 =   1.00000
 s8 =   0.78311
 a1 =   0.30000
 a2 =   4.25000
 n  =  10.00000
 -D3 energy without 3body term =     -0.0352002703 hartrees
 ----------------------------------------------------------------
             Standard Nuclear Orientation (Angstroms)
    I     Atom           X                Y                Z
 ----------------------------------------------------------------
    1      C      -0.5071710425     0.9695467219     0.5145384429
    2      C       0.6140664001    -0.1152884628     0.6854069289
    3      C      -1.7487317291     0.5112715682    -0.2323151055
    4      C       0.1276392397    -1.5362099151     0.4368957726
    5      O      -2.8485801671     0.6509009581     0.5385135907
    6      O      -1.7798952597     0.1512516964    -1.3817762448
    7      O       1.1091115803    -2.3783747618     0.0744647962
    8      O      -1.0035305838    -1.9001545688     0.6523628083
    9      C       0.7276802676    -3.7583953526    -0.0941969814
   10      C      -4.0808813128     0.2041701584    -0.0552173413
   11      C       0.2465497207     2.0317740004    -0.3330806205
   12      C       1.2561574576     2.7810151922     0.5590108392
   13      C       2.3489343535     1.6897212325     0.7333269021
   14      C       1.7932009219     0.5250270380    -0.1434924342
   15      O       1.0839077582     1.2386264965    -1.1728948345
   16      H      -0.8163971823     1.3665067311     1.4796267248
   17      H       0.9109247791    -0.1540946387     1.7387492984
   18      H      -0.0552989616    -3.8444969847    -0.8482465111
   19      H      -4.3043045588     0.7779462718    -0.9563038408
   20      H       1.6466969057     3.6513889579     0.0298681811
   21      H       0.8200873969     3.1216116865     1.5004691385
   22      H       3.3106548953     2.0223220874     0.3391834497
   23      H       2.5004887311     1.3903916232     1.7722391780
   24      H       1.6323024997    -4.2684915009    -0.4177369517
   25      H       0.3680762299    -4.1717443967     0.8492665976
   26      H      -4.8445988922     0.3669074308     0.7022734421
   27      H      -4.0087078640    -0.8543429548    -0.3090150171
   28      H      -0.4006506019     2.6558676699    -0.9456123732
   29      C       2.8588147788    -0.3495093572    -0.7676066865
   30      H       3.5815694114     0.2924323033    -1.2770302014
   31      H       3.3809834527    -0.9319396428    -0.0065093540
   32      H       2.4290224356    -1.0391873679    -1.4909412533
 ----------------------------------------------------------------
 Nuclear Repulsion Energy =  1244.0651658917 hartrees
 There are       61 alpha and       61 beta electrons
 Applying Cartesian multipole field
    Component          Value
    ---------          -----
     (2,0,0)        1.00000E-11
     (0,2,0)        2.00000E-11
     (0,0,2)       -3.00000E-11
 Nucleus-field energy     =     0.0000000367 hartrees
 Requested basis set is 6-311++G(d,p)
 There are 176 shells and 464 basis functions
 A cutoff of  1.0D-11 yielded  12636 shell pairs
 There are     89443 function pairs (     95369 Cartesian)
 Smallest overlap matrix eigenvalue = 6.49E-07

 Q-Chem warning in module /fs/scratch/osu6415/qchem-kaunlao-vdw/stvman/mkSTV.C, line 281:

 Overlap eigenvalue is smaller than square root of threshold

 Linear dependence detected in AO basis
 Number of orthogonalized atomic orbitals = 463
 Maximum deviation from orthogonality = 6.802E-11
 Guess MOs from SCF MO coefficient file
 Reading MOs from coefficient file
 Reading MOs from coefficient file
 A restricted hybrid HF-DFT SCF calculation will be
 performed using Pulay DIIS extrapolation
 Exchange:     0.2000 Hartree-Fock + 0.0800 Slater + 0.7200 B88
 Correlation:  0.1900 VWN1RPA + 0.8100 LYP
 Using SG-1 standard quadrature grid
 Dispersion:   Grimme D3
 SCF converges when DIIS error is below 1.0E-08
 Geometry optimization detected.  Setting ReadMinima to 0
 Setting SaveMinima to 0
 using 20 threads for integral computing
 -------------------------------------------------------
 OpenMP Integral computing Module                
 Release: version 1.0, May 2013, Q-Chem Inc. Pittsburgh 
 -------------------------------------------------------
 -------------------------------------------------------
 OpenMP BLAS3 based DFT computing Module                
 Release: version 1.0, May 2013, Q-Chem Inc. Pittsburgh 
 -------------------------------------------------------
 ---------------------------------------
  Cycle       Energy         DIIS Error
 ---------------------------------------
    1    -805.1798549218      5.60E-04
    2    -805.1900007547      7.40E-05
    3    -805.1899336347      9.61E-05
    4    -805.1901369104      2.36E-05
    5    -805.1901457994      9.67E-06
    6    -805.1901476390      2.08E-06
    7    -805.1901477190      1.01E-06
    8    -805.1901477385      3.13E-07
    9    -805.1901477400      9.14E-08
   10    -805.1901477405      4.06E-08
   11    -805.1901477414      1.35E-08
   12    -805.1901477362      3.24E-09 Convergence criterion met
 ---------------------------------------
 SCF time:  CPU 754.68 s  wall 41.06 s
 SCF   energy in the final basis set = -805.19014774
 Total energy in the final basis set = -805.19014774
 
 --------------------------------------------------------------
 
                    Orbital Energies (a.u.)
 --------------------------------------------------------------
 
 Alpha MOs
 -- Occupied --
-19.178 -19.164 -19.126 -19.118 -19.103 -10.311 -10.296 -10.242
-10.232 -10.231 -10.218 -10.209 -10.199 -10.178 -10.178 -10.162
 -1.121  -1.104  -1.061  -1.031  -1.016  -0.828  -0.791  -0.780
 -0.745  -0.724  -0.692  -0.647  -0.601  -0.593  -0.569  -0.555
 -0.526  -0.512  -0.502  -0.490  -0.488  -0.486  -0.476  -0.467
 -0.456  -0.436  -0.426  -0.419  -0.413  -0.408  -0.390  -0.380
 -0.372  -0.368  -0.364  -0.358  -0.355  -0.349  -0.335  -0.326
 -0.318  -0.302  -0.292  -0.277  -0.265
 -- Virtual --
 -0.020  -0.008  -0.003   0.001   0.006   0.011   0.015   0.022
  0.026   0.031   0.034   0.039   0.044   0.047   0.050   0.055
  0.062   0.066   0.071   0.076   0.083   0.085   0.090   0.098
  0.102   0.104   0.106   0.108   0.110   0.116   0.119   0.122
  0.125   0.128   0.131   0.132   0.135   0.137   0.139   0.145
  0.149   0.149   0.152   0.156   0.158   0.162   0.164   0.168
  0.171   0.173   0.176   0.178   0.184   0.187   0.190   0.193
  0.198   0.199   0.201   0.205   0.212   0.220   0.221   0.224
  0.228   0.232   0.242   0.246   0.249   0.254   0.259   0.262
  0.267   0.269   0.279   0.281   0.289   0.292   0.296   0.307
  0.308   0.312   0.319   0.320   0.330   0.334   0.340   0.343
  0.347   0.352   0.357   0.361   0.363   0.366   0.371   0.374
  0.375   0.379   0.383   0.393   0.398   0.401   0.404   0.408
  0.419   0.426   0.428   0.441   0.443   0.455   0.463   0.470
  0.489   0.491   0.503   0.516   0.521   0.525   0.537   0.548
  0.556   0.572   0.583   0.586   0.594   0.608   0.616   0.624
  0.628   0.635   0.639   0.647   0.650   0.652   0.657   0.668
  0.675   0.676   0.687   0.693   0.695   0.703   0.716   0.717
  0.728   0.730   0.737   0.743   0.750   0.760   0.762   0.768
  0.775   0.779   0.787   0.800   0.806   0.817   0.833   0.845
  0.877   0.899   0.908   0.919   0.936   0.990   0.996   1.016
  1.027   1.035   1.042   1.065   1.071   1.076   1.111   1.121
  1.137   1.170   1.182   1.203   1.212   1.217   1.227   1.230
  1.233   1.257   1.258   1.273   1.291   1.300   1.309   1.328
  1.335   1.351   1.365   1.373   1.382   1.389   1.395   1.414
  1.435   1.439   1.443   1.459   1.465   1.477   1.505   1.509
  1.520   1.542   1.547   1.555   1.568   1.571   1.576   1.581
  1.588   1.596   1.606   1.612   1.633   1.633   1.653   1.674
  1.680   1.694   1.701   1.707   1.714   1.719   1.721   1.728
  1.742   1.746   1.754   1.770   1.781   1.783   1.808   1.813
  1.831   1.831   1.847   1.857   1.868   1.881   1.887   1.912
  1.934   1.943   1.954   1.982   1.988   2.002   2.018   2.035
  2.041   2.051   2.062   2.099   2.108   2.120   2.131   2.137
  2.153   2.171   2.182   2.190   2.199   2.208   2.229   2.244
  2.261   2.298   2.317   2.338   2.394   2.430   2.443   2.450
  2.458   2.463   2.492   2.501   2.511   2.515   2.522   2.528
  2.537   2.543   2.553   2.561   2.582   2.596   2.615   2.645
  2.657   2.659   2.668   2.688   2.699   2.733   2.751   2.776
  2.800   2.814   2.823   2.824   2.852   2.858   2.876   2.882
  2.900   2.904   2.931   2.947   2.955   2.977   3.007   3.029
  3.042   3.045   3.059   3.067   3.076   3.084   3.101   3.117
  3.145   3.154   3.176   3.178   3.182   3.222   3.230   3.253
  3.263   3.304   3.311   3.341   3.385   3.397   3.405   3.450
  3.577   3.608   3.617   3.654   3.667   3.731   3.775   3.791
  3.824   3.843   3.851   3.856   3.933   3.948   4.022   4.026
  4.055   4.118   4.124   4.131   4.156   4.180   4.204   4.265
  4.277   4.431   4.495   5.044   5.066   5.125   5.147   5.231
  5.288   5.293   5.397   5.415   5.508   5.628   5.630   5.660
  5.885   5.899  23.789  23.829  23.847  23.876  23.898  23.928
 23.941  23.951  23.968  23.996  24.043  49.906  49.919  49.982
 50.032  50.054
 --------------------------------------------------------------
 
          Ground-State Mulliken Net Atomic Charges

     Atom                 Charge (a.u.)
  ----------------------------------------
      1 C                     0.165893
      2 C                     0.265927
      3 C                    -0.732862
      4 C                    -0.777764
      5 O                     0.002608
      6 O                    -0.188400
      7 O                    -0.073437
      8 O                    -0.179884
      9 C                    -0.256741
     10 C                    -0.221731
     11 C                     0.323497
     12 C                    -0.535838
     13 C                    -0.388976
     14 C                    -0.018288
     15 O                    -0.040539
     16 H                     0.309341
     17 H                     0.232779
     18 H                     0.198055
     19 H                     0.165829
     20 H                     0.184914
     21 H                     0.119809
     22 H                     0.169602
     23 H                     0.145548
     24 H                     0.146701
     25 H                     0.177128
     26 H                     0.146924
     27 H                     0.184667
     28 H                     0.278006
     29 C                    -0.330935
     30 H                     0.155092
     31 H                     0.179082
     32 H                     0.193994
  ----------------------------------------
  Sum of atomic charges =    -0.000000

 -----------------------------------------------------------------
                    Cartesian Multipole Moments
 -----------------------------------------------------------------
    Charge (ESU x 10^10)
                -0.0000
    Dipole Moment (Debye)
         X       1.4217      Y      -0.1128      Z       2.5157
       Tot       2.8918
    Quadrupole Moments (Debye-Ang)
        XX     -87.9720     XY      -4.0065     YY     -83.7797
        XZ       1.8417     YZ       3.1134     ZZ    -100.8872
    Octopole Moments (Debye-Ang^2)
       XXX     -54.7433    XXY       0.4849    XYY       7.7375
       YYY     -43.9792    XXZ      -3.7017    XYZ       2.1818
       YYZ      -8.8710    XZZ       2.2479    YZZ      -7.4667
       ZZZ      10.8434
    Hexadecapole Moments (Debye-Ang^3)
      XXXX   -2036.5455   XXXY     -21.4241   XXYY    -693.6397
      XYYY     -67.9091   YYYY   -1653.8420   XXXZ      -2.3473
      XXYZ      -6.6650   XYYZ       7.9377   YYYZ      -8.3758
      XXZZ    -464.4766   XYZZ     -18.1804   YYZZ    -373.1575
      XZZZ       0.8560   YZZZ      -4.8654   ZZZZ    -405.4401
 -----------------------------------------------------------------
 Calculating analytic gradient of the SCF energy
 Gradient of SCF Energy
            1           2           3           4           5           6
    1   0.0002784  -0.0001005  -0.0000127   0.0000134  -0.0002374  -0.0001234
    2   0.0006310  -0.0003240  -0.0009007  -0.0001461   0.0004632   0.0008088
    3  -0.0001664  -0.0000558  -0.0002594   0.0006593  -0.0000636  -0.0000909
            7           8           9          10          11          12
    1   0.0001045   0.0002295   0.0000283   0.0000904  -0.0004236  -0.0000177
    2   0.0000470  -0.0003598   0.0000546   0.0000193  -0.0005199   0.0004117
    3  -0.0000420  -0.0000480  -0.0000494  -0.0000166   0.0000776   0.0001042
           13          14          15          16          17          18
    1  -0.0003390   0.0003624  -0.0002786   0.0004340   0.0000930  -0.0000037
    2  -0.0001838   0.0005181  -0.0000342   0.0000779  -0.0005840  -0.0000036
    3  -0.0000618   0.0001251  -0.0001853   0.0000816  -0.0001051   0.0000058
           19          20          21          22          23          24
    1   0.0000136   0.0000387   0.0000582   0.0001501  -0.0003243   0.0000074
    2  -0.0000072  -0.0001951   0.0002765   0.0000140  -0.0000101  -0.0000008
    3  -0.0000399  -0.0001116   0.0000334   0.0002231  -0.0000190  -0.0000014
           25          26          27          28          29          30
    1  -0.0000031  -0.0000274   0.0000463  -0.0000194   0.0000223  -0.0000283
    2   0.0000056   0.0000080  -0.0000156  -0.0000260  -0.0000567   0.0000072
    3   0.0000105  -0.0000481  -0.0000519  -0.0001087   0.0001927  -0.0000359
           31          32
    1   0.0000039  -0.0000354
    2   0.0000255  -0.0000009
    3   0.0000275   0.0000200
 Max gradient component =       9.007E-04
 RMS gradient           =       2.368E-04
 Gradient time:  CPU 308.63 s  wall 21.96 s
 Geometry Optimization Parameters
   NAtoms,    NIC,     NZ,  NCons,   NDum,   NFix, NCnnct, MaxDiis
       32     251       0       0       0       0       0       0

 Cartesian Hessian Update
 Hessian Updated using Powell/Murtagh-Sargent Update
  Mixing factors:     0.816158 Powell
                      0.183842 Murtagh-Sargent


** GEOMETRY OPTIMIZATION IN DELOCALIZED INTERNAL COORDINATES **
   Searching for a Transition State

   Optimization Cycle:   4

                       Coordinates (Angstroms)
     ATOM                X               Y               Z
      1  C        -0.5071710425    0.9695467219    0.5145384429
      2  C         0.6140664001   -0.1152884628    0.6854069289
      3  C        -1.7487317291    0.5112715682   -0.2323151055
      4  C         0.1276392397   -1.5362099151    0.4368957726
      5  O        -2.8485801671    0.6509009581    0.5385135907
      6  O        -1.7798952597    0.1512516964   -1.3817762448
      7  O         1.1091115803   -2.3783747618    0.0744647962
      8  O        -1.0035305838   -1.9001545688    0.6523628083
      9  C         0.7276802676   -3.7583953526   -0.0941969814
     10  C        -4.0808813128    0.2041701584   -0.0552173413
     11  C         0.2465497207    2.0317740004   -0.3330806205
     12  C         1.2561574576    2.7810151922    0.5590108392
     13  C         2.3489343535    1.6897212325    0.7333269021
     14  C         1.7932009219    0.5250270380   -0.1434924342
     15  O         1.0839077582    1.2386264965   -1.1728948345
     16  H        -0.8163971823    1.3665067311    1.4796267248
     17  H         0.9109247791   -0.1540946387    1.7387492984
     18  H        -0.0552989616   -3.8444969847   -0.8482465111
     19  H        -4.3043045588    0.7779462718   -0.9563038408
     20  H         1.6466969057    3.6513889579    0.0298681811
     21  H         0.8200873969    3.1216116865    1.5004691385
     22  H         3.3106548953    2.0223220874    0.3391834497
     23  H         2.5004887311    1.3903916232    1.7722391780
     24  H         1.6323024997   -4.2684915009   -0.4177369517
     25  H         0.3680762299   -4.1717443967    0.8492665976
     26  H        -4.8445988922    0.3669074308    0.7022734421
     27  H        -4.0087078640   -0.8543429548   -0.3090150171
     28  H        -0.4006506019    2.6558676699   -0.9456123732
     29  C         2.8588147788   -0.3495093572   -0.7676066865
     30  H         3.5815694114    0.2924323033   -1.2770302014
     31  H         3.3809834527   -0.9319396428   -0.0065093540
     32  H         2.4290224356   -1.0391873679   -1.4909412533
   Point Group: c1    Number of degrees of freedom:    90


   Energy is   -805.190147736

 Hessian Updated using Powell/Murtagh-Sargent Update
  Mixing factors:     0.954590 Powell
                      0.045410 Murtagh-Sargent

 85 Hessian modes will be used to form the next step
  Hessian Eigenvalues:
    -0.003581    0.004991    0.006410    0.006960    0.007440    0.010139
     0.010515    0.012690    0.021279    0.022217    0.023144    0.023525
[...]
    -0.00000711     -0.00000992      0.00000334
    -0.00002179     -0.00000236     -0.00002796
     0.00010457     -0.00007624     -0.00004926
     0.00012561     -0.00004908     -0.00003382
    -0.00047683     -0.00105041      0.00009664
     0.00019754      0.00003193      0.00020336
     0.00123753     -0.00178706      0.00097256
    -0.00249179      0.03794765      0.02109161
    -0.04282449     -0.00179391     -0.01984652
    -0.00010010     -0.00006844      0.00010793
     0.00013790     -0.00011896      0.00008279
    -0.00364182      0.00457518      0.00961936
     0.06099200      0.00018021      0.19485093
     0.00954115      0.00134945      0.01098226
    -0.00079886      0.00235191     -0.00348507
    -0.14557373     -0.34654833      0.18638309
     0.18241290     -0.09467783     -0.43321775
     0.41076420      0.16504496     -0.22061389
     0.08780676     -0.15167691      0.45140764
    -0.01017819      0.00546226      0.00258673
     0.00671852      0.00579344     -0.01481897
    -0.00187154      0.00034215      0.00182860
     0.00026561     -0.00318318     -0.00077843
    -0.01513569      0.01795554     -0.01202219
    -0.01156737      0.00262933      0.00665141
     0.12376693      0.11361037     -0.09511514
     0.06358244     -0.07330085      0.08821078
    -0.05122177     -0.06964437     -0.07207650
vibration 80
    -0.00154087      0.00210351      0.00493325
    -0.00171500      0.00016655     -0.00685619
     0.00004900      0.00001519      0.00015647
    -0.00016518      0.00014039     -0.00002416
    -0.00007652     -0.00000464      0.00000183
    -0.00004016     -0.00002723     -0.00002448
     0.00005978     -0.00004795     -0.00002757
     0.00000332     -0.00008246     -0.00002883
     0.00015862      0.00015604      0.00006402
     0.00034601      0.00016596      0.00040787
    -0.00198192      0.00347831     -0.00248772
     0.00584543     -0.04421177     -0.02742441
    -0.04073971     -0.00123730     -0.01602204
    -0.00020073      0.00086835      0.00033556
    -0.00000939      0.00004738      0.00027289
     0.01953963     -0.02175986     -0.05817584
     0.02584651      0.00033466      0.08212840
    -0.00223170     -0.00029930     -0.00253769
    -0.00150859      0.00417573     -0.00627317
     0.16220107      0.38693026     -0.20984734
    -0.22627297      0.11804378      0.53218495
     0.38839253      0.15592690     -0.20889730
     0.07749284     -0.13593708      0.39565867
     0.00132496     -0.00078626     -0.00035551
    -0.00092887     -0.00081341      0.00196270
    -0.00297437      0.00052018      0.00286467
     0.00055282     -0.00667878     -0.00165153
     0.03512537     -0.04055008      0.03012046
    -0.00450170      0.00149208      0.00267798
     0.04871586      0.04423587     -0.03756531
     0.02700572     -0.03110809      0.03706166
    -0.02207235     -0.03149543     -0.03300641
vibration 81
     0.00195736     -0.00213250     -0.00607474
    -0.00171912      0.00022037     -0.00518136
     0.00029533     -0.00003302     -0.00014449
    -0.00004692     -0.00024658     -0.00004748
    -0.00002946      0.00000207      0.00003270
    -0.00004105      0.00000413      0.00003801
    -0.00006308      0.00001884      0.00002954
     0.00006039      0.00004202     -0.00001325
     0.00001967     -0.00001804      0.00015387
    -0.00001176     -0.00008391      0.00007508
    -0.00401159      0.00348013     -0.00271770
    -0.02771930     -0.02976903      0.04976072
     0.02511755      0.02690303     -0.05831164
     0.00042804      0.00071040     -0.00064387
     0.00004669     -0.00012023      0.00009109
    -0.02305501      0.02713327      0.07056406
     0.01938802     -0.00054077      0.06554413
    -0.00092715     -0.00010855     -0.00102830
    -0.00010791      0.00036649     -0.00056424
     0.17949419      0.44607144     -0.21993894
     0.15289690     -0.09506773     -0.37216285
    -0.41241971     -0.16039996      0.20300880
     0.11174986     -0.16136619      0.49183908
     0.00015883     -0.00006259     -0.00004570
     0.00042137      0.00037169     -0.00094941
     0.00026914     -0.00007170     -0.00027923
    -0.00007229      0.00087691      0.00021474
     0.04179955     -0.04381468      0.03620309
    -0.00070231     -0.00678549      0.00269465
     0.02241340      0.02126417     -0.01568008
    -0.03300130      0.03543720     -0.04398753
     0.01753326      0.02308752      0.02777403
vibration 82
     0.01187923     -0.01327592     -0.03605913
    -0.00036876      0.00024672     -0.00023200
     0.00104270     -0.00003146     -0.00074736
    -0.00012325      0.00043914     -0.00003075
    -0.00012279      0.00002425      0.00012560
    -0.00007403      0.00004503      0.00026159
     0.00012979     -0.00006974     -0.00007542
    -0.00001136     -0.00008858      0.00003241
     0.00002085     -0.00006548     -0.00019118
    -0.00025907      0.00003852     -0.00001276
    -0.00618579      0.00517849     -0.00424452
    -0.02459906     -0.02568462      0.04376485
    -0.02205419     -0.02199200      0.04658490
    -0.00026511     -0.00060354      0.00048604
     0.00001616      0.00015680     -0.00011468
    -0.14057239      0.15737291      0.42426602
     0.00294197      0.00039428      0.00351062
     0.00124253      0.00020677      0.00136958
     0.00065340     -0.00142534      0.00219691
     0.15559926      0.39261871     -0.19296441
     0.13861327     -0.08501966     -0.32867448
     0.35485035      0.13598074     -0.17584005
    -0.08819218      0.12650314     -0.37953972
    -0.00108373      0.00047337      0.00026535
    -0.00018545     -0.00011039      0.00047192
     0.00150916     -0.00035613     -0.00169068
     0.00004718      0.00160946      0.00040351
     0.06313291     -0.06549063      0.05416019
     0.00318543      0.01975469     -0.01084085
    -0.09350560     -0.08462286      0.06871674
     0.09403036     -0.09971786      0.12309873
    -0.03888647     -0.05090224     -0.06153223
vibration 83
     0.01295274     -0.01462731     -0.03920657
    -0.00100354      0.00032802     -0.00359447
     0.00101853     -0.00010810     -0.00083244
     0.00049937     -0.00011470     -0.00018086
    -0.00012080      0.00004336      0.00016115
    -0.00005119      0.00009959      0.00036941
    -0.00032874     -0.00005167      0.00010191
    -0.00023254     -0.00002980      0.00004972
     0.00033917      0.00041202     -0.00003568
    -0.00039872      0.00051382     -0.00021233
    -0.00142353      0.00112396     -0.00142765
     0.00483890      0.00285569     -0.00955053
    -0.00247564     -0.00181247      0.00379847
    -0.00119600     -0.00079336      0.00125902
    -0.00026209      0.00035247      0.00006370
    -0.15401758      0.17055473      0.46224895
     0.01467894     -0.00082419      0.04239751
    -0.00355334     -0.00081435     -0.00401035
     0.00147032     -0.00375512      0.00584461
    -0.02227253     -0.05531372      0.02769255
    -0.03501913      0.02206491      0.08658967
     0.03769065      0.01600011     -0.01698193
    -0.00598790      0.00832947     -0.02832258
     0.00150453     -0.00071001     -0.00044231
    -0.00241347     -0.00231002      0.00494453
     0.00171246     -0.00030739     -0.00192585
     0.00047440     -0.00180430     -0.00047309
     0.01706821     -0.01691126      0.01403303
    -0.01116225     -0.06468597      0.04025292
     0.34354113      0.30523566     -0.25503968
    -0.31138963      0.32905055     -0.40442968
     0.10862675      0.14067614      0.17189139
vibration 84
     0.01737399     -0.01969912     -0.05286954
    -0.00265637      0.00051764     -0.00656293
     0.00137685     -0.00015629     -0.00118784
    -0.00030508      0.00022464     -0.00000307
    -0.00016444      0.00006490      0.00023577
    -0.00007362      0.00012169      0.00056637
     0.00013502      0.00002203     -0.00006725
     0.00008654     -0.00004461      0.00001260
    -0.00005485     -0.00035098      0.00105851
    -0.00044294     -0.00033205      0.00013358
     0.00038399     -0.00050011     -0.00092000
     0.01697218      0.01397183     -0.03181673
     0.01237253      0.01269177     -0.02722880
     0.00017593      0.00110462     -0.00134089
    -0.00028583     -0.00008610      0.00080094
    -0.20870920      0.22966300      0.62515599
     0.02714569     -0.00211965      0.08502319
    -0.00352144     -0.00026067     -0.00378823
     0.00057925     -0.00087901      0.00137374
    -0.09327040     -0.23555459      0.11635738
    -0.11032606      0.06883265      0.26589210
    -0.20400080     -0.07846970      0.10006228
     0.05238316     -0.07518883      0.22670278
    -0.00003760     -0.00008372      0.00021773
     0.00453598      0.00391612     -0.00938277
     0.00329383     -0.00077670     -0.00344108
    -0.00023402      0.00607750      0.00162380
     0.00315455     -0.00171845      0.00189028
     0.00652530      0.03542546     -0.02232561
    -0.19314302     -0.17091950      0.14379586
     0.16970027     -0.17898811      0.21954935
    -0.05858816     -0.07553637     -0.09218481
vibration 85
     0.00001895     -0.00021373      0.00006636
     0.00006936      0.00001639      0.00009228
     0.00007281      0.00019421      0.00003314
    -0.00015328     -0.00004528      0.00002234
    -0.00008254      0.00029020     -0.00017405
    -0.00008253      0.00010301     -0.00010139
     0.00003267     -0.00000873     -0.00000263
     0.00009176      0.00004570     -0.00001584
     0.00008185      0.00001451     -0.00033389
     0.01078817     -0.08649431      0.03749695
    -0.00065951      0.00066240     -0.00059023
     0.00004582      0.00008582     -0.00003787
    -0.00004150     -0.00009226      0.00021325
     0.00000241     -0.00004354      0.00004511
    -0.00001790      0.00002429     -0.00000875
    -0.00006048     -0.00003445     -0.00002818
    -0.00027426     -0.00000042     -0.00101911
     0.00125655      0.00016682      0.00138488
    -0.12387558      0.37222469     -0.57331135
    -0.00046047     -0.00103466      0.00046362
    -0.00004150      0.00000906      0.00007827
     0.00113382      0.00047729     -0.00052973
    -0.00046802      0.00064352     -0.00200708
    -0.00119042      0.00068456      0.00024635
    -0.00116704     -0.00093362      0.00238463
     0.06481126     -0.02826447     -0.05417485
    -0.06810780      0.67949672      0.18410720
     0.00756348     -0.00773840      0.00660451
    -0.00007012     -0.00049501      0.00034688
     0.00277421      0.00244592     -0.00204107
    -0.00255268      0.00266855     -0.00326007
     0.00067517      0.00084950      0.00113631
vibration 86
     0.00017507     -0.00019227     -0.00051922
    -0.00009008      0.00006329     -0.00039417
     0.00002339     -0.00002494     -0.00008529
     0.00004066      0.00006413      0.00020575
    -0.00001272     -0.00000108      0.00001818
    -0.00000133      0.00002041      0.00004163
     0.00007137     -0.00008332      0.00040179
     0.00000142     -0.00002888      0.00014636
    -0.01041704      0.01083258     -0.09383408
    -0.00008895      0.00031776     -0.00005262
    -0.00007209      0.00007577     -0.00009414
     0.00020253      0.00015655     -0.00037283
     0.00017434      0.00023587     -0.00052299
     0.00002632      0.00002915     -0.00001840
    -0.00000991      0.00000157      0.00002466
    -0.00209557      0.00235038      0.00627110
     0.00054007     -0.00036454      0.00212668
     0.47781634      0.06229701      0.51931898
     0.00037085     -0.00112844      0.00173773
    -0.00107274     -0.00268808      0.00132089
    -0.00136740      0.00085977      0.00323777
    -0.00330476     -0.00129033      0.00162855
     0.00106300     -0.00150310      0.00465833
    -0.07008905      0.03985576     -0.00088297
    -0.28470177     -0.23061686      0.59006604
     0.00042219     -0.00001104     -0.00044866
     0.00027526     -0.00265786     -0.00073147
     0.00098066     -0.00103645      0.00089586
     0.00018175      0.00046686     -0.00004976
    -0.00186392     -0.00163094      0.00160355
     0.00142238     -0.00137559      0.00171310
    -0.00195922     -0.00278660     -0.00262829
vibration 87
     0.00184745     -0.00136766     -0.00536826
    -0.00041397      0.00084369     -0.00135318
     0.00035012     -0.00007043      0.00081330
     0.00004490      0.00018994      0.00000466
    -0.00020727      0.00000145     -0.00004771
    -0.00005176      0.00003290     -0.00038803
    -0.00000269     -0.00005228     -0.00000081
    -0.00008655     -0.00006817     -0.00000951
     0.00006402      0.00008928     -0.00015686
     0.00024655     -0.00112359      0.00033642
     0.05036883     -0.05283494      0.04468064
    -0.00473285     -0.00868321      0.00486568
    -0.00256379     -0.00040318      0.00019394
    -0.00096388      0.00104609     -0.00027755
     0.00036705     -0.00030842     -0.00019453
    -0.02090906      0.01999215      0.06107890
     0.00420240     -0.00036436      0.01335448
     0.00022467     -0.00003133      0.00021667
    -0.00170351      0.00440717     -0.00709839
     0.04462865      0.10596367     -0.04988681
     0.00705140     -0.00365058     -0.01082939
     0.02072750      0.00816795     -0.01057487
     0.00057202     -0.00095540      0.00465058
    -0.00003512     -0.00000479     -0.00002998
    -0.00086158     -0.00075518      0.00178363
    -0.00105576     -0.00009196      0.00090486
    -0.00086562      0.00900431      0.00239486
    -0.57971415      0.60705536     -0.51619411
    -0.00001605      0.00000107      0.00024562
     0.00171519      0.00126385     -0.00124951
     0.00011894     -0.00005580     -0.00028347
    -0.00104611     -0.00173798     -0.00178322
vibration 88
     0.00011901     -0.00006510     -0.00024097
     0.00008981     -0.00001331     -0.00030664
     0.00001200     -0.00005476     -0.00011946
     0.00026367     -0.00012112     -0.00012409
    -0.00001547      0.00000217      0.00001328
    -0.00000026      0.00002660      0.00005330
    -0.00013366     -0.00006899      0.00037112
    -0.00007596      0.00001349     -0.00000517
     0.00004606      0.00018279     -0.00022935
    -0.00010896      0.00002362      0.00018203
     0.00019361     -0.00018576     -0.00000577
    -0.00009115      0.00003394     -0.00002057
    -0.00079380     -0.00012104      0.00101558
    -0.00133382     -0.00035749     -0.00112904
     0.00025212     -0.00006432      0.00025140
    -0.00109523      0.00105903      0.00313077
     0.00061429      0.00002967      0.00454212
     0.00048082      0.00005766      0.00045355
    -0.00018385      0.00052643     -0.00077332
     0.00050988      0.00036654     -0.00023463
     0.00016735      0.00006856      0.00084932
     0.01203537      0.00626317     -0.00545185
    -0.00067338      0.00098543     -0.00278764
     0.00062634     -0.00034252     -0.00032877
    -0.00151032     -0.00141627      0.00294216
     0.00149622     -0.00029298     -0.00146786
     0.00006666     -0.00062636     -0.00013679
    -0.00068093      0.00085039     -0.00056665
    -0.05755787     -0.02893305     -0.06589504
     0.08140866      0.07992711     -0.08218160
     0.22993504     -0.27407292      0.31127160
     0.38079977      0.54063691      0.55613051
vibration 89
    -0.00002420      0.00004405      0.00009448
     0.00000938      0.00000556      0.00003290
     0.00062659      0.00037515      0.00101749
     0.00006204     -0.00002189     -0.00000246
     0.00020864     -0.00003782     -0.00029221
    -0.00016441     -0.00018364     -0.00049564
    -0.00001557      0.00001834      0.00000529
    -0.00003515      0.00000731     -0.00002134
    -0.00046323      0.00008834      0.00016066
    -0.05098665      0.02688292      0.07504358
     0.00012811     -0.00012962      0.00011512
    -0.00002949      0.00002070      0.00006215
     0.00001991     -0.00000867      0.00002464
     0.00001777      0.00000009      0.00000820
    -0.00001350     -0.00000891     -0.00001097
     0.00028519     -0.00077031     -0.00193152
    -0.00021969      0.00000403     -0.00046497
     0.00085302      0.00012133      0.00109675
    -0.05690311      0.15326731     -0.20093185
    -0.00005701     -0.00006282      0.00004306
     0.00030686     -0.00016410     -0.00075196
    -0.00020295     -0.00008844      0.00010411
    -0.00010358      0.00015596     -0.00045091
     0.00380263     -0.00208309     -0.00094616
     0.00084437      0.00081138     -0.00201800
     0.62884740     -0.11954913     -0.61839823
     0.02732374     -0.35456428     -0.07263923
    -0.00146942      0.00165359     -0.00132537
     0.00014708      0.00007054      0.00014659
    -0.00035465     -0.00033693      0.00031985
    -0.00059174      0.00070374     -0.00080191
    -0.00083873     -0.00122760     -0.00126032
vibration 90
     0.00002323     -0.00001611     -0.00005250
     0.00008797      0.00001834     -0.00005222
     0.00000024     -0.00004649     -0.00001323
    -0.00086145     -0.00096202      0.00001122
    -0.00000650      0.00001036      0.00000278
    -0.00000075      0.00002085      0.00000441
     0.00037656     -0.00008757     -0.00004811
     0.00044091      0.00032073     -0.00002465
    -0.09067047      0.02480741      0.01245576
     0.00029216     -0.00025145     -0.00032405
     0.00000293     -0.00002738      0.00003037
    -0.00002088     -0.00003419      0.00003190
    -0.00005473     -0.00002931      0.00003765
    -0.00005642      0.00000468      0.00004328
     0.00001580      0.00000205     -0.00001510
    -0.00014220      0.00017623      0.00050148
     0.00019092      0.00021967      0.00054299
     0.22499098      0.03342707      0.27877107
     0.00008834     -0.00015654      0.00010714
     0.00022895      0.00048200     -0.00023184
     0.00009205     -0.00008192     -0.00022263
     0.00091047      0.00041868     -0.00042870
    -0.00006603      0.00003126     -0.00012985
     0.76165665     -0.41607704     -0.19177441
     0.08877953      0.09408899     -0.23402224
    -0.00323682      0.00060053      0.00320552
    -0.00016950      0.00248864      0.00059479
    -0.00015827      0.00020321     -0.00019239
     0.00000513     -0.00015335      0.00007082
     0.00080373      0.00067537     -0.00060778
    -0.00076612      0.00106686     -0.00097705
     0.00020823      0.00066021      0.00041712
[INT]
    3.563391
    0.305647
    1.574448
    1.056988
    1.999062
    0.763800
    0.117585
    0.261080
    0.508313
    1.372549
    3.559784
    4.722181
    0.486605
    9.176244
    2.522913
    0.665105
   15.061035
   10.703618
   12.275277
    1.192857
    8.665104
   18.774453
    5.346207
    2.506455
    2.457657
   10.781022
   10.836129
   15.253218
    8.481578
    1.852314
   11.276788
    5.984068
   12.407857
    2.322593
   19.491495
    6.438811
    4.544604
   18.221398
   38.821404
   20.752654
   37.629420
   23.577142
   18.276466
   16.129395
    1.752911
   53.698565
  287.841025
    7.061989
   79.048170
    1.710210
   12.922319
   84.310918
  127.778860
   68.371754
   53.108060
   43.527925
   10.697243
    2.091180
   29.487207
   46.854575
   98.710320
   14.633143
   15.872766
   14.816216
   11.457380
    7.316522
    7.846863
    1.223719
    3.664879
   15.041431
   10.224112
    7.980101
  298.810655
  165.943303
    4.850200
   12.764161
   36.522462
   34.715170
   38.272171
   35.240609
    1.123373
   12.896979
   13.380333
   40.129151
   16.965117
   15.816266
   22.982314
   13.162971
   16.661879
   12.524543

======= END OF MOLDEN-FORMATTED INPUT FILE =======


        *************************************************************
        *                                                           *
        *  Thank you very much for using Q-Chem.  Have a nice day.  *
        *                                                           *
        *************************************************************


