r0110.ten.osc.edu 10.25.153
Q-Chem Developer Version! Running on 10.25.153.*
                  Welcome to Q-Chem
     A Quantum Leap Into The Future Of Chemistry


 Q-Chem 5.0, Q-Chem, Inc., Pleasanton, CA (2017)

 Yihan Shao,  Zhengting Gan,  E. Epifanovsky,  A. T. B. Gilbert,  M. Wormit,  
 J. Kussmann,  A. W. Lange,  A. Behn,  Jia Deng,  Xintian Feng,  D. Ghosh,  
 M. Goldey,  P. R. Horn,  L. D. Jacobson,  I. Kaliman,  T. Kus,  A. Landau,  
 Jie Liu,  E. I. Proynov,  R. M. Richard,  R. P. Steele,  E. J. Sundstrom,  
 H. L. Woodcock III,  P. M. Zimmerman,  D. Zuev,  B. Albrecht,  E. Alguire,  
 S. A. Baeppler,  Z. Benda,  Y. A. Bernard,  E. J. Berquist,  K. B. Bravaya,  
 D. Casanova,  Chun-Min Chang,  Yunqing Chen,  A. Chien,  K. D. Closser,  
 M. P. Coons,  S. Dasgupta,  M. Diedenhofen,  Hainam Do,  R. G. Edgar,  
 Po-Tung Fang,  S. Fatehi,  Qingguo Feng,  Qinghui Ge,  A. Ghysels,  
 J. Gomes,  J. Gonthier,  A. Gunina,  M. W. D. Hanson-Heine,  
 P. H. P. Harbach,  A. W. Hauser,  J. E. Herr,  E. G. Hohenstein,  
 Z. C. Holden,  Kerwin Hui,  T.-C. Jagau,  Hyunjun Ji,  B. Kaduk,  
 K. Khistyaev,  Jaehoon Kim,  P. Klunzinger,  K. Koh,  D. Kosenkov,  
 T. Kowalczyk,  C. M. Krauter,  A. Kunitsa,  Ka Un Lao,  A. Laurent,  
 K. V. Lawler,  Joonho Lee,  D. Lefrancois,  S. Lehtola,  D. S. Levine,  
 Yi-Pei Li,  You-Sheng Lin,  Fenglai Liu,  E. Livshits,  A. Luenser,  
 P. Manohar,  E. Mansoor,  S. F. Manzer,  Shan-Ping Mao,  Yuezhi Mao,  
 N. Mardirossian,  A. V. Marenich,  L. A. Martinez-Martinez,  S. A. Maurer,  
 N. J. Mayhall,  S. C. McKenzie,  J.-M. Mewes,  A. F. Morrison,  K. Nanda,  
 T. S. Nguyen-Beck,  R. Olivares-Amaya,  J. A. Parkhill,  T. M. Perrine,  
 F. Plasser,  S. Prager,  A. Prociuk,  D. R. Rehn,  F. Rob,  M. Schneider,  
 N. Sergueev,  S. M. Sharada,  S. Sharma,  D. W. Small,  T. Stauch,  
 T. Stein,  Yu-Chuan Su,  A. J. W. Thom,  T. Tsuchimochi,  L. Vogt,  
 O. Vydrov,  M. A. Watson,  J. Wenzel,  M. de Wergifosse,  T. A. Wesolowski,  
 A. White,  J. Witte,  A. Yamada,  Jun Yang,  K. Yao,  S. Yeganeh,  
 S. R. Yost,  Zhi-Qiang You,  A. Zech,  Igor Ying Zhang,  Xing Zhang,  
 Yan Zhao,  Ying Zhu,  B. R. Brooks,  G. K. L. Chan,  C. J. Cramer,  
 M. S. Gordon,  W. J. Hehre,  A. Klamt,  M. W. Schmidt,  C. D. Sherrill,  
 D. G. Truhlar,  A. Aspuru-Guzik,  R. Baer,  A. T. Bell,  N. A. Besley,  
 Jeng-Da Chai,  A. Dreuw,  B. D. Dunietz,  T. R. Furlani,  Chao-Ping Hsu,  
 Yousung Jung,  Jing Kong,  D. S. Lambrecht,  WanZhen Liang,  C. Ochsenfeld,  
 V. A. Rassolov,  L. V. Slipchenko,  J. E. Subotnik,  T. Van Voorhis,  
 J. M. Herbert,  A. I. Krylov,  P. M. W. Gill,  M. Head-Gordon

 Contributors to earlier versions of Q-Chem not listed above: 
 R. D. Adamson,  B. Austin,  J. Baker,  G. J. O. Beran,  K. Brandhorst,  
 S. T. Brown,  E. F. C. Byrd,  A. K. Chakraborty,  C.-L. Cheng,  
 Siu Hung Chien,  D. M. Chipman,  D. L. Crittenden,  H. Dachsel,  
 R. A. DiStasio Jr.,  R. J. Doerksen,  A. D. Dutoi,  L. Fusti-Molnar,  
 W. A. Goddard III,  A. Golubeva-Zadorozhnaya,  S. R. Gwaltney,  G. Hawkins,  
 A. Heyden,  S. Hirata,  G. Kedziora,  F. J. Keil,  C. Kelley,  Jihan Kim,  
 R. A. King,  R. Z. Khaliullin,  P. P. Korambath,  W. Kurlancheek,  
 A. M. Lee,  M. S. Lee,  S. V. Levchenko,  Ching Yeh Lin,  D. Liotard,  
 R. C. Lochan,  I. Lotan,  P. E. Maslen,  N. Nair,  D. P. O'Neill,  
 D. Neuhauser,  E. Neuscamman,  C. M. Oana,  R. Olson,  B. Peters,  
 R. Peverati,  P. A. Pieniazek,  Y. M. Rhee,  J. Ritchie,  M. A. Rohrdanz,  
 E. Rosta,  N. J. Russ,  H. F. Schaefer III,  N. E. Schultz,  N. Shenvi,  
 A. C. Simmonett,  A. Sodt,  D. Stuck,  K. S. Thanthiriwatte,  V. Vanovschi,  
 Tao Wang,  A. Warshel,  C. F. Williams,  Q. Wu,  X. Xu,  W. Zhang

 Please cite Q-Chem as follows:
 Y. Shao et al., Mol. Phys. 113, 184-215 (2015)
 DOI: 10.1080/00268976.2014.952696

 Q-Chem 5.0.1 for Intel X86 EM64T Linux

 Parts of Q-Chem use Armadillo 5.200.1 (Boston Tea Smuggler).
 http://arma.sourceforge.net/

 Q-Chem begins on Tue Oct 17 12:52:46 2017  

Host: r0110.ten.osc.edu
0

     Scratch files written to /tmp/pbstmp.1311523/17//
Processing $rem in /users/PAS0291/osu6415/.qchemrc.
molden_format             true

Checking the input file for inconsistencies... 	...done.

--------------------------------------------------------------
User input:
--------------------------------------------------------------
$molecule
0 1
C          0.71054       -2.38835        0.07915
C         -0.03529       -2.12120        1.43848
C          0.12949       -0.67328        1.88886
C          1.57553       -1.41733       -0.43548
O         -0.90001        0.12783        1.58373
O          1.13719       -0.29818        2.45210
O          2.33174       -1.65975       -1.53020
O          1.36826       -0.30365       -0.00480
C          2.89076       -0.49027       -2.15386
C         -0.66317        1.52952        1.79536
C         -0.47786       -2.90896       -0.80599
C         -0.73239       -4.38475       -0.45052
C         -1.34456       -4.22110        0.96764
C         -1.46088       -2.66765        1.10315
O         -1.61916       -2.24803       -0.26832
H          1.46782       -3.16470        0.19675
H          0.43963       -2.70990        2.22726
H          3.56441        0.02415       -1.46276
H          0.15758        1.85629        1.15224
H         -1.45639       -4.81371       -1.14909
H          0.17377       -4.99723       -0.47574
H         -2.33800       -4.67391        1.03101
H         -0.72849       -4.66051        1.75840
H          3.43707       -0.85524       -3.02421
H          2.09800        0.20020       -2.45516
H         -0.41318        1.72819        2.84109
H         -1.59298        2.02635        1.51689
H         -0.38450       -2.68329       -1.86947
C         -2.63292       -2.22334        1.95475
H         -3.54807       -2.69937        1.58815
H         -2.47866       -2.53477        2.99429
H         -2.75914       -1.14233        1.92497
$end

$rem
sym_ignore      true
jobtype         ts
method          b3lyp
basis           6-311++G(d,p)
dft_d           d3_op
mem_total       62000
MEM_STATIC      4000
ao2mo_disk      350000
max_scf_cycles  200
geom_opt_max_cycles 1000
geom_opt_tol_displacement 1
GEOM_OPT_TOL_GRADIENT       1
GEOM_OPT_TOL_ENERGY         1
$end

--------------------------------------------------------------
 Adding empirical dispersion correction 
 ----------------------------------------------------------------
 Doing -D3(op) with
 s6 =   1.00000
 s8 =   0.78311
 a1 =   0.30000
 a2 =   4.25000
 n  =  10.00000
 -D3 energy without 3body term =     -0.0356049397 hartrees
 ----------------------------------------------------------------
             Standard Nuclear Orientation (Angstroms)
    I     Atom           X                Y                Z
 ----------------------------------------------------------------
    1      C       0.7105400000    -2.3883500000     0.0791500000
    2      C      -0.0352900000    -2.1212000000     1.4384800000
    3      C       0.1294900000    -0.6732800000     1.8888600000
    4      C       1.5755300000    -1.4173300000    -0.4354800000
    5      O      -0.9000100000     0.1278300000     1.5837300000
    6      O       1.1371900000    -0.2981800000     2.4521000000
    7      O       2.3317400000    -1.6597500000    -1.5302000000
    8      O       1.3682600000    -0.3036500000    -0.0048000000
    9      C       2.8907600000    -0.4902700000    -2.1538600000
   10      C      -0.6631700000     1.5295200000     1.7953600000
   11      C      -0.4778600000    -2.9089600000    -0.8059900000
   12      C      -0.7323900000    -4.3847500000    -0.4505200000
   13      C      -1.3445600000    -4.2211000000     0.9676400000
   14      C      -1.4608800000    -2.6676500000     1.1031500000
   15      O      -1.6191600000    -2.2480300000    -0.2683200000
   16      H       1.4678200000    -3.1647000000     0.1967500000
   17      H       0.4396300000    -2.7099000000     2.2272600000
   18      H       3.5644100000     0.0241500000    -1.4627600000
   19      H       0.1575800000     1.8562900000     1.1522400000
   20      H      -1.4563900000    -4.8137100000    -1.1490900000
   21      H       0.1737700000    -4.9972300000    -0.4757400000
   22      H      -2.3380000000    -4.6739100000     1.0310100000
   23      H      -0.7284900000    -4.6605100000     1.7584000000
   24      H       3.4370700000    -0.8552400000    -3.0242100000
   25      H       2.0980000000     0.2002000000    -2.4551600000
   26      H      -0.4131800000     1.7281900000     2.8410900000
   27      H      -1.5929800000     2.0263500000     1.5168900000
   28      H      -0.3845000000    -2.6832900000    -1.8694700000
   29      C      -2.6329200000    -2.2233400000     1.9547500000
   30      H      -3.5480700000    -2.6993700000     1.5881500000
   31      H      -2.4786600000    -2.5347700000     2.9942900000
   32      H      -2.7591400000    -1.1423300000     1.9249700000
 ----------------------------------------------------------------
 Nuclear Repulsion Energy =  1260.2629660005 hartrees
 There are       61 alpha and       61 beta electrons
 Requested basis set is 6-311++G(d,p)
 There are 176 shells and 464 basis functions

 Total QAlloc Memory Limit  62000 MB
 Mega-Array Size      3911 MB
 MEM_STATIC part      4000 MB
 A cutoff of  1.0D-11 yielded  12721 shell pairs
 There are     90084 function pairs (     96090 Cartesian)
 
 -------------------------------------------------------
 OpenMP Integral Computing Module                       
 Release: version 1.0, May 2013, Q-Chem Inc. Pittsburgh 
 -------------------------------------------------------
 Integral Job Info:
 Integral job number is                      11
 Integral operator is                         1
 short-range coefficients                     0
 long-range coefficients              100000000
 Omega coefficients                           0
 if combine SR and LR in K                    0
 Integral screening is                        0
 Integral computing path is                   2
 max size of driver memory is            800000
 size of driver memory is                593474
 size of scratch memory is              2361544
 max col of scratch BK array               1296
 max len of scratch array in speh3          155
 max len of scratch index in speh4           18
 max int batch size is                      520
 min int batch size is                       52
 fixed nKL is                                52
 max L of basis functions is                  2
 order of int derivative is                   0
 number of shells is                        176
 number of basis is                         480
 number of cartesian basis is               480
 number of contracted shell pairs         12721
 number of primitive shell pairs          28382
 maxK2 (contraction) of shell pair           36
 max number of K2 of shell pair               1
 max number of CS2 of shell pair           2394
 max number of PS2 of shell pair           4068
 mem total for path MDJ                  160152
 -------------------------------------------------------
 Smallest overlap matrix eigenvalue = 7.33E-07

 Q-Chem warning in module /fs/scratch/osu6415/qchem-kaunlao-vdw/stvman/mkSTV.C, line 281:

 Overlap eigenvalue is smaller than square root of threshold

 Linear dependence detected in AO basis
 Number of orthogonalized atomic orbitals = 463
 Maximum deviation from orthogonality = 1.629E-10

 Scale SEOQF with 1.000000e-01/1.000000e-01/1.000000e-01

 Standard Electronic Orientation quadrupole field applied
 Nucleus-field energy     =     0.0000000281 hartrees
 Guess from superposition of atomic densities
 Warning:  Energy on first SCF cycle will be non-variational
 A restricted hybrid HF-DFT SCF calculation will be
 performed using Pulay DIIS extrapolation
 Exchange:     0.2000 Hartree-Fock + 0.0800 Slater + 0.7200 B88
 Correlation:  0.1900 VWN1RPA + 0.8100 LYP
 Using SG-1 standard quadrature grid
 Dispersion:   Grimme D3
 SCF converges when DIIS error is below 1.0E-08
 using 20 threads for integral computing
 -------------------------------------------------------
 OpenMP Integral computing Module                
 Release: version 1.0, May 2013, Q-Chem Inc. Pittsburgh 
 -------------------------------------------------------
 -------------------------------------------------------
 OpenMP BLAS3 based DFT computing Module                
 Release: version 1.0, May 2013, Q-Chem Inc. Pittsburgh 
 -------------------------------------------------------
 ---------------------------------------
  Cycle       Energy         DIIS Error
 ---------------------------------------
    1    -808.5716953833      2.97E-02
    2    -804.8201020832      3.86E-03
    3    -804.2486429056      6.60E-03
    4    -805.1010602784      1.54E-03
    5    -805.1496585285      3.93E-04
    6    -805.1520861781      1.67E-04
    7    -805.1526191382      3.97E-05
    8    -805.1526493645      1.15E-05
    9    -805.1526521256      2.97E-06
   10    -805.1526522717      1.35E-06
   11    -805.1526523029      5.18E-07
   12    -805.1526523074      1.96E-07
   13    -805.1526523084      4.74E-08
   14    -805.1526523082      1.54E-08
   15    -805.1526523129      4.29E-09 Convergence criterion met
 ---------------------------------------
 SCF time:  CPU 936.95 s  wall 48.87 s
 SCF   energy in the final basis set = -805.15265231
 Total energy in the final basis set = -805.15265231
 
 --------------------------------------------------------------
 
                    Orbital Energies (a.u.)
 --------------------------------------------------------------
 
 Alpha MOs
 -- Occupied --
-19.183 -19.159 -19.133 -19.108 -19.090 -10.302 -10.293 -10.242
-10.241 -10.235 -10.214 -10.201 -10.200 -10.181 -10.180 -10.163
 -1.122  -1.100  -1.066  -1.034  -1.005  -0.835  -0.797  -0.782
 -0.747  -0.721  -0.692  -0.661  -0.609  -0.590  -0.574  -0.559
 -0.527  -0.514  -0.502  -0.498  -0.487  -0.486  -0.476  -0.461
 -0.454  -0.438  -0.423  -0.420  -0.419  -0.406  -0.387  -0.383
 -0.375  -0.367  -0.360  -0.358  -0.349  -0.347  -0.338  -0.326
 -0.322  -0.291  -0.284  -0.268  -0.262
 -- Virtual --
 -0.018  -0.014  -0.003   0.001   0.004   0.010   0.014   0.020
  0.027   0.030   0.035   0.038   0.043   0.048   0.052   0.058
  0.066   0.067   0.070   0.078   0.082   0.085   0.092   0.096
  0.098   0.102   0.104   0.109   0.116   0.117   0.120   0.122
  0.127   0.129   0.131   0.135   0.136   0.138   0.143   0.145
  0.146   0.148   0.151   0.154   0.162   0.163   0.165   0.166
  0.171   0.174   0.176   0.176   0.182   0.189   0.190   0.193
  0.195   0.199   0.205   0.209   0.213   0.217   0.226   0.228
  0.230   0.231   0.241   0.243   0.251   0.254   0.259   0.263
  0.273   0.276   0.277   0.282   0.288   0.296   0.299   0.304
  0.306   0.312   0.319   0.322   0.325   0.332   0.336   0.341
  0.346   0.350   0.356   0.361   0.367   0.369   0.370   0.374
  0.379   0.383   0.389   0.394   0.395   0.409   0.410   0.415
  0.422   0.427   0.432   0.441   0.451   0.464   0.467   0.475
  0.493   0.496   0.503   0.514   0.523   0.539   0.549   0.558
  0.563   0.572   0.580   0.592   0.595   0.597   0.610   0.614
  0.623   0.631   0.632   0.652   0.653   0.655   0.660   0.675
  0.679   0.684   0.696   0.697   0.701   0.717   0.722   0.727
  0.730   0.739   0.741   0.746   0.757   0.763   0.771   0.774
  0.779   0.787   0.801   0.811   0.812   0.829   0.842   0.855
  0.866   0.893   0.935   0.945   0.951   0.958   1.002   1.011
  1.019   1.031   1.049   1.053   1.076   1.096   1.106   1.121
  1.129   1.137   1.172   1.183   1.200   1.214   1.217   1.230
  1.241   1.254   1.267   1.283   1.293   1.301   1.318   1.324
  1.337   1.348   1.365   1.376   1.388   1.400   1.420   1.435
  1.443   1.450   1.463   1.468   1.473   1.487   1.495   1.518
  1.532   1.543   1.546   1.552   1.557   1.577   1.584   1.591
  1.596   1.604   1.612   1.627   1.639   1.646   1.657   1.664
  1.667   1.685   1.693   1.699   1.714   1.721   1.730   1.732
  1.747   1.748   1.759   1.777   1.793   1.807   1.818   1.821
  1.827   1.845   1.856   1.865   1.884   1.904   1.922   1.927
  1.940   1.963   1.972   1.992   1.996   2.009   2.020   2.039
  2.046   2.062   2.093   2.097   2.109   2.114   2.123   2.140
  2.155   2.170   2.183   2.195   2.214   2.227   2.242   2.250
  2.288   2.313   2.337   2.344   2.416   2.424   2.443   2.449
  2.460   2.474   2.489   2.495   2.509   2.514   2.522   2.525
  2.538   2.544   2.548   2.574   2.591   2.606   2.624   2.634
  2.667   2.676   2.684   2.707   2.708   2.744   2.755   2.779
  2.783   2.809   2.828   2.836   2.852   2.861   2.873   2.888
  2.894   2.919   2.925   2.954   2.961   3.008   3.014   3.025
  3.041   3.044   3.060   3.076   3.089   3.096   3.105   3.130
  3.149   3.167   3.178   3.189   3.216   3.245   3.253   3.260
  3.272   3.321   3.326   3.358   3.386   3.417   3.435   3.476
  3.551   3.600   3.632   3.654   3.694   3.762   3.764   3.793
  3.821   3.840   3.849   3.883   3.936   3.951   4.028   4.047
  4.070   4.075   4.120   4.124   4.165   4.175   4.208   4.255
  4.343   4.413   4.553   5.037   5.065   5.110   5.176   5.225
  5.264   5.367   5.369   5.448   5.508   5.627   5.651   5.676
  5.905   5.938  23.783  23.811  23.853  23.890  23.908  23.945
 23.952  23.961  23.983  24.028  24.097  49.907  49.953  49.984
 50.040  50.065
 --------------------------------------------------------------
 
          Ground-State Mulliken Net Atomic Charges

     Atom                 Charge (a.u.)
  ----------------------------------------
      1 C                    -0.172088
      2 C                     0.296691
      3 C                    -0.451903
      4 C                    -0.791602
      5 O                    -0.003633
      6 O                    -0.190601
      7 O                    -0.075655
      8 O                    -0.174479
      9 C                    -0.237109
     10 C                    -0.171238
     11 C                     0.569976
     12 C                    -0.571912
     13 C                    -0.331333
     14 C                    -0.164390
     15 O                    -0.050182
     16 H                     0.193619
     17 H                     0.276940
     18 H                     0.183630
     19 H                     0.181176
     20 H                     0.184434
     21 H                     0.127364
     22 H                     0.164959
     23 H                     0.151356
     24 H                     0.157024
     25 H                     0.178702
     26 H                     0.174110
     27 H                     0.147623
     28 H                     0.280816
     29 C                    -0.375670
     30 H                     0.157705
     31 H                     0.158096
     32 H                     0.177574
  ----------------------------------------
  Sum of atomic charges =    -0.000000

 -----------------------------------------------------------------
                    Cartesian Multipole Moments
 -----------------------------------------------------------------
    Charge (ESU x 10^10)
                -0.0000
    Dipole Moment (Debye)
         X      -0.1852      Y      -1.7698      Z      -1.8222
       Tot       2.5470
    Quadrupole Moments (Debye-Ang)
        XX     -95.0913     XY      -0.5168     YY     -81.9882
        XZ     -11.0691     YZ      -2.1405     ZZ     -94.6013
    Octopole Moments (Debye-Ang^2)
       XXX      20.0063    XXY     160.8324    XYY      -7.6615
       YYY     442.4265    XXZ     -61.0451    XYZ      -0.8266
       YYZ     -28.2426    XZZ      -5.9266    YZZ     155.8066
       ZZZ    -161.8656
    Hexadecapole Moments (Debye-Ang^3)
      XXXX   -1449.9606   XXXY    -247.9726   XXYY    -783.0371
      XYYY    -234.0653   YYYY   -3121.1503   XXXZ     290.2503
      XXYZ      15.7554   XYYZ     126.1487   YYYZ      69.4763
      XXZZ    -463.7256   XYZZ     -76.7329   YYZZ    -736.9100
      XZZZ     280.4813   YZZZ      94.9824   ZZZZ   -1352.8869
 -----------------------------------------------------------------
 Calculating analytic gradient of the SCF energy
 Gradient of SCF Energy
            1           2           3           4           5           6
    1   0.0086451  -0.0033397  -0.0137146   0.0223843  -0.0001262   0.0148100
    2   0.0840032  -0.0011074  -0.0040055  -0.0892609  -0.0002527   0.0056379
    3  -0.0194330  -0.0006891  -0.0057033   0.0301326  -0.0004100  -0.0138091
            7           8           9          10          11          12
    1   0.0012255  -0.0328603  -0.0039188   0.0005955  -0.0034601   0.0000425
    2   0.0134553  -0.0302820  -0.0032089  -0.0023025  -0.0002087   0.0008715
    3  -0.0121738   0.0251232  -0.0003175  -0.0002351   0.0088750   0.0005993
           13          14          15          16          17          18
    1   0.0008798   0.0001636  -0.0031593   0.0106241   0.0014619   0.0008792
    2   0.0010295   0.0011584   0.0002603   0.0246892  -0.0003418   0.0008392
    3  -0.0004531  -0.0032146   0.0010650  -0.0079138   0.0010487   0.0017508
           19          20          21          22          23          24
    1   0.0007779  -0.0008467   0.0014161  -0.0014596   0.0007930   0.0010861
    2   0.0001083  -0.0005944  -0.0015933  -0.0007151  -0.0011903   0.0001678
    3  -0.0012388  -0.0009778  -0.0000311   0.0000787   0.0011584  -0.0017846
           25          26          27          28          29          30
    1  -0.0005720   0.0004287  -0.0011376  -0.0004527   0.0001883  -0.0013344
    2   0.0017866   0.0002053   0.0006332   0.0000347  -0.0003899  -0.0003439
    3  -0.0007680   0.0017810  -0.0005219  -0.0020531  -0.0004131  -0.0005573
           31          32
    1   0.0001687  -0.0001883
    2  -0.0004856   0.0014022
    3   0.0013221  -0.0002369
 Max gradient component =       8.926E-02
 RMS gradient           =       1.497E-02
 Gradient time:  CPU 311.91 s  wall 21.50 s
 Geometry Optimization Parameters
   NAtoms,    NIC,     NZ,  NCons,   NDum,   NFix, NCnnct, MaxDiis
       32     251       0       0       0       0       0       0


** GEOMETRY OPTIMIZATION IN DELOCALIZED INTERNAL COORDINATES **
   Searching for a Transition State

   Optimization Cycle:   1

                       Coordinates (Angstroms)
     ATOM                X               Y               Z
      1  C         0.7105400000   -2.3883500000    0.0791500000
      2  C        -0.0352900000   -2.1212000000    1.4384800000
      3  C         0.1294900000   -0.6732800000    1.8888600000
      4  C         1.5755300000   -1.4173300000   -0.4354800000
      5  O        -0.9000100000    0.1278300000    1.5837300000
      6  O         1.1371900000   -0.2981800000    2.4521000000
      7  O         2.3317400000   -1.6597500000   -1.5302000000
      8  O         1.3682600000   -0.3036500000   -0.0048000000
      9  C         2.8907600000   -0.4902700000   -2.1538600000
     10  C        -0.6631700000    1.5295200000    1.7953600000
     11  C        -0.4778600000   -2.9089600000   -0.8059900000
     12  C        -0.7323900000   -4.3847500000   -0.4505200000
     13  C        -1.3445600000   -4.2211000000    0.9676400000
     14  C        -1.4608800000   -2.6676500000    1.1031500000
     15  O        -1.6191600000   -2.2480300000   -0.2683200000
     16  H         1.4678200000   -3.1647000000    0.1967500000
     17  H         0.4396300000   -2.7099000000    2.2272600000
     18  H         3.5644100000    0.0241500000   -1.4627600000
     19  H         0.1575800000    1.8562900000    1.1522400000
     20  H        -1.4563900000   -4.8137100000   -1.1490900000
     21  H         0.1737700000   -4.9972300000   -0.4757400000
     22  H        -2.3380000000   -4.6739100000    1.0310100000
     23  H        -0.7284900000   -4.6605100000    1.7584000000
     24  H         3.4370700000   -0.8552400000   -3.0242100000
     25  H         2.0980000000    0.2002000000   -2.4551600000
     26  H        -0.4131800000    1.7281900000    2.8410900000
     27  H        -1.5929800000    2.0263500000    1.5168900000
     28  H        -0.3845000000   -2.6832900000   -1.8694700000
     29  C        -2.6329200000   -2.2233400000    1.9547500000
     30  H        -3.5480700000   -2.6993700000    1.5881500000
     31  H        -2.4786600000   -2.5347700000    2.9942900000
     32  H        -2.7591400000   -1.1423300000    1.9249700000
   Point Group: c1    Number of degrees of freedom:    90


   Energy is   -805.152652313


 Attempting to Generate Delocalized Internal Coordinates

 90 Hessian modes will be used to form the next step
  Hessian Eigenvalues:
     0.003060    0.005835    0.007078    0.007147    0.010506    0.010559
     0.010721    0.021940    0.022360    0.022599    0.023624    0.024582
     0.025015    0.032947    0.036318    0.036769    0.040999    0.045967
     0.046551    0.050835    0.051937    0.055854    0.056432    0.057701
     0.057719    0.060138    0.063413    0.065274    0.066341    0.074130
     0.080807    0.092670    0.098752    0.101356    0.101903    0.105746
     0.106497    0.107132    0.120740    0.127938    0.157254    0.160000
     0.160000    0.160000    0.160000    0.160000    0.160000    0.160000
     0.160000    0.160000    0.175781    0.233981    0.235483    0.245870
     0.249657    0.249950    0.250000    0.250000    0.250000    0.250000
     0.252470    0.262463    0.278136    0.298640    0.308180    0.333588
     0.341175    0.342683    0.342980    0.343515    0.343884    0.343952
     0.343979    0.343991    0.344231    0.344869    0.345015    0.346788
     0.347110    0.347562    0.347686    0.349562    0.354913    0.397988
     0.399685    0.458623    0.545102    0.572760    0.981671    0.990587
**WARNING** Hessian does not have the Desired Local Structure

 Transition State Search - Taking P-RFO Step
 Searching for Lamda that Maximizes Along the Lowest mode
 Value Taken    Lamda =   0.00803991
 Searching for Lamda that Minimizes Along All other modes
 Value Taken    Lamda =  -0.08691483
 Calculated Step too Large.  Step scaled by  0.213280
 Step Taken.  Stepsize is  0.300000

                             Maximum     Tolerance    Cnvgd?
         Gradient           0.073279      0.000001      NO
         Displacement       0.089306      0.000001      NO
         Energy change     *********      0.000000      NO


 New Cartesian Coordinates Obtained by Inverse Iteration

 Displacement from previous Coordinates is:  1.050028
 Adding empirical dispersion correction 
 ----------------------------------------------------------------
 Doing -D3(op) with
 s6 =   1.00000
 s8 =   0.78311
 a1 =   0.30000
 a2 =   4.25000
 n  =  10.00000
 -D3 energy without 3body term =     -0.0354751255 hartrees
 ----------------------------------------------------------------
             Standard Nuclear Orientation (Angstroms)
    I     Atom           X                Y                Z
 ----------------------------------------------------------------
    1      C       0.7121353840    -2.3579624479     0.0949870701
    2      C      -0.0358294734    -2.0857269047     1.4595560370
    3      C       0.0920715978    -0.6356353349     1.9205097424
    4      C       1.6044527867    -1.4002058608    -0.4515846241
    5      O      -0.9529916830     0.1436728997     1.6109565567
    6      O       1.0751844011    -0.2457258844     2.5145665129
    7      O       2.3406886806    -1.7256299462    -1.5366542301
    8      O       1.4727581650    -0.2534531158    -0.0777975142
    9      C       2.9524811417    -0.6134092671    -2.2136845499
   10      C      -0.7581601959     1.5480480271     1.8480613838
   11      C      -0.4799502288    -2.8446723624    -0.8041592788
   12      C      -0.7402278520    -4.3283815557    -0.4978472838
   13      C      -1.3015913819    -4.2058295534     0.9432601093
   14      C      -1.4491794379    -2.6581516658     1.1174917764
   15      O      -1.6200753761    -2.2021227054    -0.2416173775
   16      H       1.4407128101    -3.1639981828     0.2206041475
   17      H       0.4441269947    -2.6601623633     2.2552042865
   18      H       3.6550590462    -0.1025698857    -1.5501277408
   19      H       0.0638074269     1.9074689046     1.2248190159
   20      H      -1.4923496696    -4.7216353457    -1.1870765545
   21      H       0.1560964924    -4.9499759528    -0.5748463749
   22      H      -2.2798312551    -4.6849798548     1.0354949179
   23      H      -0.6450340155    -4.6439843992     1.7007977851
   24      H       3.4738208128    -1.0436180630    -3.0687926055
   25      H       2.1919366643     0.1000774027    -2.5415610939
   26      H      -0.5314155660     1.7367672553     2.9004107077
   27      H      -1.6962120273     2.0236166531     1.5616471437
   28      H      -0.3880957920    -2.5856434902    -1.8596127972
   29      C      -2.6248760805    -2.2626954920     1.9874254124
   30      H      -3.5313375191    -2.7487792963     1.6136424692
   31      H      -2.4571541313    -2.5982845343     3.0169205932
   32      H      -2.7748807191    -1.1846876780     1.9876763577
 ----------------------------------------------------------------
 Nuclear Repulsion Energy =  1253.5093815470 hartrees
 There are       61 alpha and       61 beta electrons
 Applying Cartesian multipole field
    Component          Value
    ---------          -----
     (2,0,0)        1.00000E-11
     (0,2,0)        2.00000E-11
     (0,0,2)       -3.00000E-11
 Nucleus-field energy     =     0.0000000266 hartrees
 Requested basis set is 6-311++G(d,p)
 There are 176 shells and 464 basis functions
 A cutoff of  1.0D-11 yielded  12686 shell pairs
 There are     89779 function pairs (     95757 Cartesian)
 Smallest overlap matrix eigenvalue = 7.78E-07

 Q-Chem warning in module /fs/scratch/osu6415/qchem-kaunlao-vdw/stvman/mkSTV.C, line 281:

 Overlap eigenvalue is smaller than square root of threshold

 Linear dependence detected in AO basis
 Number of orthogonalized atomic orbitals = 463
 Maximum deviation from orthogonality = 1.913E-10
 Guess MOs from SCF MO coefficient file
 Reading MOs from coefficient file
 Reading MOs from coefficient file
 A restricted hybrid HF-DFT SCF calculation will be
 performed using Pulay DIIS extrapolation
 Exchange:     0.2000 Hartree-Fock + 0.0800 Slater + 0.7200 B88
 Correlation:  0.1900 VWN1RPA + 0.8100 LYP
 Using SG-1 standard quadrature grid
 Dispersion:   Grimme D3
 SCF converges when DIIS error is below 1.0E-08
 Geometry optimization detected.  Setting ReadMinima to 0
 Setting SaveMinima to 0
 using 20 threads for integral computing
 -------------------------------------------------------
 OpenMP Integral computing Module                
 Release: version 1.0, May 2013, Q-Chem Inc. Pittsburgh 
 -------------------------------------------------------
 -------------------------------------------------------
 OpenMP BLAS3 based DFT computing Module                
 Release: version 1.0, May 2013, Q-Chem Inc. Pittsburgh 
 -------------------------------------------------------
 ---------------------------------------
  Cycle       Energy         DIIS Error
 ---------------------------------------
    1    -805.1184871665      1.41E-03
    2    -805.1642044139      2.81E-04
    3    -805.1614204933      4.71E-04
    4    -805.1659852039      8.06E-05
    5    -805.1661012429      2.79E-05
    6    -805.1661151863      8.39E-06
    7    -805.1661164989      2.12E-06
    8    -805.1661165858      7.34E-07
    9    -805.1661165978      1.48E-07
   10    -805.1661165983      8.23E-08
   11    -805.1661165995      2.84E-08
   12    -805.1661165964      1.07E-08
   13    -805.1661166016      3.47E-09 Convergence criterion met
 ---------------------------------------
 SCF time:  CPU 811.35 s  wall 42.01 s
 SCF   energy in the final basis set = -805.16611660
 Total energy in the final basis set = -805.16611660
 
 --------------------------------------------------------------
 
                    Orbital Energies (a.u.)
 --------------------------------------------------------------
 
 Alpha MOs
 -- Occupied --
-19.181 -19.161 -19.133 -19.109 -19.095 -10.303 -10.295 -10.242
-10.241 -10.234 -10.216 -10.203 -10.203 -10.181 -10.180 -10.164
 -1.120  -1.102  -1.066  -1.029  -1.009  -0.834  -0.798  -0.782
 -0.746  -0.722  -0.692  -0.659  -0.609  -0.591  -0.572  -0.560
 -0.527  -0.513  -0.501  -0.495  -0.487  -0.485  -0.478  -0.462
 -0.456  -0.438  -0.423  -0.420  -0.417  -0.407  -0.388  -0.383
 -0.373  -0.367  -0.360  -0.360  -0.352  -0.348  -0.339  -0.328
 -0.320  -0.296  -0.285  -0.270  -0.265
 -- Virtual --
 -0.017  -0.014  -0.003   0.001   0.004   0.008   0.013   0.021
  0.026   0.030   0.035   0.038   0.043   0.048   0.051   0.058
  0.065   0.066   0.069   0.078   0.081   0.086   0.091   0.095
  0.097   0.102   0.104   0.107   0.115   0.118   0.120   0.122
  0.127   0.128   0.130   0.133   0.136   0.139   0.143   0.143
  0.145   0.149   0.151   0.154   0.161   0.163   0.163   0.166
  0.170   0.173   0.175   0.176   0.182   0.188   0.190   0.192
  0.194   0.198   0.205   0.210   0.212   0.216   0.225   0.228
  0.230   0.230   0.241   0.242   0.251   0.255   0.258   0.263
  0.272   0.274   0.278   0.280   0.288   0.293   0.297   0.303
  0.306   0.312   0.318   0.320   0.325   0.331   0.336   0.340
  0.345   0.349   0.355   0.358   0.365   0.366   0.368   0.371
  0.379   0.384   0.389   0.391   0.396   0.407   0.410   0.418
  0.421   0.427   0.433   0.439   0.450   0.460   0.467   0.473
  0.492   0.494   0.504   0.514   0.524   0.533   0.544   0.557
  0.561   0.569   0.578   0.592   0.595   0.597   0.607   0.615
  0.620   0.630   0.632   0.647   0.652   0.656   0.659   0.673
  0.677   0.683   0.691   0.697   0.699   0.716   0.719   0.725
  0.729   0.737   0.738   0.742   0.757   0.760   0.768   0.770
  0.776   0.782   0.800   0.806   0.812   0.829   0.841   0.850
  0.866   0.893   0.930   0.939   0.944   0.955   1.002   1.013
  1.017   1.027   1.043   1.053   1.073   1.089   1.110   1.122
  1.124   1.144   1.171   1.173   1.201   1.208   1.213   1.231
  1.243   1.247   1.262   1.278   1.284   1.295   1.313   1.322
  1.342   1.350   1.366   1.374   1.387   1.401   1.415   1.432
  1.440   1.449   1.460   1.466   1.467   1.483   1.493   1.505
  1.528   1.538   1.544   1.553   1.557   1.576   1.578   1.586
  1.592   1.600   1.610   1.625   1.637   1.644   1.653   1.656
  1.668   1.685   1.690   1.700   1.712   1.718   1.727   1.730
  1.746   1.752   1.758   1.775   1.791   1.801   1.811   1.817
  1.822   1.840   1.847   1.859   1.879   1.901   1.909   1.920
  1.942   1.957   1.966   1.982   1.991   2.004   2.018   2.031
  2.042   2.064   2.085   2.098   2.108   2.112   2.123   2.142
  2.153   2.166   2.180   2.198   2.213   2.224   2.235   2.251
  2.284   2.307   2.337   2.344   2.412   2.423   2.444   2.446
  2.460   2.473   2.490   2.494   2.506   2.513   2.521   2.524
  2.537   2.543   2.548   2.572   2.588   2.603   2.622   2.630
  2.663   2.671   2.680   2.701   2.704   2.744   2.756   2.771
  2.777   2.802   2.824   2.836   2.849   2.861   2.870   2.884
  2.890   2.912   2.922   2.943   2.956   3.000   3.011   3.020
  3.039   3.044   3.057   3.071   3.086   3.090   3.102   3.124
  3.145   3.162   3.173   3.179   3.206   3.242   3.244   3.261
  3.269   3.317   3.330   3.352   3.378   3.414   3.437   3.467
  3.563   3.603   3.628   3.654   3.687   3.752   3.765   3.793
  3.820   3.837   3.843   3.877   3.934   3.948   4.026   4.045
  4.064   4.070   4.118   4.123   4.165   4.173   4.202   4.254
  4.331   4.415   4.538   5.035   5.054   5.103   5.171   5.226
  5.259   5.344   5.374   5.442   5.510   5.623   5.642   5.672
  5.893   5.931  23.783  23.812  23.851  23.879  23.910  23.945
 23.950  23.955  23.981  24.024  24.047  49.907  49.945  49.986
 50.031  50.057
 --------------------------------------------------------------
 
          Ground-State Mulliken Net Atomic Charges

     Atom                 Charge (a.u.)
  ----------------------------------------
      1 C                    -0.117936
      2 C                     0.156935
      3 C                    -0.471939
      4 C                    -0.721574
      5 O                    -0.002356
      6 O                    -0.185989
      7 O                    -0.068774
      8 O                    -0.188177
      9 C                    -0.231420
     10 C                    -0.172654
     11 C                     0.475383
     12 C                    -0.564943
     13 C                    -0.339801
     14 C                    -0.076018
     15 O                    -0.050581
     16 H                     0.202689
     17 H                     0.273391
     18 H                     0.182817
     19 H                     0.182089
     20 H                     0.183527
     21 H                     0.129933
     22 H                     0.163646
     23 H                     0.155804
     24 H                     0.155320
     25 H                     0.178783
     26 H                     0.174381
     27 H                     0.148345
     28 H                     0.279017
     29 C                    -0.341709
     30 H                     0.158934
     31 H                     0.158090
     32 H                     0.174788
  ----------------------------------------
  Sum of atomic charges =    -0.000000

 -----------------------------------------------------------------
                    Cartesian Multipole Moments
 -----------------------------------------------------------------
    Charge (ESU x 10^10)
                -0.0000
    Dipole Moment (Debye)
         X      -0.3140      Y      -1.9355      Z      -1.7152
       Tot       2.6051
    Quadrupole Moments (Debye-Ang)
        XX     -94.8937     XY      -1.0477     YY     -82.0379
        XZ     -11.2045     YZ      -1.9945     ZZ     -94.1126
    Octopole Moments (Debye-Ang^2)
       XXX      20.9456    XXY     158.3898    XYY      -8.6502
       YYY     440.9154    XXZ     -61.6491    XYZ      -0.7531
       YYZ     -27.7852    XZZ      -5.3815    YZZ     153.7668
       ZZZ    -163.3485
    Hexadecapole Moments (Debye-Ang^3)
      XXXX   -1470.4678   XXXY    -234.7773   XXYY    -779.4586
      XYYY    -213.9496   YYYY   -3086.2587   XXXZ     305.4297
      XXYZ      14.3044   XYYZ     131.1936   YYYZ      53.7141
      XXZZ    -469.9231   XYZZ     -75.1820   YYZZ    -736.9879
      XZZZ     294.9748   YZZZ      81.5208   ZZZZ   -1398.9116
 -----------------------------------------------------------------
 Calculating analytic gradient of the SCF energy
 Gradient of SCF Energy
            1           2           3           4           5           6
    1   0.0035468  -0.0044981  -0.0118777   0.0206584  -0.0017357   0.0123455
    2   0.0665439  -0.0016869  -0.0026224  -0.0800712  -0.0000438   0.0048525
    3  -0.0184595   0.0023068  -0.0047385   0.0239635   0.0017489  -0.0056242
            7           8           9          10          11          12
    1   0.0006655  -0.0233801  -0.0036348   0.0006239  -0.0022439  -0.0009342
    2   0.0134367  -0.0163583  -0.0022332  -0.0023518   0.0001269   0.0007534
    3  -0.0095326   0.0125745  -0.0001550  -0.0002864   0.0085023   0.0003314
           13          14          15          16          17          18
    1   0.0016803   0.0001131  -0.0024559   0.0108049   0.0006593   0.0008514
    2   0.0011190  -0.0003176   0.0006997   0.0186121   0.0003167   0.0007782
    3  -0.0007134  -0.0028689   0.0005324  -0.0065277   0.0015418   0.0014024
           19          20          21          22          23          24
    1   0.0006058  -0.0006741   0.0010417  -0.0012581   0.0008061   0.0008739
    2   0.0000081  -0.0005886  -0.0012735  -0.0004542  -0.0008120   0.0000859
    3  -0.0010616  -0.0008348  -0.0001882  -0.0001014   0.0008943  -0.0014232
           25          26          27          28          29          30
    1  -0.0004820   0.0003330  -0.0010242  -0.0003919   0.0000655  -0.0010738
    2   0.0013977   0.0001784   0.0005557  -0.0003379  -0.0005663  -0.0004065
    3  -0.0006276   0.0014560  -0.0004176  -0.0018805  -0.0002298  -0.0005253
           31          32
    1   0.0001186  -0.0001288
    2  -0.0003768   0.0010363
    3   0.0010841  -0.0001422
 Max gradient component =       8.007E-02
 RMS gradient           =       1.230E-02
 Gradient time:  CPU 305.03 s  wall 21.61 s
 Geometry Optimization Parameters
   NAtoms,    NIC,     NZ,  NCons,   NDum,   NFix, NCnnct, MaxDiis
       32     251       0       0       0       0       0       0

 Cartesian Hessian Update
 Hessian Updated using Powell/Murtagh-Sargent Update
  Mixing factors:     0.000934 Powell
                      0.999066 Murtagh-Sargent


** GEOMETRY OPTIMIZATION IN DELOCALIZED INTERNAL COORDINATES **
   Searching for a Transition State

   Optimization Cycle:   2

                       Coordinates (Angstroms)
     ATOM                X               Y               Z
      1  C         0.7121353840   -2.3579624479    0.0949870701
      2  C        -0.0358294734   -2.0857269047    1.4595560370
      3  C         0.0920715978   -0.6356353349    1.9205097424
      4  C         1.6044527867   -1.4002058608   -0.4515846241
      5  O        -0.9529916830    0.1436728997    1.6109565567
      6  O         1.0751844011   -0.2457258844    2.5145665129
      7  O         2.3406886806   -1.7256299462   -1.5366542301
      8  O         1.4727581650   -0.2534531158   -0.0777975142
      9  C         2.9524811417   -0.6134092671   -2.2136845499
     10  C        -0.7581601959    1.5480480271    1.8480613838
     11  C        -0.4799502288   -2.8446723624   -0.8041592788
     12  C        -0.7402278520   -4.3283815557   -0.4978472838
     13  C        -1.3015913819   -4.2058295534    0.9432601093
     14  C        -1.4491794379   -2.6581516658    1.1174917764
     15  O        -1.6200753761   -2.2021227054   -0.2416173775
     16  H         1.4407128101   -3.1639981828    0.2206041475
     17  H         0.4441269947   -2.6601623633    2.2552042865
     18  H         3.6550590462   -0.1025698857   -1.5501277408
     19  H         0.0638074269    1.9074689046    1.2248190159
     20  H        -1.4923496696   -4.7216353457   -1.1870765545
     21  H         0.1560964924   -4.9499759528   -0.5748463749
     22  H        -2.2798312551   -4.6849798548    1.0354949179
     23  H        -0.6450340155   -4.6439843992    1.7007977851
     24  H         3.4738208128   -1.0436180630   -3.0687926055
     25  H         2.1919366643    0.1000774027   -2.5415610939
     26  H        -0.5314155660    1.7367672553    2.9004107077
     27  H        -1.6962120273    2.0236166531    1.5616471437
     28  H        -0.3880957920   -2.5856434902   -1.8596127972
     29  C        -2.6248760805   -2.2626954920    1.9874254124
     30  H        -3.5313375191   -2.7487792963    1.6136424692
     31  H        -2.4571541313   -2.5982845343    3.0169205932
     32  H        -2.7748807191   -1.1846876780    1.9876763577
   Point Group: c1    Number of degrees of freedom:    90


   Energy is   -805.166116602

 Hessian Updated using Powell/Murtagh-Sargent Update
  Mixing factors:     0.910616 Powell
                      0.089384 Murtagh-Sargent

 81 Hessian modes will be used to form the next step
  Hessian Eigenvalues:
    -0.067531    0.006278    0.007147    0.007165    0.010559    0.010721
     0.012927    0.021931    0.022467    0.023618    0.023834    0.024398
     0.028795    0.032994    0.036561    0.036864    0.042661    0.046032
     0.050524    0.051000    0.053174    0.055622    0.056619    0.057719
     0.058995    0.060138    0.063464    0.065698    0.066436    0.074258
     0.081636    0.092720    0.099468    0.101356    0.101903    0.105746
     0.106497    0.107164    0.120956    0.134884    0.159996    0.159999
     0.175411    0.181286    0.234487    0.236895    0.248255    0.249570
     0.249949    0.249982    0.252339    0.262273    0.278126    0.297407
     0.308178    0.318744    0.336633    0.341178    0.342683    0.342983
     0.343525    0.343884    0.343951    0.343981    0.343994    0.344233
     0.344873    0.345017    0.346787    0.347557    0.347685    0.348351
     0.349576    0.356807    0.397989    0.399698    0.478347    0.545644
     0.572799    0.981865    0.990792

 Transition State Search - Taking P-RFO Step
 Searching for Lamda that Maximizes Along the Lowest mode
 Value Taken    Lamda =   0.00307045
 Searching for Lamda that Minimizes Along All other modes
 Value Taken    Lamda =  -0.03857412
 Calculated Step too Large.  Step scaled by  0.562857
 Step Taken.  Stepsize is  0.300000

                             Maximum     Tolerance    Cnvgd?
         Gradient           0.048633      0.000001      NO
         Displacement       0.090222      0.000001      NO
         Energy change     -0.013464      0.000000      NO


 New Cartesian Coordinates Obtained by Inverse Iteration

 Displacement from previous Coordinates is:  0.551077
 Adding empirical dispersion correction 
 ----------------------------------------------------------------
 Doing -D3(op) with
 s6 =   1.00000
 s8 =   0.78311
 a1 =   0.30000
 a2 =   4.25000
 n  =  10.00000
 -D3 energy without 3body term =     -0.0355444765 hartrees
 ----------------------------------------------------------------
             Standard Nuclear Orientation (Angstroms)
    I     Atom           X                Y                Z
 ----------------------------------------------------------------
    1      C       0.6921836063    -2.3464690566     0.1076301341
    2      C      -0.0405393070    -2.0864568491     1.4723687261
    3      C       0.0825312380    -0.6349452436     1.9291654465
    4      C       1.5517084229    -1.3172334614    -0.4544241080
    5      O      -0.9434450636     0.1519368304     1.5783683941
    6      O       1.0473719749    -0.2481172637     2.5479030595
    7      O       2.3002953810    -1.7049557473    -1.5088369143
    8      O       1.4814770142    -0.1590889029    -0.0922761285
    9      C       2.9746311109    -0.6454885476    -2.2114340888
   10      C      -0.7530276106     1.5573842389     1.8211382258
   11      C      -0.4945157318    -2.8213904052    -0.8030963785
   12      C      -0.7484688835    -4.3099348772    -0.5231570828
   13      C      -1.2835519093    -4.2143391568     0.9311554376
   14      C      -1.4484682755    -2.6706283758     1.1317643731
   15      O      -1.6336764296    -2.1964423243    -0.2199524192
   16      H       1.3993433197    -3.1766125118     0.2353882639
   17      H       0.4458654046    -2.6553305819     2.2668267890
   18      H       3.6834323640    -0.1392633041    -1.5533519091
   19      H       0.0958724856     1.9145695385     1.2352277217
   20      H      -1.5136218034    -4.6867329363    -1.2056889327
   21      H       0.1448354589    -4.9296137440    -0.6288766012
   22      H      -2.2499747625    -4.7113936239     1.0398194433
   23      H      -0.6035809923    -4.6501640136     1.6675003796
   24      H       3.4941905471    -1.1321363550    -3.0353959062
   25      H       2.2519462408     0.0836149022    -2.5839068593
   26      H      -0.5714751508     1.7463912155     2.8809888363
   27      H      -1.6755957827     2.0352933763     1.4949945293
   28      H      -0.4069046093    -2.5347962381    -1.8503288983
   29      C      -2.6196344694    -2.3006631712     2.0176856073
   30      H      -3.5237724518    -2.7903416811     1.6459633845
   31      H      -2.4382981566    -2.6497482620     3.0394165352
   32      H      -2.7809931790    -1.2251734674     2.0360909400
 ----------------------------------------------------------------
 Nuclear Repulsion Energy =  1252.4918208415 hartrees
 There are       61 alpha and       61 beta electrons
 Applying Cartesian multipole field
    Component          Value
    ---------          -----
     (2,0,0)        1.00000E-11
     (0,2,0)        2.00000E-11
     (0,0,2)       -3.00000E-11
 Nucleus-field energy     =     0.0000000264 hartrees
 Requested basis set is 6-311++G(d,p)
 There are 176 shells and 464 basis functions
 A cutoff of  1.0D-11 yielded  12683 shell pairs
 There are     89834 function pairs (     95827 Cartesian)
 Smallest overlap matrix eigenvalue = 7.58E-07

 Q-Chem warning in module /fs/scratch/osu6415/qchem-kaunlao-vdw/stvman/mkSTV.C, line 281:

 Overlap eigenvalue is smaller than square root of threshold

 Linear dependence detected in AO basis
 Number of orthogonalized atomic orbitals = 463
 Maximum deviation from orthogonality = 1.190E-10
 Guess MOs from SCF MO coefficient file
 Reading MOs from coefficient file
 Reading MOs from coefficient file
 A restricted hybrid HF-DFT SCF calculation will be
 performed using Pulay DIIS extrapolation
 Exchange:     0.2000 Hartree-Fock + 0.0800 Slater + 0.7200 B88
 Correlation:  0.1900 VWN1RPA + 0.8100 LYP
 Using SG-1 standard quadrature grid
 Dispersion:   Grimme D3
 SCF converges when DIIS error is below 1.0E-08
 Geometry optimization detected.  Setting ReadMinima to 0
 Setting SaveMinima to 0
 using 20 threads for integral computing
 -------------------------------------------------------
 OpenMP Integral computing Module                
 Release: version 1.0, May 2013, Q-Chem Inc. Pittsburgh 
 -------------------------------------------------------
 -------------------------------------------------------
 OpenMP BLAS3 based DFT computing Module                
 Release: version 1.0, May 2013, Q-Chem Inc. Pittsburgh 
 -------------------------------------------------------
 ---------------------------------------
  Cycle       Energy         DIIS Error
 ---------------------------------------
    1    -805.1719005323      1.08E-03
    2    -805.1796718287      2.61E-04
    3    -805.1764291877      4.90E-04
    4    -805.1811919572      6.52E-05
    5    -805.1812701033      2.19E-05
    6    -805.1812799574      5.06E-06
    7    -805.1812803672      2.50E-06
    8    -805.1812804850      5.74E-07
    9    -805.1812804909      2.37E-07
   10    -805.1812804911      8.88E-08
   11    -805.1812804916      2.43E-08
   12    -805.1812804947      9.90E-09 Convergence criterion met
 ---------------------------------------
 SCF time:  CPU 759.79 s  wall 40.11 s
 SCF   energy in the final basis set = -805.18128049
 Total energy in the final basis set = -805.18128049
 
 --------------------------------------------------------------
 
                    Orbital Energies (a.u.)
 --------------------------------------------------------------
 
 Alpha MOs
 -- Occupied --
-19.180 -19.160 -19.132 -19.114 -19.097 -10.307 -10.294 -10.242
-10.240 -10.233 -10.215 -10.205 -10.202 -10.181 -10.181 -10.164
 -1.120  -1.102  -1.065  -1.028  -1.011  -0.833  -0.796  -0.783
 -0.746  -0.721  -0.692  -0.655  -0.608  -0.591  -0.571  -0.559
 -0.528  -0.511  -0.502  -0.493  -0.487  -0.486  -0.478  -0.463
 -0.456  -0.436  -0.424  -0.421  -0.417  -0.407  -0.389  -0.384
 -0.373  -0.368  -0.362  -0.360  -0.354  -0.349  -0.339  -0.328
 -0.320  -0.297  -0.286  -0.274  -0.266
 -- Virtual --
 -0.017  -0.012  -0.004   0.002   0.004   0.008   0.013   0.021
  0.026   0.030   0.035   0.038   0.043   0.048   0.050   0.058
  0.065   0.066   0.069   0.078   0.081   0.087   0.091   0.095
  0.098   0.103   0.105   0.106   0.115   0.117   0.120   0.122
  0.127   0.129   0.130   0.132   0.136   0.139   0.142   0.143
  0.146   0.150   0.152   0.154   0.161   0.163   0.163   0.165
  0.170   0.172   0.175   0.176   0.182   0.186   0.190   0.192
  0.194   0.197   0.205   0.210   0.213   0.215   0.224   0.228
  0.230   0.231   0.239   0.243   0.252   0.255   0.259   0.263
  0.271   0.273   0.278   0.280   0.288   0.291   0.295   0.302
  0.306   0.312   0.318   0.320   0.324   0.331   0.336   0.339
  0.346   0.351   0.353   0.355   0.364   0.365   0.369   0.370
  0.378   0.386   0.389   0.391   0.399   0.408   0.411   0.416
  0.422   0.424   0.430   0.439   0.450   0.456   0.467   0.472
  0.490   0.495   0.503   0.515   0.524   0.528   0.543   0.557
  0.563   0.570   0.575   0.592   0.595   0.598   0.606   0.616
  0.621   0.628   0.633   0.645   0.651   0.656   0.659   0.674
  0.675   0.680   0.689   0.696   0.698   0.717   0.718   0.724
  0.727   0.735   0.738   0.743   0.755   0.759   0.764   0.770
  0.778   0.781   0.799   0.804   0.813   0.828   0.838   0.850
  0.867   0.895   0.930   0.941   0.952   0.963   1.003   1.015
  1.019   1.023   1.044   1.059   1.073   1.090   1.114   1.124
  1.129   1.152   1.169   1.182   1.201   1.204   1.211   1.231
  1.244   1.249   1.257   1.275   1.282   1.297   1.312   1.317
  1.343   1.351   1.368   1.375   1.389   1.405   1.415   1.430
  1.439   1.448   1.458   1.465   1.470   1.482   1.491   1.500
  1.524   1.534   1.543   1.553   1.561   1.572   1.578   1.586
  1.592   1.601   1.611   1.624   1.639   1.645   1.656   1.659
  1.669   1.687   1.692   1.701   1.706   1.717   1.726   1.733
  1.746   1.754   1.757   1.774   1.791   1.799   1.808   1.816
  1.821   1.833   1.850   1.859   1.874   1.897   1.902   1.919
  1.943   1.953   1.964   1.978   1.981   2.005   2.018   2.031
  2.037   2.066   2.089   2.099   2.106   2.118   2.127   2.141
  2.160   2.166   2.181   2.200   2.216   2.223   2.234   2.263
  2.276   2.303   2.339   2.345   2.410   2.423   2.445   2.446
  2.462   2.476   2.490   2.495   2.506   2.514   2.522   2.527
  2.536   2.546   2.550   2.572   2.587   2.603   2.618   2.630
  2.661   2.669   2.676   2.698   2.702   2.740   2.754   2.771
  2.781   2.799   2.823   2.834   2.846   2.861   2.869   2.881
  2.892   2.909   2.920   2.941   2.962   2.996   3.011   3.021
  3.033   3.042   3.053   3.068   3.085   3.092   3.102   3.118
  3.140   3.162   3.170   3.181   3.202   3.237   3.244   3.259
  3.271   3.318   3.330   3.346   3.380   3.408   3.432   3.458
  3.580   3.607   3.630   3.653   3.674   3.756   3.766   3.795
  3.821   3.836   3.839   3.878   3.935   3.949   4.030   4.052
  4.066   4.079   4.122   4.125   4.167   4.173   4.198   4.259
  4.314   4.416   4.520   5.029   5.051   5.104   5.169   5.231
  5.259   5.330   5.379   5.441   5.511   5.623   5.640   5.672
  5.893   5.931  23.784  23.823  23.854  23.885  23.914  23.942
 23.951  23.958  23.969  23.984  24.034  49.906  49.947  49.990
 50.030  50.056
 --------------------------------------------------------------
 
          Ground-State Mulliken Net Atomic Charges

     Atom                 Charge (a.u.)
  ----------------------------------------
      1 C                    -0.076283
      2 C                     0.141400
      3 C                    -0.472604
      4 C                    -0.749808
      5 O                     0.004232
      6 O                    -0.180180
      7 O                    -0.061191
      8 O                    -0.191457
      9 C                    -0.233326
     10 C                    -0.178085
     11 C                     0.435534
     12 C                    -0.552613
     13 C                    -0.346751
     14 C                    -0.083563
     15 O                    -0.053964
     16 H                     0.225350
     17 H                     0.272778
     18 H                     0.182535
     19 H                     0.183568
     20 H                     0.183221
     21 H                     0.131851
     22 H                     0.164432
     23 H                     0.155886
     24 H                     0.154045
     25 H                     0.179041
     26 H                     0.172959
     27 H                     0.150377
     28 H                     0.277314
     29 C                    -0.323347
     30 H                     0.159447
     31 H                     0.156846
     32 H                     0.172355
  ----------------------------------------
  Sum of atomic charges =    -0.000000

 -----------------------------------------------------------------
                    Cartesian Multipole Moments
 -----------------------------------------------------------------
    Charge (ESU x 10^10)
                -0.0000
    Dipole Moment (Debye)
         X      -0.2712      Y      -2.0611      Z      -1.7799
       Tot       2.7367
    Quadrupole Moments (Debye-Ang)
        XX     -94.7630     XY      -1.1966     YY     -81.8600
        XZ     -11.3051     YZ      -1.8613     ZZ     -94.1644
    Octopole Moments (Debye-Ang^2)
       XXX      23.8239    XXY     156.7278    XYY      -8.2266
       YYY     437.3838    XXZ     -62.2939    XYZ       0.2062
       YYZ     -28.1258    XZZ      -4.9112    YZZ     152.1255
       ZZZ    -165.0075
    Hexadecapole Moments (Debye-Ang^3)
      XXXX   -1457.1680   XXXY    -245.3394   XXYY    -774.4127
      XYYY    -221.6999   YYYY   -3071.6880   XXXZ     302.3623
      XXYZ      18.2664   XYYZ     128.7096   YYYZ      57.6808
      XXZZ    -466.4430   XYZZ     -79.0923   YYZZ    -734.4471
      XZZZ     293.3093   YZZZ      86.3615   ZZZZ   -1407.4956
 -----------------------------------------------------------------
 Calculating analytic gradient of the SCF energy
 Gradient of SCF Energy
            1           2           3           4           5           6
    1  -0.0056885  -0.0013233  -0.0063321   0.0114833  -0.0001194   0.0071339
    2   0.0412072  -0.0018675  -0.0026428  -0.0528534   0.0002851   0.0036354
    3  -0.0113781   0.0022738  -0.0031049   0.0101368   0.0012966  -0.0065982
            7           8           9          10          11          12
    1   0.0014218  -0.0112769  -0.0023755   0.0002587  -0.0006775  -0.0006517
    2   0.0079214   0.0015572  -0.0008822  -0.0010269  -0.0014051   0.0002181
    3  -0.0054772   0.0124156   0.0000310  -0.0000903   0.0046193  -0.0002644
           13          14          15          16          17          18
    1   0.0011987   0.0009755   0.0000452   0.0067273   0.0002402   0.0003649
    2   0.0006508  -0.0009896   0.0002522   0.0057673   0.0006923   0.0005688
    3  -0.0005846  -0.0021986   0.0001559  -0.0014173   0.0014086   0.0004624
           19          20          21          22          23          24
    1   0.0003390  -0.0003647   0.0004066  -0.0006372   0.0003214   0.0004234
    2   0.0002318  -0.0002100  -0.0006118  -0.0002786  -0.0002870  -0.0002872
    3  -0.0005168  -0.0005025  -0.0002326   0.0000872   0.0003739  -0.0005724
           25          26          27          28          29          30
    1  -0.0002687   0.0001974  -0.0004415  -0.0003404  -0.0004414  -0.0003801
    2   0.0006445   0.0001411   0.0004096   0.0000827  -0.0002709  -0.0003770
    3  -0.0001106   0.0006280  -0.0002224  -0.0010025   0.0001611  -0.0003576
           31          32
    1   0.0000334  -0.0002517
    2  -0.0002284  -0.0000470
    3   0.0005447   0.0000359
 Max gradient component =       5.285E-02
 RMS gradient           =       7.620E-03
 Gradient time:  CPU 308.46 s  wall 21.55 s
 Geometry Optimization Parameters
   NAtoms,    NIC,     NZ,  NCons,   NDum,   NFix, NCnnct, MaxDiis
       32     251       0       0       0       0       0       0

 Cartesian Hessian Update
 Hessian Updated using Powell/Murtagh-Sargent Update
  Mixing factors:     0.306550 Powell
                      0.693450 Murtagh-Sargent


** GEOMETRY OPTIMIZATION IN DELOCALIZED INTERNAL COORDINATES **
   Searching for a Transition State

   Optimization Cycle:   3

                       Coordinates (Angstroms)
     ATOM                X               Y               Z
      1  C         0.6921836063   -2.3464690566    0.1076301341
      2  C        -0.0405393070   -2.0864568491    1.4723687261
      3  C         0.0825312380   -0.6349452436    1.9291654465
      4  C         1.5517084229   -1.3172334614   -0.4544241080
      5  O        -0.9434450636    0.1519368304    1.5783683941
      6  O         1.0473719749   -0.2481172637    2.5479030595
      7  O         2.3002953810   -1.7049557473   -1.5088369143
      8  O         1.4814770142   -0.1590889029   -0.0922761285
      9  C         2.9746311109   -0.6454885476   -2.2114340888
     10  C        -0.7530276106    1.5573842389    1.8211382258
     11  C        -0.4945157318   -2.8213904052   -0.8030963785
     12  C        -0.7484688835   -4.3099348772   -0.5231570828
     13  C        -1.2835519093   -4.2143391568    0.9311554376
     14  C        -1.4484682755   -2.6706283758    1.1317643731
     15  O        -1.6336764296   -2.1964423243   -0.2199524192
     16  H         1.3993433197   -3.1766125118    0.2353882639
     17  H         0.4458654046   -2.6553305819    2.2668267890
     18  H         3.6834323640   -0.1392633041   -1.5533519091
     19  H         0.0958724856    1.9145695385    1.2352277217
     20  H        -1.5136218034   -4.6867329363   -1.2056889327
     21  H         0.1448354589   -4.9296137440   -0.6288766012
     22  H        -2.2499747625   -4.7113936239    1.0398194433
     23  H        -0.6035809923   -4.6501640136    1.6675003796
     24  H         3.4941905471   -1.1321363550   -3.0353959062
     25  H         2.2519462408    0.0836149022   -2.5839068593
     26  H        -0.5714751508    1.7463912155    2.8809888363
     27  H        -1.6755957827    2.0352933763    1.4949945293
     28  H        -0.4069046093   -2.5347962381   -1.8503288983
     29  C        -2.6196344694   -2.3006631712    2.0176856073
     30  H        -3.5237724518   -2.7903416811    1.6459633845
     31  H        -2.4382981566   -2.6497482620    3.0394165352
     32  H        -2.7809931790   -1.2251734674    2.0360909400
   Point Group: c1    Number of degrees of freedom:    90


   Energy is   -805.181280495

 Hessian Updated using Powell/Murtagh-Sargent Update
  Mixing factors:     0.967165 Powell
                      0.032835 Murtagh-Sargent

 83 Hessian modes will be used to form the next step
  Hessian Eigenvalues:
    -0.056792    0.005814    0.006886    0.007158    0.010559    0.010718
     0.012482    0.021479    0.022370    0.023586    0.023812    0.028494
     0.032257    0.034530    0.036384    0.036757    0.042642    0.047202
     0.050535    0.050856    0.053325    0.056516    0.057707    0.058598
     0.060102    0.062934    0.064075    0.065673    0.066390    0.074225
     0.082796    0.093205    0.099922    0.101358    0.101903    0.105749
     0.106496    0.108753    0.121978    0.136030    0.159986    0.159999
     0.160235    0.174681    0.186617    0.234647    0.241219    0.243984
     0.249580    0.249961    0.249978    0.250872    0.253194    0.262278
     0.278127    0.296434    0.308182    0.311583    0.335656    0.341174
     0.342682    0.342984    0.343518    0.343881    0.343953    0.343980
     0.343989    0.344231    0.344866    0.345012    0.346781    0.347555
     0.347684    0.349309    0.349928    0.356675    0.397993    0.399751
     0.467200    0.545565    0.572796    0.981933    0.995989

 Transition State Search - Taking P-RFO Step
 Searching for Lamda that Maximizes Along the Lowest mode
 Value Taken    Lamda =   0.00357170
 Searching for Lamda that Minimizes Along All other modes
 Value Taken    Lamda =  -0.01768754
 Calculated Step too Large.  Step scaled by  0.565117
 Step Taken.  Stepsize is  0.300000

                             Maximum     Tolerance    Cnvgd?
         Gradient           0.031508      0.000001      NO
         Displacement       0.099345      0.000001      NO
         Energy change     -0.015164      0.000000      NO


 New Cartesian Coordinates Obtained by Inverse Iteration

 Displacement from previous Coordinates is:  0.680675
 Adding empirical dispersion correction 
 ----------------------------------------------------------------
 Doing -D3(op) with
 s6 =   1.00000
 s8 =   0.78311
 a1 =   0.30000
 a2 =   4.25000
 n  =  10.00000
 -D3 energy without 3body term =     -0.0356781415 hartrees
 ----------------------------------------------------------------
             Standard Nuclear Orientation (Angstroms)
    I     Atom           X                Y                Z
 ----------------------------------------------------------------
    1      C       0.7017069921    -2.3413865230     0.1199479298
    2      C      -0.0296823747    -2.0798288321     1.4826017385
    3      C       0.0636233303    -0.6288733440     1.9449703726
    4      C       1.5349212749    -1.2720004103    -0.4600650819
    5      O      -0.9496693669     0.1480547010     1.5396341525
    6      O       0.9797196067    -0.2460710179     2.6328618598
    7      O       2.2731714493    -1.7162252362    -1.4998458772
    8      O       1.4816875644    -0.1130356594    -0.1194272399
    9      C       3.0011251760    -0.7111452783    -2.2302720678
   10      C      -0.8007663463     1.5521325212     1.8176183850
   11      C      -0.4939101366    -2.7830113989    -0.8008073781
   12      C      -0.7618772705    -4.2744803471    -0.5560013959
   13      C      -1.2544506698    -4.2078872046     0.9157016316
   14      C      -1.4332746178    -2.6682502511     1.1436171740
   15      O      -1.6309578737    -2.1700792361    -0.1972282498
   16      H       1.3928067728    -3.1794568716     0.2380343448
   17      H       0.4582075894    -2.6393036052     2.2817220739
   18      H       3.7292495516    -0.2219069159    -1.5816534732
   19      H       0.0810973707     1.9323797932     1.3000174525
   20      H      -1.5547950866    -4.6165424422    -1.2239570313
   21      H       0.1156027230    -4.9068906624    -0.7053428645
   22      H      -2.2056626058    -4.7255020237     1.0524421135
   23      H      -0.5404106555    -4.6397316944     1.6209830656
   24      H       3.5013081064    -1.2451930008    -3.0358350846
   25      H       2.3173425219     0.0399775195    -2.6300689173
   26      H      -0.6983331001     1.7246777489     2.8903201794
   27      H      -1.7062387293     2.0191781285     1.4349779043
   28      H      -0.4080211452    -2.4643741701    -1.8377860022
   29      C      -2.5935054101    -2.3115891968     2.0470866279
   30      H      -3.5041338474    -2.7926499152     1.6817511585
   31      H      -2.3992847656    -2.6741014147     3.0611991479
   32      H      -2.7504560276    -1.2351537602     2.0814733515
 ----------------------------------------------------------------
 Nuclear Repulsion Energy =  1252.2587328274 hartrees
 There are       61 alpha and       61 beta electrons
 Applying Cartesian multipole field
    Component          Value
    ---------          -----
     (2,0,0)        1.00000E-11
     (0,2,0)        2.00000E-11
     (0,0,2)       -3.00000E-11
 Nucleus-field energy     =     0.0000000253 hartrees
 Requested basis set is 6-311++G(d,p)
 There are 176 shells and 464 basis functions
 A cutoff of  1.0D-11 yielded  12683 shell pairs
 There are     89950 function pairs (     95967 Cartesian)
 Smallest overlap matrix eigenvalue = 7.39E-07

 Q-Chem warning in module /fs/scratch/osu6415/qchem-kaunlao-vdw/stvman/mkSTV.C, line 281:

 Overlap eigenvalue is smaller than square root of threshold

 Linear dependence detected in AO basis
 Number of orthogonalized atomic orbitals = 463
 Maximum deviation from orthogonality = 6.941E-11
 Guess MOs from SCF MO coefficient file
 Reading MOs from coefficient file
 Reading MOs from coefficient file
 A restricted hybrid HF-DFT SCF calculation will be
 performed using Pulay DIIS extrapolation
 Exchange:     0.2000 Hartree-Fock + 0.0800 Slater + 0.7200 B88
 Correlation:  0.1900 VWN1RPA + 0.8100 LYP
 Using SG-1 standard quadrature grid
 Dispersion:   Grimme D3
 SCF converges when DIIS error is below 1.0E-08
 Geometry optimization detected.  Setting ReadMinima to 0
 Setting SaveMinima to 0
 using 20 threads for integral computing
 -------------------------------------------------------
 OpenMP Integral computing Module                
 Release: version 1.0, May 2013, Q-Chem Inc. Pittsburgh 
 -------------------------------------------------------
 -------------------------------------------------------
 OpenMP BLAS3 based DFT computing Module                
 Release: version 1.0, May 2013, Q-Chem Inc. Pittsburgh 
 -------------------------------------------------------
 ---------------------------------------
  Cycle       Energy         DIIS Error
 ---------------------------------------
    1    -805.1655011670      1.04E-03
    2    -805.1861332991      2.14E-04
    3    -805.1836000414      4.29E-04
    4    -805.1872186582      4.50E-05
    5    -805.1872533143      2.22E-05
    6    -805.1872629025      5.36E-06
    7    -805.1872633740      2.32E-06
    8    -805.1872634811      6.13E-07
    9    -805.1872634887      1.97E-07
   10    -805.1872634895      8.37E-08
   11    -805.1872634898      3.33E-08
   12    -805.1872634910      1.13E-08
   13    -805.1872634879      3.31E-09 Convergence criterion met
 ---------------------------------------
 SCF time:  CPU 805.40 s  wall 41.91 s
 SCF   energy in the final basis set = -805.18726349
 Total energy in the final basis set = -805.18726349
 
 --------------------------------------------------------------
 
                    Orbital Energies (a.u.)
 --------------------------------------------------------------
 
 Alpha MOs
 -- Occupied --
-19.180 -19.160 -19.130 -19.118 -19.098 -10.309 -10.294 -10.241
-10.239 -10.234 -10.215 -10.205 -10.200 -10.181 -10.180 -10.164
 -1.120  -1.102  -1.064  -1.032  -1.013  -0.832  -0.796  -0.782
 -0.746  -0.721  -0.691  -0.653  -0.607  -0.591  -0.571  -0.559
 -0.528  -0.510  -0.502  -0.493  -0.488  -0.485  -0.479  -0.463
 -0.456  -0.436  -0.425  -0.420  -0.417  -0.408  -0.391  -0.383
 -0.374  -0.368  -0.362  -0.360  -0.355  -0.350  -0.338  -0.328
 -0.322  -0.298  -0.289  -0.275  -0.266
 -- Virtual --
 -0.016  -0.012  -0.004   0.003   0.005   0.008   0.013   0.022
  0.026   0.030   0.035   0.038   0.043   0.048   0.050   0.058
  0.064   0.067   0.069   0.078   0.080   0.088   0.091   0.096
  0.098   0.103   0.105   0.106   0.116   0.117   0.120   0.121
  0.127   0.128   0.130   0.130   0.136   0.140   0.142   0.143
  0.147   0.150   0.152   0.155   0.160   0.162   0.163   0.166
  0.170   0.172   0.175   0.177   0.181   0.186   0.189   0.192
  0.194   0.196   0.205   0.211   0.214   0.215   0.223   0.228
  0.230   0.231   0.239   0.242   0.252   0.255   0.261   0.264
  0.271   0.272   0.277   0.280   0.289   0.290   0.294   0.303
  0.307   0.313   0.318   0.319   0.324   0.331   0.336   0.339
  0.345   0.351   0.353   0.355   0.362   0.365   0.369   0.371
  0.376   0.386   0.388   0.390   0.404   0.407   0.410   0.413
  0.422   0.423   0.430   0.438   0.449   0.454   0.467   0.472
  0.489   0.498   0.506   0.516   0.523   0.529   0.542   0.556
  0.564   0.571   0.575   0.591   0.594   0.600   0.606   0.618
  0.622   0.629   0.634   0.643   0.649   0.658   0.659   0.674
  0.676   0.681   0.688   0.695   0.697   0.715   0.718   0.720
  0.728   0.735   0.738   0.743   0.754   0.759   0.761   0.770
  0.780   0.782   0.799   0.803   0.812   0.827   0.837   0.852
  0.866   0.894   0.927   0.945   0.960   0.970   1.006   1.018
  1.018   1.024   1.043   1.059   1.077   1.091   1.117   1.126
  1.134   1.164   1.169   1.185   1.198   1.204   1.216   1.230
  1.246   1.249   1.255   1.267   1.277   1.300   1.312   1.317
  1.341   1.344   1.375   1.377   1.395   1.408   1.414   1.425
  1.436   1.450   1.456   1.459   1.472   1.482   1.490   1.496
  1.520   1.533   1.543   1.556   1.564   1.569   1.577   1.586
  1.593   1.604   1.608   1.625   1.641   1.646   1.653   1.666
  1.673   1.689   1.694   1.700   1.705   1.716   1.727   1.734
  1.747   1.756   1.760   1.775   1.790   1.797   1.806   1.814
  1.822   1.833   1.853   1.859   1.870   1.896   1.902   1.920
  1.943   1.952   1.964   1.974   1.982   2.008   2.016   2.027
  2.035   2.066   2.087   2.097   2.106   2.130   2.131   2.144
  2.163   2.167   2.183   2.203   2.218   2.223   2.233   2.266
  2.273   2.298   2.343   2.347   2.409   2.424   2.444   2.446
  2.462   2.476   2.491   2.495   2.506   2.515   2.522   2.527
  2.538   2.548   2.553   2.572   2.588   2.604   2.621   2.632
  2.660   2.666   2.675   2.693   2.704   2.738   2.753   2.768
  2.782   2.797   2.823   2.833   2.843   2.862   2.867   2.880
  2.891   2.906   2.920   2.937   2.966   2.988   3.017   3.020
  3.028   3.038   3.053   3.064   3.080   3.091   3.102   3.114
  3.136   3.159   3.165   3.183   3.202   3.236   3.245   3.257
  3.276   3.321   3.331   3.346   3.388   3.404   3.430   3.455
  3.587   3.605   3.631   3.662   3.675   3.757   3.767   3.796
  3.822   3.837   3.839   3.877   3.933   3.957   4.035   4.056
  4.065   4.083   4.120   4.127   4.169   4.173   4.196   4.260
  4.306   4.419   4.511   5.030   5.053   5.107   5.166   5.236
  5.257   5.317   5.384   5.444   5.516   5.625   5.641   5.674
  5.894   5.925  23.787  23.835  23.858  23.889  23.913  23.933
 23.953  23.959  23.962  23.984  24.035  49.905  49.948  49.995
 50.029  50.052
 --------------------------------------------------------------
 
          Ground-State Mulliken Net Atomic Charges

     Atom                 Charge (a.u.)
  ----------------------------------------
      1 C                    -0.087730
      2 C                     0.101168
      3 C                    -0.481941
      4 C                    -0.677287
      5 O                     0.005916
      6 O                    -0.178387
      7 O                    -0.057310
      8 O                    -0.189996
      9 C                    -0.231898
     10 C                    -0.184390
     11 C                     0.363072
     12 C                    -0.542876
     13 C                    -0.351772
     14 C                    -0.079627
     15 O                    -0.053199
     16 H                     0.239969
     17 H                     0.270451
     18 H                     0.180999
     19 H                     0.184621
     20 H                     0.181551
     21 H                     0.134469
     22 H                     0.164565
     23 H                     0.156703
     24 H                     0.154887
     25 H                     0.179472
     26 H                     0.172954
     27 H                     0.152803
     28 H                     0.273077
     29 C                    -0.286488
     30 H                     0.161486
     31 H                     0.154856
     32 H                     0.169881
  ----------------------------------------
  Sum of atomic charges =    -0.000000

 -----------------------------------------------------------------
                    Cartesian Multipole Moments
 -----------------------------------------------------------------
    Charge (ESU x 10^10)
                -0.0000
    Dipole Moment (Debye)
         X      -0.1472      Y      -2.0958      Z      -1.9065
       Tot       2.8370
    Quadrupole Moments (Debye-Ang)
        XX     -94.0785     XY      -1.6479     YY     -82.1604
        XZ     -11.5100     YZ      -1.5869     ZZ     -94.5759
    Octopole Moments (Debye-Ang^2)
       XXX      27.0245    XXY     155.0380    XYY      -7.5636
       YYY     436.7174    XXZ     -62.7771    XYZ       0.8790
       YYZ     -28.8082    XZZ      -4.6158    YZZ     151.1228
       ZZZ    -169.2575
    Hexadecapole Moments (Debye-Ang^3)
      XXXX   -1442.2411   XXXY    -241.4450   XXYY    -766.7036
      XYYY    -214.6307   YYYY   -3049.1860   XXXZ     305.7578
      XXYZ      21.0670   XYYZ     128.3068   YYYZ      55.7410
      XXZZ    -464.4973   XYZZ     -79.0365   YYZZ    -733.8164
      XZZZ     293.3213   YZZZ      86.2310   ZZZZ   -1441.6141
 -----------------------------------------------------------------
 Calculating analytic gradient of the SCF energy
 Gradient of SCF Energy
            1           2           3           4           5           6
    1  -0.0015187  -0.0011088  -0.0023817   0.0089398  -0.0012595   0.0032820
    2   0.0226513  -0.0008719   0.0003889  -0.0263430  -0.0009039   0.0003679
    3  -0.0079606   0.0026012  -0.0023982   0.0052968   0.0007739  -0.0043836
            7           8           9          10          11          12
    1  -0.0010141  -0.0079703  -0.0010514   0.0001438   0.0006802  -0.0007814
    2   0.0020248  -0.0011615  -0.0005730  -0.0001622  -0.0005247  -0.0001886
    3  -0.0024784   0.0085426  -0.0002068   0.0000496   0.0025339  -0.0008073
           13          14          15          16          17          18
    1   0.0013143   0.0009731  -0.0007724   0.0028949  -0.0000818  -0.0000378
    2   0.0005336  -0.0009452   0.0003108   0.0038206   0.0012815   0.0002027
    3  -0.0005429  -0.0016700   0.0002637  -0.0003893   0.0012627   0.0001523
           19          20          21          22          23          24
    1   0.0001834  -0.0002891   0.0000403  -0.0001585   0.0002711   0.0001727
    2  -0.0000883   0.0000819  -0.0003466  -0.0001916  -0.0001202  -0.0002295
    3  -0.0001892  -0.0000648  -0.0003862   0.0003471   0.0000344  -0.0003021
           25          26          27          28          29          30
    1  -0.0000176   0.0000948  -0.0002149  -0.0002550  -0.0000850  -0.0001193
    2   0.0004152  -0.0000182   0.0000240   0.0005729  -0.0002135  -0.0001346
    3  -0.0000820   0.0002682  -0.0000763  -0.0002575  -0.0000607  -0.0001372
           31          32
    1   0.0001031   0.0000234
    2  -0.0000878   0.0004281
    3   0.0001937   0.0000730
 Max gradient component =       2.634E-02
 RMS gradient           =       4.120E-03
 Gradient time:  CPU 309.76 s  wall 21.46 s
 Geometry Optimization Parameters
   NAtoms,    NIC,     NZ,  NCons,   NDum,   NFix, NCnnct, MaxDiis
       32     251       0       0       0       0       0       0

 Cartesian Hessian Update
 Hessian Updated using Powell/Murtagh-Sargent Update
  Mixing factors:     0.755880 Powell
                      0.244120 Murtagh-Sargent


** GEOMETRY OPTIMIZATION IN DELOCALIZED INTERNAL COORDINATES **
   Searching for a Transition State

   Optimization Cycle:   4

                       Coordinates (Angstroms)
     ATOM                X               Y               Z
      1  C         0.7017069921   -2.3413865230    0.1199479298
      2  C        -0.0296823747   -2.0798288321    1.4826017385
      3  C         0.0636233303   -0.6288733440    1.9449703726
      4  C         1.5349212749   -1.2720004103   -0.4600650819
      5  O        -0.9496693669    0.1480547010    1.5396341525
      6  O         0.9797196067   -0.2460710179    2.6328618598
      7  O         2.2731714493   -1.7162252362   -1.4998458772
      8  O         1.4816875644   -0.1130356594   -0.1194272399
      9  C         3.0011251760   -0.7111452783   -2.2302720678
     10  C        -0.8007663463    1.5521325212    1.8176183850
     11  C        -0.4939101366   -2.7830113989   -0.8008073781
     12  C        -0.7618772705   -4.2744803471   -0.5560013959
     13  C        -1.2544506698   -4.2078872046    0.9157016316
     14  C        -1.4332746178   -2.6682502511    1.1436171740
     15  O        -1.6309578737   -2.1700792361   -0.1972282498
     16  H         1.3928067728   -3.1794568716    0.2380343448
     17  H         0.4582075894   -2.6393036052    2.2817220739
     18  H         3.7292495516   -0.2219069159   -1.5816534732
     19  H         0.0810973707    1.9323797932    1.3000174525
     20  H        -1.5547950866   -4.6165424422   -1.2239570313
     21  H         0.1156027230   -4.9068906624   -0.7053428645
     22  H        -2.2056626058   -4.7255020237    1.0524421135
     23  H        -0.5404106555   -4.6397316944    1.6209830656
     24  H         3.5013081064   -1.2451930008   -3.0358350846
     25  H         2.3173425219    0.0399775195   -2.6300689173
     26  H        -0.6983331001    1.7246777489    2.8903201794
     27  H        -1.7062387293    2.0191781285    1.4349779043
     28  H        -0.4080211452   -2.4643741701   -1.8377860022
     29  C        -2.5935054101   -2.3115891968    2.0470866279
     30  H        -3.5041338474   -2.7926499152    1.6817511585
     31  H        -2.3992847656   -2.6741014147    3.0611991479
[...]
    -0.00004680      0.00001929      0.00000499
     0.00000499      0.00007407      0.00004369
     0.00005042      0.00002323     -0.00003334
     0.00000627      0.00009795      0.00000010
    -0.00007952     -0.00048017      0.00020937
    -0.00012253     -0.00028881     -0.00011730
     0.00012967      0.00012769     -0.00497791
    -0.00641359      0.04373909      0.03113521
     0.01206474      0.02827629     -0.02897455
     0.00024707     -0.00071053     -0.00055992
     0.00012664     -0.00013302      0.00004814
    -0.03501314      0.03506274     -0.00570113
    -0.02486353      0.03655251     -0.04327112
     0.00348936      0.00322836      0.00357824
     0.00371416      0.00142210     -0.00182876
    -0.37239930     -0.23538293     -0.37844461
     0.44393724     -0.26993639      0.02538265
    -0.38125079     -0.15819038     -0.00684467
     0.24730711     -0.17151313      0.33543496
     0.00206939     -0.00182244     -0.00241374
    -0.00486499      0.00434387     -0.00346404
     0.00014513      0.00044554      0.00431699
    -0.00238550      0.00140120     -0.00118095
    -0.00772490     -0.00876691      0.06470231
     0.00144405      0.00042608     -0.00278677
    -0.02133261     -0.01095670     -0.00869151
     0.00593843     -0.01077081      0.04315697
    -0.00319520      0.01821161     -0.00109908
vibration 80
     0.03670900     -0.03764784      0.00664817
    -0.01958321      0.02766871     -0.03221575
    -0.00097736      0.00022173     -0.00087251
     0.00098641     -0.00098550     -0.00034279
     0.00013890     -0.00005654      0.00003304
     0.00027232     -0.00004101      0.00030309
    -0.00008463      0.00013655      0.00001304
    -0.00003033      0.00038887      0.00018331
    -0.00029443     -0.00041145      0.00028928
     0.00006318     -0.00021878     -0.00003113
    -0.00032285     -0.00069080      0.00134226
    -0.03044835      0.00203160     -0.01455421
     0.03459304      0.00271863      0.01459681
     0.00036772      0.00029875     -0.00001286
    -0.00006965      0.00002318      0.00021243
    -0.43788070      0.44931623     -0.07690237
     0.23053523     -0.32721957      0.38356537
     0.00379235      0.00340871      0.00381090
     0.00151148      0.00078317     -0.00071465
     0.15594444      0.10894616      0.16563895
     0.20428045     -0.13194304      0.00688685
    -0.28601643     -0.12796953      0.00334274
    -0.12392619      0.09510757     -0.17739877
     0.00268913     -0.00259767     -0.00312647
    -0.00442978      0.00450693     -0.00363577
     0.00004443      0.00046187      0.00193593
    -0.00243072      0.00167005     -0.00115488
     0.00259518      0.00286745     -0.01461127
    -0.00432625     -0.00165586     -0.00705936
     0.04428045      0.02581096      0.01783269
     0.00839082     -0.01865434      0.06880053
    -0.00261629      0.01158785     -0.00255002
vibration 81
    -0.02398679      0.02459132     -0.00417403
     0.00880095     -0.01201762      0.01404697
     0.00051198     -0.00019156      0.00016180
    -0.00058900      0.00064459      0.00026167
    -0.00007215      0.00010217      0.00000424
    -0.00010202      0.00005140     -0.00010416
     0.00004995     -0.00009796     -0.00002687
    -0.00000182     -0.00028510     -0.00013301
     0.00027050      0.00026267     -0.00015353
    -0.00010350      0.00008749      0.00020258
    -0.00093647     -0.00017355      0.00152177
    -0.03180928      0.00651069     -0.01223100
     0.04604642     -0.00150956      0.02529447
    -0.00011496      0.00004561     -0.00043794
     0.00022886     -0.00008589     -0.00001874
     0.28719816     -0.29380278      0.05098656
    -0.10168405      0.14178056     -0.16716173
    -0.00287610     -0.00263314     -0.00289814
     0.00032059     -0.00003667     -0.00014005
     0.12812748      0.08960948      0.13516913
     0.25431215     -0.16409439      0.01058650
    -0.33206717     -0.14776103      0.00427101
    -0.21554320      0.16386373     -0.30668643
    -0.00182776      0.00178436      0.00213215
     0.00233404     -0.00249724      0.00199942
    -0.00004444     -0.00031571     -0.00261792
     0.00076020     -0.00055454      0.00038020
     0.00180274      0.00366693     -0.01758273
    -0.03351210     -0.00670717     -0.04035235
     0.36055142      0.20211298      0.14022688
     0.04437604     -0.09760393      0.35318765
    -0.00560738     -0.02595184     -0.00859544
vibration 82
     0.01133813     -0.01165936      0.00184642
    -0.00524712      0.00797543     -0.00922892
    -0.00017030      0.00024188     -0.00018378
     0.00026180     -0.00032789     -0.00012991
     0.00011484     -0.00002012      0.00002151
     0.00004837     -0.00006213      0.00006649
    -0.00004817      0.00004950      0.00003896
    -0.00000320      0.00017217      0.00008386
    -0.00009330     -0.00007558      0.00011463
     0.00002991      0.00000511      0.00038506
     0.00077870      0.00045299     -0.00165275
     0.03648609     -0.00573718      0.01509104
    -0.02862485     -0.00003286     -0.01459001
    -0.00160736     -0.00014138     -0.00137010
    -0.00006921      0.00000799      0.00048545
    -0.13538789      0.13826993     -0.02391202
     0.06803427     -0.09399807      0.11090809
     0.00084374      0.00074675      0.00080344
     0.00074698      0.00022573     -0.00029070
    -0.16048835     -0.11155618     -0.16936016
    -0.27503736      0.17724536     -0.01054720
     0.21639612      0.09866933     -0.00243174
     0.12750662     -0.09725642      0.17882642
     0.00088349     -0.00088746     -0.00103079
    -0.00112243      0.00118721     -0.00094782
    -0.00011889     -0.00037208     -0.00405888
    -0.00081765      0.00042472     -0.00034681
    -0.00246894     -0.00427680      0.02108364
    -0.04663162     -0.00782292     -0.05658395
     0.50254210      0.27931898      0.19417787
     0.06118464     -0.13660021      0.49560264
    -0.00473531     -0.04961555     -0.01008032
vibration 83
    -0.03299685      0.03354634     -0.00535736
    -0.02473232      0.03514212     -0.04225543
    -0.00119682     -0.00020165     -0.00156300
    -0.00102916      0.00075545      0.00065584
     0.00019001     -0.00010219      0.00008829
     0.00049556      0.00002410      0.00051345
     0.00011488     -0.00009291     -0.00008868
     0.00005876     -0.00033509     -0.00021308
     0.00045146      0.00007811     -0.00004429
     0.00004270     -0.00039875      0.00001944
     0.00058698      0.00153914     -0.00373447
     0.02753143     -0.00054628      0.01415470
     0.01825876      0.00312536      0.00601307
     0.00085918      0.00056043     -0.00009114
     0.00018580     -0.00023331      0.00015581
     0.39142474     -0.40156955      0.06677199
     0.29505002     -0.42279465      0.49967796
    -0.00281393     -0.00254011     -0.00286343
     0.00314705      0.00142652     -0.00152287
    -0.15327512     -0.10654434     -0.16324806
    -0.17300926      0.11152851     -0.00483526
    -0.16913723     -0.07567814      0.00259524
    -0.04881528      0.03777351     -0.07222930
    -0.00180331      0.00185267      0.00215835
     0.00034090     -0.00075588      0.00071192
     0.00006309      0.00070527      0.00305370
    -0.00357925      0.00242706     -0.00165991
    -0.00628923     -0.00963644      0.04848525
     0.00579535      0.00016876      0.00558209
    -0.06468529     -0.03509127     -0.02422202
    -0.00584676      0.01226611     -0.04324587
    -0.00080413      0.02001434      0.00010345
vibration 84
    -0.01500748      0.01557304     -0.00238054
    -0.00968321      0.01388051     -0.01677588
    -0.00046403      0.00009037     -0.00055308
    -0.00031876      0.00041489      0.00030800
     0.00015883     -0.00011574      0.00004318
     0.00020078     -0.00002809      0.00020706
     0.00002227     -0.00008238     -0.00002334
    -0.00000617     -0.00024815     -0.00009237
     0.00105292      0.00008497      0.00056931
     0.00020372     -0.00015510      0.00015029
    -0.00189621     -0.00033722      0.00305013
    -0.05815625      0.00670372     -0.02568306
    -0.05130479      0.00143728     -0.02840904
    -0.00072103     -0.00006810     -0.00141792
     0.00065101     -0.00029335      0.00038611
     0.18175280     -0.18432283      0.03145208
     0.11882670     -0.16714469      0.19962073
    -0.00622118     -0.00606967     -0.00661260
     0.00024058      0.00016208     -0.00006089
     0.27820070      0.19278725      0.29675879
     0.41880249     -0.26929724      0.01336707
     0.37717265      0.16756850     -0.00630744
     0.23987191     -0.18284928      0.34427136
    -0.00143199      0.00150127      0.00200864
    -0.00410787      0.00339054     -0.00249505
    -0.00000211      0.00008625     -0.00046225
    -0.00241917      0.00144592     -0.00115898
     0.00416459      0.00617355     -0.03346994
    -0.00566132     -0.00036478     -0.00680097
     0.06162084      0.03292018      0.02300874
     0.00661528     -0.01627298      0.06026962
     0.00086174     -0.01153580     -0.00040615
vibration 85
    -0.00048420      0.00032293     -0.00017978
    -0.00018696      0.00028145     -0.00033216
    -0.00006094     -0.00000079     -0.00004664
     0.00020051     -0.00001892      0.00009235
     0.00001526     -0.00000836      0.00000774
     0.00003140      0.00001153      0.00001550
     0.00031904     -0.00008121      0.00029970
     0.00013751      0.00000572      0.00005545
    -0.07510148      0.00527722     -0.05799944
    -0.00013259     -0.00011206      0.00047130
    -0.00007945     -0.00013491      0.00052646
    -0.00063512      0.00014501     -0.00022169
    -0.00050423      0.00005460     -0.00032903
    -0.00001261      0.00000429     -0.00004722
     0.00001346     -0.00000897      0.00002950
     0.00368091     -0.00336778      0.00056665
     0.00231218     -0.00331158      0.00394862
     0.39489811      0.39171442      0.43303202
     0.00281946      0.00106673     -0.00133989
     0.00243503      0.00165210      0.00261133
     0.00512412     -0.00331741      0.00017860
     0.00335413      0.00150526     -0.00005061
     0.00278795     -0.00213900      0.00402620
     0.02674039     -0.03664217     -0.06088383
     0.46491883     -0.41683528      0.31332839
    -0.00017804     -0.00037651     -0.00388514
    -0.00113248      0.00065525     -0.00048877
     0.00080614      0.00136684     -0.00621699
    -0.00008441     -0.00001202     -0.00011461
     0.00093428      0.00050865      0.00034238
     0.00011029     -0.00029827      0.00113194
    -0.00002000     -0.00003158     -0.00003273
vibration 86
    -0.00006305     -0.00000312     -0.00003006
     0.00010088      0.00012234     -0.00022474
    -0.00021318     -0.00018301     -0.00004137
    -0.00002767      0.00018092      0.00005232
    -0.00003208      0.00006105      0.00023206
    -0.00004103      0.00014214      0.00019615
     0.00001675     -0.00003259     -0.00003377
     0.00003060     -0.00017199     -0.00002071
    -0.00033461     -0.00009634     -0.00039810
     0.04038911      0.01745388     -0.08415527
    -0.00001950     -0.00007126      0.00037828
     0.00004846      0.00002305      0.00003476
    -0.00000954      0.00003008     -0.00003952
     0.00000701      0.00002845     -0.00004617
    -0.00001496     -0.00000664      0.00003230
     0.00056505     -0.00066716      0.00009171
     0.00042691     -0.00065268      0.00086219
     0.00246414      0.00243765      0.00269818
    -0.60593403     -0.22510348      0.27999898
    -0.00048144     -0.00034321     -0.00044256
    -0.00020068      0.00012759      0.00001410
    -0.00020170     -0.00006149      0.00000911
     0.00039110     -0.00031063      0.00053198
    -0.00069908      0.00055531      0.00069508
     0.00201462     -0.00180044      0.00137451
     0.03268012      0.06590246      0.69081123
     0.09454529     -0.04888088      0.02693986
     0.00044400      0.00087303     -0.00425014
    -0.00020947     -0.00001955     -0.00029038
     0.00213615      0.00133989      0.00086818
     0.00035686     -0.00091214      0.00289843
    -0.00018423     -0.00033335     -0.00032418
vibration 87
     0.00094695     -0.00064271      0.00047927
     0.00091177     -0.00079624      0.00204022
     0.00001818      0.00012421      0.00011146
     0.00012216      0.00006599     -0.00099104
     0.00000334     -0.00005397      0.00000282
    -0.00003414     -0.00005416     -0.00005400
     0.00001744      0.00012544      0.00037197
    -0.00003207     -0.00012246      0.00015397
    -0.00060486     -0.00006524     -0.00014336
     0.00037331      0.00011709     -0.00026014
     0.00923413      0.01676558     -0.08390383
    -0.00490471     -0.00426524     -0.00478661
    -0.00128639     -0.00133702      0.00131103
    -0.00055425      0.00011703      0.00128999
     0.00035300     -0.00019770     -0.00011944
    -0.00888722      0.00844559     -0.00211689
    -0.00965571      0.01330802     -0.01601298
     0.00356775      0.00354048      0.00358271
    -0.00399732     -0.00158438      0.00185909
     0.05811952      0.04193190      0.05961595
    -0.00175686      0.00315092     -0.00183564
     0.01620470      0.00708485      0.00005197
    -0.00552750      0.00415508     -0.00708199
     0.00148647     -0.00155862     -0.00196548
     0.00134866     -0.00145541      0.00101073
     0.00011625      0.00006196      0.00160796
    -0.00052272      0.00031510     -0.00037150
    -0.10683376     -0.19222167      0.96657413
    -0.00017576     -0.00005112     -0.00006178
     0.00239671      0.00115462      0.00073124
     0.00023088     -0.00008354     -0.00014685
     0.00024262     -0.00089104     -0.00008041
vibration 88
    -0.00002407      0.00004144      0.00000480
    -0.00012423      0.00021288     -0.00018337
    -0.00057768     -0.00085444     -0.00067559
     0.00002129     -0.00003253     -0.00004296
     0.00036289     -0.00007741      0.00017993
     0.00031743      0.00026881      0.00030509
    -0.00001927      0.00000659      0.00002139
    -0.00000209      0.00005192      0.00005133
    -0.00024590      0.00034509      0.00019942
    -0.08381032      0.02215810     -0.03500017
    -0.00002783      0.00004263     -0.00016683
    -0.00009642     -0.00000166     -0.00007083
     0.00011718     -0.00006072      0.00000544
     0.00002297      0.00024429     -0.00008655
     0.00001808     -0.00003320      0.00003759
     0.00037738     -0.00036501      0.00007631
     0.00194754     -0.00266176      0.00310613
    -0.00080437     -0.00064936     -0.00078111
     0.31555893      0.12701139     -0.17142136
     0.00057491      0.00042596      0.00063574
     0.00064729     -0.00048642      0.00005890
    -0.00079303     -0.00053910     -0.00006134
    -0.00025242      0.00012236     -0.00028365
     0.00228567     -0.00212187     -0.00274936
     0.00142488     -0.00122374      0.00107142
    -0.00906626      0.02608956      0.25008864
     0.68848673     -0.40967119      0.33669073
    -0.00017593     -0.00038591      0.00203757
     0.00070530      0.01482456     -0.00242776
    -0.03337248     -0.01622763     -0.01420184
     0.00527460     -0.00712984      0.03498753
     0.01778298     -0.15522024      0.00904604
vibration 89
     0.00003340      0.00002178      0.00004869
     0.00001127     -0.00003228      0.00003318
    -0.00001024     -0.00002811      0.00002893
    -0.00028233     -0.00118902      0.00026851
     0.00002077      0.00001523     -0.00001204
     0.00000550      0.00000669     -0.00001175
    -0.00016167      0.00028877      0.00019510
     0.00005015      0.00053860     -0.00000665
     0.03856423     -0.06507313     -0.05679636
    -0.00021338      0.00002013      0.00010343
    -0.00000468      0.00001840     -0.00011050
     0.00001306     -0.00005311     -0.00003395
     0.00000196     -0.00002148      0.00001477
    -0.00000583      0.00001953     -0.00000344
     0.00000662      0.00000429      0.00000812
    -0.00054874      0.00098702     -0.00029347
    -0.00016578      0.00030384     -0.00032628
     0.21199370      0.17817258      0.21093985
     0.00139645      0.00058633     -0.00061474
     0.00050694      0.00035547      0.00045996
    -0.00052752      0.00031232     -0.00005961
     0.00018216      0.00005957      0.00000614
    -0.00013636      0.00008617     -0.00017845
    -0.49445977      0.45687829      0.59138972
    -0.17155495      0.13966868     -0.13259645
    -0.00004932     -0.00007864     -0.00107016
     0.00112773     -0.00067617      0.00059315
    -0.00005376     -0.00026533      0.00092763
     0.00005945      0.00169893     -0.00027191
    -0.00351576     -0.00169061     -0.00150262
     0.00057807     -0.00077617      0.00385305
     0.00203044     -0.01807401      0.00106636
vibration 90
     0.00010535     -0.00004761     -0.00000170
     0.00043662     -0.00028218      0.00032383
     0.00005361     -0.00012307     -0.00003144
     0.00001025     -0.00008323     -0.00001640
    -0.00061165     -0.00056132      0.00011699
     0.00003979      0.00005509      0.00001992
    -0.00000769      0.00001330      0.00001317
    -0.00000523      0.00004567      0.00001802
     0.00070620     -0.00120476     -0.00105666
    -0.01406362      0.00375716     -0.00585245
     0.00007287     -0.00003426     -0.00007899
     0.00002602     -0.00003671      0.00009649
    -0.00136401      0.00034674     -0.00040893
    -0.00047598     -0.00143977      0.00043986
     0.00003821      0.00015791     -0.00012634
    -0.00103091      0.00096059     -0.00012768
    -0.00338492      0.00397988     -0.00470001
     0.00397213      0.00333391      0.00394806
     0.05234149      0.02070995     -0.02835057
     0.00023564      0.00010715     -0.00007707
    -0.00061077      0.00067960     -0.00035461
     0.01076894      0.00626091      0.00043479
     0.00460678     -0.00342523      0.00618804
    -0.00912837      0.00843814      0.01092298
    -0.00310918      0.00252840     -0.00241934
    -0.00143628      0.00430723      0.04148896
     0.11528490     -0.06875343      0.05644458
    -0.00004345      0.00006647      0.00008540
    -0.00421583     -0.08769119      0.01348402
     0.19871821      0.09670385      0.08422310
    -0.02984155      0.03893357     -0.19634061
    -0.10591059      0.92373175     -0.05415721
[INT]
    2.102403
    0.656485
    2.279109
    0.734343
    2.012797
    0.219041
    0.617453
    1.374262
    0.314482
    0.798069
    2.079804
    4.790754
    1.522492
   10.515662
   13.394070
    1.582617
   10.947028
    4.152525
    7.739580
    2.561171
   21.084851
    4.479924
    6.627764
    1.928641
    6.474213
    6.072223
    8.371207
   16.210143
    8.065332
    4.290767
    5.877779
    3.191720
   10.982622
   19.379399
   13.007371
   10.584667
    0.550321
    7.385419
   38.477677
   31.052479
   55.468331
   47.149005
   27.041129
   27.595386
   27.797942
   22.189312
  220.474393
   96.050460
   25.162096
   11.760763
   22.489295
   45.505503
    6.609585
   74.200220
  141.217053
   28.778981
   13.239294
   38.039716
   30.064879
   14.363857
   57.396952
   16.314622
   18.774887
   12.787121
    7.860325
    9.189943
    0.150855
    5.892924
   12.568291
    2.550003
    8.475962
    9.991600
  283.888556
  255.726739
   16.395263
   33.663779
   40.227733
   29.436289
   34.096281
    4.064290
    4.149097
   13.732460
    6.490062
   44.672113
   17.826056
   13.951868
   18.988098
   15.200264
   13.484323
    4.094526

======= END OF MOLDEN-FORMATTED INPUT FILE =======


        *************************************************************
        *                                                           *
        *  Thank you very much for using Q-Chem.  Have a nice day.  *
        *                                                           *
        *************************************************************


