r0209.ten.osc.edu 10.25.156
Q-Chem Developer Version! Running on 10.25.156.*
                  Welcome to Q-Chem
     A Quantum Leap Into The Future Of Chemistry


 Q-Chem 5.0, Q-Chem, Inc., Pleasanton, CA (2017)

 Yihan Shao,  Zhengting Gan,  E. Epifanovsky,  A. T. B. Gilbert,  M. Wormit,  
 J. Kussmann,  A. W. Lange,  A. Behn,  Jia Deng,  Xintian Feng,  D. Ghosh,  
 M. Goldey,  P. R. Horn,  L. D. Jacobson,  I. Kaliman,  T. Kus,  A. Landau,  
 Jie Liu,  E. I. Proynov,  R. M. Richard,  R. P. Steele,  E. J. Sundstrom,  
 H. L. Woodcock III,  P. M. Zimmerman,  D. Zuev,  B. Albrecht,  E. Alguire,  
 S. A. Baeppler,  Z. Benda,  Y. A. Bernard,  E. J. Berquist,  K. B. Bravaya,  
 D. Casanova,  Chun-Min Chang,  Yunqing Chen,  A. Chien,  K. D. Closser,  
 M. P. Coons,  S. Dasgupta,  M. Diedenhofen,  Hainam Do,  R. G. Edgar,  
 Po-Tung Fang,  S. Fatehi,  Qingguo Feng,  Qinghui Ge,  A. Ghysels,  
 J. Gomes,  J. Gonthier,  A. Gunina,  M. W. D. Hanson-Heine,  
 P. H. P. Harbach,  A. W. Hauser,  J. E. Herr,  E. G. Hohenstein,  
 Z. C. Holden,  Kerwin Hui,  T.-C. Jagau,  Hyunjun Ji,  B. Kaduk,  
 K. Khistyaev,  Jaehoon Kim,  P. Klunzinger,  K. Koh,  D. Kosenkov,  
 T. Kowalczyk,  C. M. Krauter,  A. Kunitsa,  Ka Un Lao,  A. Laurent,  
 K. V. Lawler,  Joonho Lee,  D. Lefrancois,  S. Lehtola,  D. S. Levine,  
 Yi-Pei Li,  You-Sheng Lin,  Fenglai Liu,  E. Livshits,  A. Luenser,  
 P. Manohar,  E. Mansoor,  S. F. Manzer,  Shan-Ping Mao,  Yuezhi Mao,  
 N. Mardirossian,  A. V. Marenich,  L. A. Martinez-Martinez,  S. A. Maurer,  
 N. J. Mayhall,  S. C. McKenzie,  J.-M. Mewes,  A. F. Morrison,  K. Nanda,  
 T. S. Nguyen-Beck,  R. Olivares-Amaya,  J. A. Parkhill,  T. M. Perrine,  
 F. Plasser,  S. Prager,  A. Prociuk,  D. R. Rehn,  F. Rob,  M. Schneider,  
 N. Sergueev,  S. M. Sharada,  S. Sharma,  D. W. Small,  T. Stauch,  
 T. Stein,  Yu-Chuan Su,  A. J. W. Thom,  T. Tsuchimochi,  L. Vogt,  
 O. Vydrov,  M. A. Watson,  J. Wenzel,  M. de Wergifosse,  T. A. Wesolowski,  
 A. White,  J. Witte,  A. Yamada,  Jun Yang,  K. Yao,  S. Yeganeh,  
 S. R. Yost,  Zhi-Qiang You,  A. Zech,  Igor Ying Zhang,  Xing Zhang,  
 Yan Zhao,  Ying Zhu,  B. R. Brooks,  G. K. L. Chan,  C. J. Cramer,  
 M. S. Gordon,  W. J. Hehre,  A. Klamt,  M. W. Schmidt,  C. D. Sherrill,  
 D. G. Truhlar,  A. Aspuru-Guzik,  R. Baer,  A. T. Bell,  N. A. Besley,  
 Jeng-Da Chai,  A. Dreuw,  B. D. Dunietz,  T. R. Furlani,  Chao-Ping Hsu,  
 Yousung Jung,  Jing Kong,  D. S. Lambrecht,  WanZhen Liang,  C. Ochsenfeld,  
 V. A. Rassolov,  L. V. Slipchenko,  J. E. Subotnik,  T. Van Voorhis,  
 J. M. Herbert,  A. I. Krylov,  P. M. W. Gill,  M. Head-Gordon

 Contributors to earlier versions of Q-Chem not listed above: 
 R. D. Adamson,  B. Austin,  J. Baker,  G. J. O. Beran,  K. Brandhorst,  
 S. T. Brown,  E. F. C. Byrd,  A. K. Chakraborty,  C.-L. Cheng,  
 Siu Hung Chien,  D. M. Chipman,  D. L. Crittenden,  H. Dachsel,  
 R. A. DiStasio Jr.,  R. J. Doerksen,  A. D. Dutoi,  L. Fusti-Molnar,  
 W. A. Goddard III,  A. Golubeva-Zadorozhnaya,  S. R. Gwaltney,  G. Hawkins,  
 A. Heyden,  S. Hirata,  G. Kedziora,  F. J. Keil,  C. Kelley,  Jihan Kim,  
 R. A. King,  R. Z. Khaliullin,  P. P. Korambath,  W. Kurlancheek,  
 A. M. Lee,  M. S. Lee,  S. V. Levchenko,  Ching Yeh Lin,  D. Liotard,  
 R. C. Lochan,  I. Lotan,  P. E. Maslen,  N. Nair,  D. P. O'Neill,  
 D. Neuhauser,  E. Neuscamman,  C. M. Oana,  R. Olson,  B. Peters,  
 R. Peverati,  P. A. Pieniazek,  Y. M. Rhee,  J. Ritchie,  M. A. Rohrdanz,  
 E. Rosta,  N. J. Russ,  H. F. Schaefer III,  N. E. Schultz,  N. Shenvi,  
 A. C. Simmonett,  A. Sodt,  D. Stuck,  K. S. Thanthiriwatte,  V. Vanovschi,  
 Tao Wang,  A. Warshel,  C. F. Williams,  Q. Wu,  X. Xu,  W. Zhang

 Please cite Q-Chem as follows:
 Y. Shao et al., Mol. Phys. 113, 184-215 (2015)
 DOI: 10.1080/00268976.2014.952696

 Q-Chem 5.0.1 for Intel X86 EM64T Linux

 Parts of Q-Chem use Armadillo 5.200.1 (Boston Tea Smuggler).
 http://arma.sourceforge.net/

 Q-Chem begins on Sat Oct 14 17:16:09 2017  

Host: r0209.ten.osc.edu
0

     Scratch files written to /tmp/pbstmp.1310464/11//
Processing $rem in /users/PAS0291/osu6415/.qchemrc.
molden_format             true

Checking the input file for inconsistencies... 	...done.

--------------------------------------------------------------
User input:
--------------------------------------------------------------
$molecule
0 1
C 0.04408163 1.01105611 0.74504735
C 0.74702823 -0.38961828 0.83089038
C -1.46378776 0.93889539 0.58198143
C -0.10081790 -1.61233863 0.54669249
O -1.91396595 1.59083194 -0.50275619
O -2.18574645 0.38780312 1.37876994
O -0.88652394 -1.45874784 -0.53519185
O -0.02886799 -2.63714743 1.18097080
C -1.74569664 -2.56611936 -0.85896006
C -3.33633963 1.54087185 -0.71943988
C 0.86332398 1.70063726 -0.37472258
C 2.22212331 2.14194821 0.20812831
C 2.93744190 0.76831509 0.35313786
C 1.88489808 -0.20502746 -0.24582556
O 1.23233097 0.61291879 -1.23135624
H 0.18069516 1.52834595 1.69891761
H 1.17400010 -0.56144985 1.81684420
H -2.46806072 -2.72522483 -0.05674577
H -3.66374282 0.50539200 -0.82200828
H 2.74248018 2.78486553 -0.50322798
H 2.12546791 2.68554880 1.15027636
H 3.85397703 0.73131000 -0.23813116
H 3.19196027 0.51656844 1.38432288
H -2.24937330 -2.28089736 -1.77999983
H -1.16079615 -3.47507915 -1.00580643
H -3.50815877 2.09146016 -1.64158432
H -3.86757333 2.00480587 0.11289814
H 0.32069562 2.44895344 -0.94374581
C 2.43922350 -1.46606738 -0.86847340
H 3.19490866 -1.20845525 -1.61348298
H 2.90099292 -2.09719913 -0.10545676
H 1.65253200 -2.03837036 -1.36208233
$end

$rem
sym_ignore      true
jobtype         opt
method          b3lyp
basis           6-311++G(d,p)
dft_d           d3_op
mem_total       62000
MEM_STATIC      4000
ao2mo_disk      350000
max_scf_cycles  200
geom_opt_max_cycles 1000
geom_opt_tol_displacement 1
GEOM_OPT_TOL_GRADIENT       1
GEOM_OPT_TOL_ENERGY         1
$end

--------------------------------------------------------------
 Adding empirical dispersion correction 
 ----------------------------------------------------------------
 Doing -D3(op) with
 s6 =   1.00000
 s8 =   0.78311
 a1 =   0.30000
 a2 =   4.25000
 n  =  10.00000
 -D3 energy without 3body term =     -0.0366895830 hartrees
 ----------------------------------------------------------------
             Standard Nuclear Orientation (Angstroms)
    I     Atom           X                Y                Z
 ----------------------------------------------------------------
    1      C       0.0440816300     1.0110561100     0.7450473500
    2      C       0.7470282300    -0.3896182800     0.8308903800
    3      C      -1.4637877600     0.9388953900     0.5819814300
    4      C      -0.1008179000    -1.6123386300     0.5466924900
    5      O      -1.9139659500     1.5908319400    -0.5027561900
    6      O      -2.1857464500     0.3878031200     1.3787699400
    7      O      -0.8865239400    -1.4587478400    -0.5351918500
    8      O      -0.0288679900    -2.6371474300     1.1809708000
    9      C      -1.7456966400    -2.5661193600    -0.8589600600
   10      C      -3.3363396300     1.5408718500    -0.7194398800
   11      C       0.8633239800     1.7006372600    -0.3747225800
   12      C       2.2221233100     2.1419482100     0.2081283100
   13      C       2.9374419000     0.7683150900     0.3531378600
   14      C       1.8848980800    -0.2050274600    -0.2458255600
   15      O       1.2323309700     0.6129187900    -1.2313562400
   16      H       0.1806951600     1.5283459500     1.6989176100
   17      H       1.1740001000    -0.5614498500     1.8168442000
   18      H      -2.4680607200    -2.7252248300    -0.0567457700
   19      H      -3.6637428200     0.5053920000    -0.8220082800
   20      H       2.7424801800     2.7848655300    -0.5032279800
   21      H       2.1254679100     2.6855488000     1.1502763600
   22      H       3.8539770300     0.7313100000    -0.2381311600
   23      H       3.1919602700     0.5165684400     1.3843228800
   24      H      -2.2493733000    -2.2808973600    -1.7799998300
   25      H      -1.1607961500    -3.4750791500    -1.0058064300
   26      H      -3.5081587700     2.0914601600    -1.6415843200
   27      H      -3.8675733300     2.0048058700     0.1128981400
   28      H       0.3206956200     2.4489534400    -0.9437458100
   29      C       2.4392235000    -1.4660673800    -0.8684734000
   30      H       3.1949086600    -1.2084552500    -1.6134829800
   31      H       2.9009929200    -2.0971991300    -0.1054567600
   32      H       1.6525320000    -2.0383703600    -1.3620823300
 ----------------------------------------------------------------
 Nuclear Repulsion Energy =  1262.8442878895 hartrees
 There are       61 alpha and       61 beta electrons
 Requested basis set is 6-311++G(d,p)
 There are 176 shells and 464 basis functions

 Total QAlloc Memory Limit  62000 MB
 Mega-Array Size      3911 MB
 MEM_STATIC part      4000 MB
 A cutoff of  1.0D-11 yielded  12836 shell pairs
 There are     91001 function pairs (     97098 Cartesian)
 
 -------------------------------------------------------
 OpenMP Integral Computing Module                       
 Release: version 1.0, May 2013, Q-Chem Inc. Pittsburgh 
 -------------------------------------------------------
 Integral Job Info:
 Integral job number is                      11
 Integral operator is                         1
 short-range coefficients                     0
 long-range coefficients              100000000
 Omega coefficients                           0
 if combine SR and LR in K                    0
 Integral screening is                        0
 Integral computing path is                   2
 max size of driver memory is            800000
 size of driver memory is                593474
 size of scratch memory is              2361544
 max col of scratch BK array               1296
 max len of scratch array in speh3          155
 max len of scratch index in speh4           18
 max int batch size is                      520
 min int batch size is                       52
 fixed nKL is                                52
 max L of basis functions is                  2
 order of int derivative is                   0
 number of shells is                        176
 number of basis is                         480
 number of cartesian basis is               480
 number of contracted shell pairs         12836
 number of primitive shell pairs          28549
 maxK2 (contraction) of shell pair           36
 max number of K2 of shell pair               1
 max number of CS2 of shell pair           2404
 max number of PS2 of shell pair           4116
 mem total for path MDJ                  162440
 -------------------------------------------------------
 Smallest overlap matrix eigenvalue = 8.24E-07

 Q-Chem warning in module /fs/scratch/osu6415/qchem-kaunlao-vdw/stvman/mkSTV.C, line 281:

 Overlap eigenvalue is smaller than square root of threshold

 Linear dependence detected in AO basis
 Number of orthogonalized atomic orbitals = 463
 Maximum deviation from orthogonality = 8.314E-11

 Scale SEOQF with 1.000000e-01/1.000000e-01/1.000000e-01

 Standard Electronic Orientation quadrupole field applied
 Nucleus-field energy     =     0.0000000281 hartrees
 Guess from superposition of atomic densities
 Warning:  Energy on first SCF cycle will be non-variational
 A restricted hybrid HF-DFT SCF calculation will be
 performed using Pulay DIIS extrapolation
 Exchange:     0.2000 Hartree-Fock + 0.0800 Slater + 0.7200 B88
 Correlation:  0.1900 VWN1RPA + 0.8100 LYP
 Using SG-1 standard quadrature grid
 Dispersion:   Grimme D3
 SCF converges when DIIS error is below 1.0E-08
 using 20 threads for integral computing
 -------------------------------------------------------
 OpenMP Integral computing Module                
 Release: version 1.0, May 2013, Q-Chem Inc. Pittsburgh 
 -------------------------------------------------------
 -------------------------------------------------------
 OpenMP BLAS3 based DFT computing Module                
 Release: version 1.0, May 2013, Q-Chem Inc. Pittsburgh 
 -------------------------------------------------------
 ---------------------------------------
  Cycle       Energy         DIIS Error
 ---------------------------------------
    1    -808.4505400403      2.94E-02
    2    -804.8730376788      3.82E-03
    3    -804.3865196592      6.32E-03
    4    -805.1487761072      1.48E-03
    5    -805.1934235508      3.97E-04
    6    -805.1959876608      1.61E-04
    7    -805.1964866702      3.63E-05
    8    -805.1965108817      1.22E-05
    9    -805.1965140298      2.79E-06
   10    -805.1965141477      1.43E-06
   11    -805.1965141856      4.60E-07
   12    -805.1965141892      1.74E-07
   13    -805.1965141896      3.85E-08
   14    -805.1965141897      1.37E-08
   15    -805.1965141906      3.47E-09 Convergence criterion met
 ---------------------------------------
 SCF time:  CPU 953.06 s  wall 50.04 s
 SCF   energy in the final basis set = -805.19651419
 Total energy in the final basis set = -805.19651419
 
 --------------------------------------------------------------
 
                    Orbital Energies (a.u.)
 --------------------------------------------------------------
 
 Alpha MOs
 -- Occupied --
-19.178 -19.171 -19.130 -19.115 -19.113 -10.309 -10.303 -10.245
-10.232 -10.231 -10.227 -10.206 -10.203 -10.180 -10.180 -10.169
 -1.119  -1.112  -1.063  -1.029  -1.025  -0.831  -0.796  -0.783
 -0.746  -0.728  -0.693  -0.655  -0.605  -0.592  -0.572  -0.565
 -0.528  -0.514  -0.508  -0.492  -0.490  -0.482  -0.477  -0.470
 -0.461  -0.442  -0.432  -0.423  -0.417  -0.403  -0.393  -0.386
 -0.377  -0.372  -0.367  -0.364  -0.355  -0.353  -0.337  -0.334
 -0.319  -0.310  -0.292  -0.277  -0.272
 -- Virtual --
 -0.019  -0.012  -0.005   0.000   0.006   0.009   0.013   0.019
  0.027   0.033   0.034   0.040   0.044   0.044   0.051   0.055
  0.064   0.067   0.072   0.074   0.080   0.088   0.092   0.095
  0.100   0.102   0.108   0.110   0.112   0.114   0.118   0.122
  0.127   0.129   0.131   0.135   0.137   0.139   0.142   0.145
  0.149   0.150   0.153   0.158   0.158   0.159   0.163   0.164
  0.168   0.173   0.175   0.178   0.184   0.185   0.188   0.189
  0.194   0.196   0.202   0.209   0.213   0.216   0.218   0.225
  0.226   0.233   0.237   0.241   0.246   0.252   0.259   0.262
  0.270   0.276   0.283   0.285   0.288   0.292   0.296   0.300
  0.306   0.312   0.323   0.324   0.328   0.329   0.331   0.338
  0.345   0.349   0.355   0.358   0.360   0.364   0.369   0.372
  0.373   0.376   0.384   0.391   0.396   0.404   0.409   0.411
  0.419   0.427   0.428   0.440   0.443   0.467   0.472   0.474
  0.499   0.505   0.513   0.521   0.525   0.529   0.536   0.553
  0.557   0.570   0.575   0.582   0.591   0.602   0.613   0.624
  0.633   0.636   0.642   0.649   0.650   0.657   0.660   0.671
  0.672   0.682   0.691   0.695   0.699   0.704   0.712   0.719
  0.729   0.733   0.736   0.742   0.749   0.752   0.766   0.775
  0.783   0.787   0.794   0.809   0.814   0.824   0.832   0.852
  0.861   0.891   0.916   0.930   0.962   0.992   1.013   1.014
  1.030   1.045   1.061   1.067   1.075   1.084   1.108   1.140
  1.160   1.168   1.190   1.201   1.205   1.211   1.228   1.234
  1.251   1.253   1.268   1.280   1.284   1.300   1.305   1.331
  1.336   1.342   1.373   1.374   1.387   1.398   1.406   1.416
  1.439   1.450   1.455   1.466   1.480   1.502   1.503   1.515
  1.522   1.546   1.548   1.561   1.564   1.566   1.573   1.584
  1.591   1.607   1.612   1.614   1.627   1.635   1.653   1.670
  1.671   1.690   1.696   1.701   1.706   1.711   1.717   1.733
  1.742   1.754   1.756   1.781   1.790   1.800   1.811   1.820
  1.838   1.841   1.852   1.860   1.879   1.887   1.902   1.906
  1.939   1.945   1.977   1.983   1.998   2.001   2.017   2.029
  2.036   2.073   2.085   2.110   2.111   2.117   2.125   2.134
  2.141   2.158   2.168   2.181   2.203   2.217   2.237   2.256
  2.267   2.310   2.328   2.366   2.399   2.422   2.446   2.456
  2.464   2.475   2.491   2.495   2.508   2.515   2.517   2.526
  2.530   2.550   2.561   2.580   2.593   2.610   2.624   2.633
  2.640   2.659   2.679   2.688   2.721   2.734   2.752   2.771
  2.798   2.816   2.827   2.833   2.847   2.865   2.873   2.878
  2.897   2.906   2.908   2.935   2.949   2.981   2.999   3.007
  3.035   3.039   3.051   3.067   3.079   3.094   3.107   3.111
  3.136   3.153   3.169   3.183   3.216   3.219   3.241   3.251
  3.263   3.299   3.337   3.352   3.360   3.387   3.396   3.444
  3.583   3.606   3.608   3.658   3.695   3.734   3.773   3.792
  3.824   3.828   3.841   3.856   3.933   3.962   4.029   4.065
  4.072   4.080   4.121   4.148   4.154   4.167   4.223   4.255
  4.272   4.433   4.507   5.040   5.095   5.139   5.170   5.230
  5.247   5.254   5.402   5.442   5.515   5.622   5.647   5.662
  5.879   5.894  23.783  23.849  23.851  23.884  23.905  23.930
 23.944  23.955  23.973  23.986  24.045  49.918  49.935  49.984
 50.037  50.048
 --------------------------------------------------------------
 
          Ground-State Mulliken Net Atomic Charges

     Atom                 Charge (a.u.)
  ----------------------------------------
      1 C                     0.076960
      2 C                     0.324117
      3 C                    -0.648472
      4 C                    -0.584369
      5 O                    -0.006353
      6 O                    -0.184623
      7 O                    -0.032921
      8 O                    -0.170177
      9 C                    -0.217401
     10 C                    -0.184875
     11 C                     0.022590
     12 C                    -0.548779
     13 C                    -0.376723
     14 C                    -0.097484
     15 O                    -0.071025
     16 H                     0.247089
     17 H                     0.287413
     18 H                     0.207099
     19 H                     0.164764
     20 H                     0.182008
     21 H                     0.122630
     22 H                     0.169895
     23 H                     0.141601
     24 H                     0.157311
     25 H                     0.175313
     26 H                     0.153687
     27 H                     0.173555
     28 H                     0.300047
     29 C                    -0.307203
     30 H                     0.176266
     31 H                     0.167077
     32 H                     0.180981
  ----------------------------------------
  Sum of atomic charges =     0.000000

 -----------------------------------------------------------------
                    Cartesian Multipole Moments
 -----------------------------------------------------------------
    Charge (ESU x 10^10)
                 0.0000
    Dipole Moment (Debye)
         X       0.3385      Y       2.2670      Z      -1.6520
       Tot       2.8254
    Quadrupole Moments (Debye-Ang)
        XX     -84.7633     XY       0.1981     YY     -94.2184
        XZ       9.2959     YZ       8.0605     ZZ    -101.0647
    Octopole Moments (Debye-Ang^2)
       XXX     -35.8040    XXY       2.1042    XYY     -20.6768
       YYY      16.8843    XXZ     -22.6724    XYZ       0.9281
       YYZ     -23.1127    XZZ      -2.9363    YZZ       5.0578
       ZZZ      -4.2399
    Hexadecapole Moments (Debye-Ang^3)
      XXXX   -2068.5338   XXXY     -57.8586   XXYY    -565.7284
      XYYY       5.1705   YYYY   -1561.1250   XXXZ      40.5026
      XXYZ     -11.4243   XYYZ       5.5392   YYYZ      52.2396
      XXZZ    -453.2606   XYZZ      -7.6941   YYZZ    -344.9044
      XZZZ      25.7620   YZZZ       7.5339   ZZZZ    -521.0112
 -----------------------------------------------------------------
 Calculating analytic gradient of the SCF energy
 Gradient of SCF Energy
            1           2           3           4           5           6
    1   0.0001825  -0.0000281  -0.0000375  -0.0005726   0.0000321   0.0000153
    2  -0.0000886  -0.0000835   0.0003663   0.0003320   0.0000237  -0.0002896
    3  -0.0007744   0.0006599   0.0002900   0.0003240   0.0000121  -0.0001361
            7           8           9          10          11          12
    1   0.0000534   0.0004179  -0.0000369  -0.0000476   0.0000282  -0.0000047
    2   0.0000106  -0.0002365  -0.0000166  -0.0000009  -0.0000564  -0.0000357
    3  -0.0000289  -0.0003399  -0.0000007  -0.0000006  -0.0000697   0.0000344
           13          14          15          16          17          18
    1  -0.0000081   0.0000455   0.0000006  -0.0000222   0.0000069   0.0000112
    2   0.0000187  -0.0000235   0.0000435  -0.0000003  -0.0000048  -0.0000087
    3   0.0000368  -0.0000314   0.0000368   0.0000098   0.0000002   0.0000067
           19          20          21          22          23          24
    1  -0.0000006   0.0000041   0.0000028  -0.0000037  -0.0000032  -0.0000074
    2  -0.0000015  -0.0000087   0.0000130   0.0000146  -0.0000163   0.0000088
    3   0.0000153  -0.0000132  -0.0000075  -0.0000220  -0.0000103   0.0000076
           25          26          27          28          29          30
    1   0.0000032  -0.0000001   0.0000037  -0.0000144  -0.0000297  -0.0000170
    2   0.0000035  -0.0000019  -0.0000008   0.0000233   0.0000138   0.0000075
    3  -0.0000131   0.0000133   0.0000166   0.0000331  -0.0000427  -0.0000224
           31          32
    1   0.0000314  -0.0000053
    2   0.0000092  -0.0000144
    3  -0.0000141   0.0000305
 Max gradient component =       7.744E-04
 RMS gradient           =       1.560E-04
 Gradient time:  CPU 319.37 s  wall 22.34 s
 Geometry Optimization Parameters
   NAtoms,    NIC,     NZ,  NCons,   NDum,   NFix, NCnnct, MaxDiis
       32     251       0       0       0       0       0       0


** GEOMETRY OPTIMIZATION IN DELOCALIZED INTERNAL COORDINATES **
   Searching for a Minimum

   Optimization Cycle:   1

                       Coordinates (Angstroms)
     ATOM                X               Y               Z
      1  C         0.0440816300    1.0110561100    0.7450473500
      2  C         0.7470282300   -0.3896182800    0.8308903800
      3  C        -1.4637877600    0.9388953900    0.5819814300
      4  C        -0.1008179000   -1.6123386300    0.5466924900
      5  O        -1.9139659500    1.5908319400   -0.5027561900
      6  O        -2.1857464500    0.3878031200    1.3787699400
      7  O        -0.8865239400   -1.4587478400   -0.5351918500
      8  O        -0.0288679900   -2.6371474300    1.1809708000
      9  C        -1.7456966400   -2.5661193600   -0.8589600600
     10  C        -3.3363396300    1.5408718500   -0.7194398800
     11  C         0.8633239800    1.7006372600   -0.3747225800
     12  C         2.2221233100    2.1419482100    0.2081283100
     13  C         2.9374419000    0.7683150900    0.3531378600
     14  C         1.8848980800   -0.2050274600   -0.2458255600
     15  O         1.2323309700    0.6129187900   -1.2313562400
     16  H         0.1806951600    1.5283459500    1.6989176100
     17  H         1.1740001000   -0.5614498500    1.8168442000
     18  H        -2.4680607200   -2.7252248300   -0.0567457700
     19  H        -3.6637428200    0.5053920000   -0.8220082800
     20  H         2.7424801800    2.7848655300   -0.5032279800
     21  H         2.1254679100    2.6855488000    1.1502763600
     22  H         3.8539770300    0.7313100000   -0.2381311600
     23  H         3.1919602700    0.5165684400    1.3843228800
     24  H        -2.2493733000   -2.2808973600   -1.7799998300
     25  H        -1.1607961500   -3.4750791500   -1.0058064300
     26  H        -3.5081587700    2.0914601600   -1.6415843200
     27  H        -3.8675733300    2.0048058700    0.1128981400
     28  H         0.3206956200    2.4489534400   -0.9437458100
     29  C         2.4392235000   -1.4660673800   -0.8684734000
     30  H         3.1949086600   -1.2084552500   -1.6134829800
     31  H         2.9009929200   -2.0971991300   -0.1054567600
     32  H         1.6525320000   -2.0383703600   -1.3620823300
   Point Group: c1    Number of degrees of freedom:    90


   Energy is   -805.196514191


 Attempting to Generate Delocalized Internal Coordinates

 90 Hessian modes will be used to form the next step
  Hessian Eigenvalues:
     0.003035    0.006748    0.007109    0.007219    0.007633    0.010400
     0.010553    0.010957    0.011250    0.022596    0.022804    0.023152
     0.025816    0.033270    0.036175    0.038205    0.041080    0.044777
     0.048512    0.049939    0.052037    0.054661    0.055386    0.057088
     0.058317    0.059526    0.063688    0.064752    0.065721    0.074441
     0.080856    0.092226    0.099538    0.101413    0.101496    0.103519
     0.105996    0.106179    0.120975    0.123534    0.153841    0.160000
     0.160000    0.160000    0.160000    0.160000    0.160000    0.160000
     0.160000    0.160000    0.174119    0.231771    0.237307    0.249192
     0.249704    0.249861    0.250000    0.250000    0.250000    0.250000
     0.255305    0.267831    0.278172    0.305235    0.308717    0.311818
     0.337075    0.343916    0.345150    0.345813    0.345826    0.346332
     0.346592    0.346767    0.347000    0.347047    0.347088    0.347158
     0.347185    0.347975    0.350345    0.350656    0.350836    0.353433
     0.396334    0.397922    0.559069    0.564814    1.007982    1.012100

 Minimum Search - Taking Simple RFO Step
 Searching for Lamda that Minimizes Along All modes
 Value Taken    Lamda =  -0.00005820
 Step Taken.  Stepsize is  0.082646

                             Maximum     Tolerance    Cnvgd?
         Gradient           0.000333      0.000001      NO
         Displacement       0.042102      0.000001      NO
         Energy change     *********      0.000000      NO


 New Cartesian Coordinates Obtained by Inverse Iteration

 Displacement from previous Coordinates is:  0.117490
 Adding empirical dispersion correction 
 ----------------------------------------------------------------
 Doing -D3(op) with
 s6 =   1.00000
 s8 =   0.78311
 a1 =   0.30000
 a2 =   4.25000
 n  =  10.00000
 -D3 energy without 3body term =     -0.0366562943 hartrees
 ----------------------------------------------------------------
             Standard Nuclear Orientation (Angstroms)
    I     Atom           X                Y                Z
 ----------------------------------------------------------------
    1      C       0.0445243561     1.0091850303     0.7466321180
    2      C       0.7482442402    -0.3913425708     0.8277732799
    3      C      -1.4633394105     0.9366248099     0.5838294843
    4      C      -0.0994242703    -1.6141242035     0.5433559200
    5      O      -1.9127500681     1.5813213762    -0.5055333569
    6      O      -2.1867675721     0.4027875309     1.3909425324
    7      O      -0.8748678172    -1.4662293692    -0.5466949771
    8      O      -0.0532520403    -2.6266164759     1.1993945877
    9      C      -1.7442338709    -2.5679163574    -0.8623819987
   10      C      -3.3359198774     1.5376514651    -0.7179859650
   11      C       0.8627187055     1.7008299544    -0.3728639850
   12      C       2.2214614260     2.1422922893     0.2100055296
   13      C       2.9379126006     0.7688986429     0.3524393306
   14      C       1.8860994334    -0.2042649008    -0.2481440133
   15      O       1.2324665313     0.6150005466    -1.2318176467
   16      H       0.1819598494     1.5252635467     1.7010327582
   17      H       1.1744978249    -0.5641515016     1.8138595494
   18      H      -2.4759306478    -2.7065732889    -0.0648437677
   19      H      -3.6694970741     0.5032329901    -0.8109090936
   20      H       2.7409460939     2.7870020644    -0.5003524942
   21      H       2.1247480932     2.6840107555     1.1532318917
   22      H       3.8544798269     0.7335669002    -0.2388676599
   23      H       3.1927241116     0.5156615243     1.3831910291
   24      H      -2.2358419514    -2.2903227520    -1.7922354929
   25      H      -1.1690028553    -3.4858493899    -0.9903816889
   26      H      -3.5071150524     2.0813723042    -1.6443171489
   27      H      -3.8622909883     2.0116589324     0.1117595033
   28      H       0.3193255978     2.4495526327    -0.9406048462
   29      C       2.4413562783    -1.4637803743    -0.8730609264
   30      H       3.1986346467    -1.2043739555    -1.6158275968
   31      H       2.9013209820    -2.0971328786    -0.1108079120
   32      H       1.6555229985    -2.0344496378    -1.3699366040
 ----------------------------------------------------------------
 Nuclear Repulsion Energy =  1262.5060030171 hartrees
 There are       61 alpha and       61 beta electrons
 Applying Cartesian multipole field
    Component          Value
    ---------          -----
     (2,0,0)        1.00000E-11
     (0,2,0)        2.00000E-11
     (0,0,2)       -3.00000E-11
 Nucleus-field energy     =     0.0000000280 hartrees
 Requested basis set is 6-311++G(d,p)
 There are 176 shells and 464 basis functions
 A cutoff of  1.0D-11 yielded  12833 shell pairs
 There are     90987 function pairs (     97082 Cartesian)
 Smallest overlap matrix eigenvalue = 8.18E-07

 Q-Chem warning in module /fs/scratch/osu6415/qchem-kaunlao-vdw/stvman/mkSTV.C, line 281:

 Overlap eigenvalue is smaller than square root of threshold

 Linear dependence detected in AO basis
 Number of orthogonalized atomic orbitals = 463
 Maximum deviation from orthogonality = 1.192E-10
 Guess MOs from SCF MO coefficient file
 Reading MOs from coefficient file
 Reading MOs from coefficient file
 A restricted hybrid HF-DFT SCF calculation will be
 performed using Pulay DIIS extrapolation
 Exchange:     0.2000 Hartree-Fock + 0.0800 Slater + 0.7200 B88
 Correlation:  0.1900 VWN1RPA + 0.8100 LYP
 Using SG-1 standard quadrature grid
 Dispersion:   Grimme D3
 SCF converges when DIIS error is below 1.0E-08
 Geometry optimization detected.  Setting ReadMinima to 0
 Setting SaveMinima to 0
 using 20 threads for integral computing
 -------------------------------------------------------
 OpenMP Integral computing Module                
 Release: version 1.0, May 2013, Q-Chem Inc. Pittsburgh 
 -------------------------------------------------------
 -------------------------------------------------------
 OpenMP BLAS3 based DFT computing Module                
 Release: version 1.0, May 2013, Q-Chem Inc. Pittsburgh 
 -------------------------------------------------------
 ---------------------------------------
  Cycle       Energy         DIIS Error
 ---------------------------------------
    1    -805.1954914490      3.10E-04
    2    -805.1964926580      1.83E-05
    3    -805.1965043260      1.64E-05
    4    -805.1965079205      9.52E-06
    5    -805.1965094830      2.99E-06
    6    -805.1965096307      1.45E-06
    7    -805.1965096711      3.68E-07
    8    -805.1965096738      1.01E-07
    9    -805.1965096747      6.01E-08
   10    -805.1965096754      1.49E-08
   11    -805.1965096696      4.15E-09 Convergence criterion met
 ---------------------------------------
 SCF time:  CPU 692.84 s  wall 36.82 s
 SCF   energy in the final basis set = -805.19650967
 Total energy in the final basis set = -805.19650967
 
 --------------------------------------------------------------
 
                    Orbital Energies (a.u.)
 --------------------------------------------------------------
 
 Alpha MOs
 -- Occupied --
-19.178 -19.171 -19.130 -19.115 -19.113 -10.309 -10.303 -10.245
-10.232 -10.231 -10.227 -10.206 -10.203 -10.180 -10.180 -10.170
 -1.119  -1.112  -1.063  -1.029  -1.025  -0.831  -0.796  -0.783
 -0.746  -0.728  -0.693  -0.655  -0.605  -0.592  -0.572  -0.565
 -0.528  -0.514  -0.508  -0.492  -0.490  -0.482  -0.478  -0.470
 -0.461  -0.442  -0.432  -0.424  -0.417  -0.403  -0.394  -0.386
 -0.377  -0.372  -0.367  -0.364  -0.355  -0.353  -0.337  -0.334
 -0.318  -0.311  -0.292  -0.277  -0.272
 -- Virtual --
 -0.019  -0.011  -0.005   0.000   0.006   0.009   0.013   0.019
  0.027   0.034   0.034   0.040   0.044   0.044   0.050   0.055
  0.064   0.067   0.072   0.074   0.080   0.088   0.092   0.095
  0.100   0.101   0.108   0.110   0.112   0.114   0.118   0.122
  0.127   0.129   0.131   0.135   0.137   0.140   0.142   0.145
  0.148   0.150   0.153   0.158   0.158   0.159   0.162   0.163
  0.168   0.173   0.175   0.178   0.184   0.185   0.188   0.189
  0.194   0.197   0.202   0.210   0.213   0.216   0.219   0.225
  0.226   0.233   0.237   0.242   0.246   0.252   0.259   0.262
  0.270   0.276   0.283   0.286   0.288   0.292   0.296   0.299
  0.306   0.311   0.323   0.324   0.328   0.329   0.332   0.338
  0.345   0.349   0.355   0.358   0.361   0.364   0.369   0.372
  0.373   0.376   0.385   0.391   0.396   0.404   0.407   0.412
  0.418   0.427   0.428   0.440   0.444   0.466   0.470   0.475
  0.500   0.505   0.513   0.521   0.525   0.527   0.535   0.554
  0.558   0.570   0.575   0.582   0.591   0.602   0.612   0.624
  0.633   0.635   0.642   0.649   0.650   0.657   0.659   0.671
  0.673   0.682   0.691   0.694   0.699   0.704   0.713   0.719
  0.728   0.732   0.736   0.742   0.749   0.753   0.766   0.775
  0.783   0.787   0.794   0.808   0.814   0.824   0.832   0.851
  0.863   0.891   0.916   0.932   0.963   0.992   1.012   1.014
  1.031   1.044   1.062   1.068   1.077   1.083   1.109   1.142
  1.161   1.167   1.190   1.201   1.205   1.212   1.227   1.231
  1.251   1.253   1.269   1.280   1.286   1.300   1.306   1.331
  1.337   1.342   1.373   1.374   1.386   1.399   1.404   1.415
  1.438   1.449   1.454   1.466   1.479   1.502   1.503   1.516
  1.522   1.546   1.548   1.560   1.564   1.566   1.573   1.584
  1.591   1.606   1.612   1.614   1.628   1.635   1.652   1.669
  1.671   1.690   1.696   1.700   1.706   1.711   1.718   1.733
  1.744   1.753   1.756   1.781   1.789   1.801   1.812   1.820
  1.837   1.841   1.853   1.860   1.879   1.888   1.903   1.908
  1.940   1.946   1.978   1.984   1.998   2.000   2.017   2.028
  2.037   2.073   2.085   2.110   2.112   2.117   2.124   2.135
  2.141   2.158   2.169   2.181   2.204   2.217   2.237   2.256
  2.266   2.309   2.328   2.366   2.399   2.422   2.445   2.456
  2.464   2.475   2.491   2.495   2.507   2.515   2.517   2.526
  2.530   2.551   2.561   2.581   2.593   2.609   2.625   2.633
  2.639   2.658   2.679   2.690   2.720   2.735   2.751   2.771
  2.798   2.815   2.826   2.832   2.847   2.866   2.873   2.876
  2.895   2.906   2.908   2.935   2.949   2.983   2.998   3.008
  3.036   3.038   3.051   3.067   3.080   3.094   3.107   3.110
  3.136   3.153   3.169   3.183   3.214   3.219   3.240   3.251
  3.264   3.299   3.337   3.353   3.360   3.386   3.397   3.444
  3.583   3.606   3.608   3.658   3.696   3.733   3.773   3.793
  3.824   3.827   3.840   3.856   3.933   3.962   4.029   4.065
  4.072   4.082   4.121   4.148   4.154   4.168   4.222   4.256
  4.272   4.432   4.506   5.040   5.096   5.136   5.171   5.230
  5.247   5.254   5.402   5.441   5.516   5.622   5.647   5.662
  5.878   5.893  23.783  23.849  23.851  23.884  23.905  23.930
 23.944  23.956  23.973  23.985  24.045  49.919  49.935  49.984
 50.037  50.049
 --------------------------------------------------------------
 
          Ground-State Mulliken Net Atomic Charges

     Atom                 Charge (a.u.)
  ----------------------------------------
      1 C                     0.082872
      2 C                     0.333745
      3 C                    -0.660005
      4 C                    -0.586764
      5 O                    -0.005274
      6 O                    -0.183686
      7 O                    -0.033799
      8 O                    -0.167550
      9 C                    -0.219350
     10 C                    -0.186178
     11 C                     0.022319
     12 C                    -0.545982
     13 C                    -0.380464
     14 C                    -0.098461
     15 O                    -0.070992
     16 H                     0.247815
     17 H                     0.287870
     18 H                     0.207059
     19 H                     0.165035
     20 H                     0.182143
     21 H                     0.122476
     22 H                     0.169196
     23 H                     0.141723
     24 H                     0.158304
     25 H                     0.175411
     26 H                     0.153650
     27 H                     0.173608
     28 H                     0.300106
     29 C                    -0.306853
     30 H                     0.177275
     31 H                     0.165598
     32 H                     0.179153
  ----------------------------------------
  Sum of atomic charges =     0.000000

 -----------------------------------------------------------------
                    Cartesian Multipole Moments
 -----------------------------------------------------------------
    Charge (ESU x 10^10)
                 0.0000
    Dipole Moment (Debye)
         X       0.3707      Y       2.2308      Z      -1.6918
       Tot       2.8242
    Quadrupole Moments (Debye-Ang)
        XX     -84.7598     XY       0.1240     YY     -94.0656
        XZ       9.3979     YZ       8.0985     ZZ    -101.2633
    Octopole Moments (Debye-Ang^2)
       XXX     -35.7523    XXY       1.9407    XYY     -20.2954
       YYY      16.3793    XXZ     -22.8356    XYZ       0.8220
       YYZ     -23.2800    XZZ      -2.6323    YZZ       5.1772
       ZZZ      -4.7487
    Hexadecapole Moments (Debye-Ang^3)
      XXXX   -2068.5129   XXXY     -58.3531   XXYY    -565.5439
      XYYY       2.9553   YYYY   -1556.3330   XXXZ      41.7670
      XXYZ     -11.7949   XYYZ       6.6311   YYYZ      51.7031
      XXZZ    -454.2477   XYZZ      -8.0251   YYZZ    -345.8542
      XZZZ      27.5181   YZZZ       7.2443   ZZZZ    -524.9819
 -----------------------------------------------------------------
 Calculating analytic gradient of the SCF energy
 Gradient of SCF Energy
            1           2           3           4           5           6
    1   0.0001284  -0.0011355   0.0000263   0.0017708   0.0000375  -0.0000788
    2   0.0003718   0.0004546  -0.0014010  -0.0006876   0.0004502   0.0007132
    3  -0.0000795   0.0008372  -0.0005719  -0.0018342   0.0003414   0.0003905
            7           8           9          10          11          12
    1  -0.0003256  -0.0005122   0.0000009  -0.0000487  -0.0000816   0.0000067
    2  -0.0001027   0.0001801   0.0000900   0.0000023  -0.0000029   0.0000149
    3   0.0002414   0.0006082   0.0000584   0.0000263   0.0001081  -0.0000203
           13          14          15          16          17          18
    1  -0.0000539   0.0001829   0.0000409   0.0000809  -0.0000477   0.0000056
    2   0.0000277  -0.0003555  -0.0000991   0.0001922   0.0000955   0.0000234
    3   0.0000673  -0.0002395   0.0000899   0.0000373   0.0000274  -0.0000308
           19          20          21          22          23          24
    1   0.0000403   0.0000083  -0.0000078  -0.0000140   0.0000059  -0.0000219
    2  -0.0000002   0.0000048  -0.0000018  -0.0000133  -0.0000086  -0.0000068
    3   0.0000322  -0.0000034  -0.0000105  -0.0000172  -0.0000174   0.0000095
           25          26          27          28          29          30
    1   0.0000240  -0.0000009  -0.0000087  -0.0000058   0.0000289  -0.0000246
    2  -0.0000017   0.0000115   0.0000059   0.0000080   0.0000089   0.0000575
    3  -0.0000182   0.0000167   0.0000028   0.0000185  -0.0000424  -0.0000191
           31          32
    1  -0.0000510   0.0000302
    2  -0.0000031  -0.0000284
    3  -0.0000411   0.0000326
 Max gradient component =       1.834E-03
 RMS gradient           =       3.792E-04
 Gradient time:  CPU 310.69 s  wall 21.67 s
 Geometry Optimization Parameters
   NAtoms,    NIC,     NZ,  NCons,   NDum,   NFix, NCnnct, MaxDiis
       32     251       0       0       0       0       0       0

 Cartesian Hessian Update
 Hessian Updated using BFGS Update


** GEOMETRY OPTIMIZATION IN DELOCALIZED INTERNAL COORDINATES **
   Searching for a Minimum

   Optimization Cycle:   2

                       Coordinates (Angstroms)
     ATOM                X               Y               Z
      1  C         0.0445243561    1.0091850303    0.7466321180
      2  C         0.7482442402   -0.3913425708    0.8277732799
      3  C        -1.4633394105    0.9366248099    0.5838294843
      4  C        -0.0994242703   -1.6141242035    0.5433559200
      5  O        -1.9127500681    1.5813213762   -0.5055333569
      6  O        -2.1867675721    0.4027875309    1.3909425324
      7  O        -0.8748678172   -1.4662293692   -0.5466949771
      8  O        -0.0532520403   -2.6266164759    1.1993945877
      9  C        -1.7442338709   -2.5679163574   -0.8623819987
     10  C        -3.3359198774    1.5376514651   -0.7179859650
     11  C         0.8627187055    1.7008299544   -0.3728639850
     12  C         2.2214614260    2.1422922893    0.2100055296
     13  C         2.9379126006    0.7688986429    0.3524393306
     14  C         1.8860994334   -0.2042649008   -0.2481440133
     15  O         1.2324665313    0.6150005466   -1.2318176467
     16  H         0.1819598494    1.5252635467    1.7010327582
     17  H         1.1744978249   -0.5641515016    1.8138595494
     18  H        -2.4759306478   -2.7065732889   -0.0648437677
     19  H        -3.6694970741    0.5032329901   -0.8109090936
     20  H         2.7409460939    2.7870020644   -0.5003524942
     21  H         2.1247480932    2.6840107555    1.1532318917
     22  H         3.8544798269    0.7335669002   -0.2388676599
     23  H         3.1927241116    0.5156615243    1.3831910291
     24  H        -2.2358419514   -2.2903227520   -1.7922354929
     25  H        -1.1690028553   -3.4858493899   -0.9903816889
     26  H        -3.5071150524    2.0813723042   -1.6443171489
     27  H        -3.8622909883    2.0116589324    0.1117595033
     28  H         0.3193255978    2.4495526327   -0.9406048462
     29  C         2.4413562783   -1.4637803743   -0.8730609264
     30  H         3.1986346467   -1.2043739555   -1.6158275968
     31  H         2.9013209820   -2.0971328786   -0.1108079120
     32  H         1.6555229985   -2.0344496378   -1.3699366040
   Point Group: c1    Number of degrees of freedom:    90


   Energy is   -805.196509670

 Hessian Updated using BFGS Update

 81 Hessian modes will be used to form the next step
  Hessian Eigenvalues:
     0.002897    0.004991    0.006896    0.007268    0.007629    0.010398
     0.010537    0.010924    0.022310    0.022768    0.023145    0.024641
     0.028880    0.035077    0.037529    0.038561    0.040992    0.043977
     0.048543    0.051370    0.052135    0.054633    0.055361    0.057072
     0.058318    0.059530    0.063919    0.064938    0.065975    0.074422
     0.081408    0.092855    0.100004    0.101413    0.101497    0.105996
     0.106172    0.106759    0.121966    0.129645    0.158248    0.159997
     0.160856    0.175536    0.231735    0.237701    0.249247    0.249731
     0.249862    0.249992    0.251754    0.255306    0.267828    0.278178
     0.305235    0.308748    0.311818    0.337845    0.344066    0.345172
     0.345814    0.345826    0.346333    0.346592    0.346773    0.347000
     0.347046    0.347089    0.347159    0.347186    0.348609    0.350347
     0.350656    0.350836    0.353433    0.396319    0.398039    0.559080
     0.564897    1.007979    1.012172

 Minimum Search - Taking Simple RFO Step
 Searching for Lamda that Minimizes Along All modes
 Value Taken    Lamda =  -0.00006940
 Step Taken.  Stepsize is  0.060599

                             Maximum     Tolerance    Cnvgd?
         Gradient           0.000868      0.000001      NO
         Displacement       0.024616      0.000001      NO
         Energy change      0.000005      0.000000      NO


 New Cartesian Coordinates Obtained by Inverse Iteration

 Displacement from previous Coordinates is:  0.198787
 Adding empirical dispersion correction 
 ----------------------------------------------------------------
 Doing -D3(op) with
 s6 =   1.00000
 s8 =   0.78311
 a1 =   0.30000
 a2 =   4.25000
 n  =  10.00000
 -D3 energy without 3body term =     -0.0367314267 hartrees
 ----------------------------------------------------------------
             Standard Nuclear Orientation (Angstroms)
    I     Atom           X                Y                Z
 ----------------------------------------------------------------
    1      C       0.0468383736     1.0151569867     0.7564609937
    2      C       0.7493943604    -0.3861514587     0.8303501038
    3      C      -1.4605603155     0.9424465573     0.5897056622
    4      C      -0.1055859008    -1.6054994602     0.5534588984
    5      O      -1.9060573339     1.5733833923    -0.5093192421
    6      O      -2.1852802441     0.3998159327     1.3897557152
    7      O      -0.8773785044    -1.4600854043    -0.5395309287
    8      O      -0.0592403342    -2.6176049093     1.2099858366
    9      C      -1.7471969648    -2.5616984448    -0.8543855014
   10      C      -3.3268307382     1.5155585161    -0.7338755611
   11      C       0.8655074615     1.7106019020    -0.3605095994
   12      C       2.2284885351     2.1419914711     0.2203535700
   13      C       2.9410338305     0.7650359594     0.3475964878
   14      C       1.8809602821    -0.1995889816    -0.2519771152
   15      O       1.2264953286     0.6284283368    -1.2277889154
   16      H       0.1835224811     1.5265797847     1.7133610853
   17      H       1.1815350518    -0.5609856961     1.8135147907
   18      H      -2.4823884395    -2.6960494559    -0.0592990061
   19      H      -3.6508253857     0.4776028410    -0.8211985565
   20      H       2.7470692472     2.7910177861    -0.4867102196
   21      H       2.1379741764     2.6758894491     1.1686478838
   22      H       3.8532701972     0.7304538597    -0.2504125275
   23      H       3.2021408275     0.5035867081     1.3747252771
   24      H      -2.2344886041    -2.2870352818    -1.7873794840
   25      H      -1.1729677139    -3.4810666639    -0.9763224544
   26      H      -3.4945007202     2.0501290917    -1.6661618993
   27      H      -3.8645602957     1.9918213772     0.0872484115
   28      H       0.3238314864     2.4653428038    -0.9218793417
   29      C       2.4261748952    -1.4589319331    -0.8860477044
   30      H       3.1818426179    -1.2001633670    -1.6306695154
   31      H       2.8856816687    -2.0990307775    -0.1291374315
   32      H       1.6348107738    -2.0221652816    -1.3826793725
 ----------------------------------------------------------------
 Nuclear Repulsion Energy =  1263.3031084561 hartrees
 There are       61 alpha and       61 beta electrons
 Applying Cartesian multipole field
    Component          Value
    ---------          -----
     (2,0,0)        1.00000E-11
     (0,2,0)        2.00000E-11
     (0,0,2)       -3.00000E-11
 Nucleus-field energy     =     0.0000000277 hartrees
 Requested basis set is 6-311++G(d,p)
 There are 176 shells and 464 basis functions
 A cutoff of  1.0D-11 yielded  12844 shell pairs
 There are     91024 function pairs (     97124 Cartesian)
 Smallest overlap matrix eigenvalue = 8.15E-07

 Q-Chem warning in module /fs/scratch/osu6415/qchem-kaunlao-vdw/stvman/mkSTV.C, line 281:

 Overlap eigenvalue is smaller than square root of threshold

 Linear dependence detected in AO basis
 Number of orthogonalized atomic orbitals = 463
 Maximum deviation from orthogonality = 9.135E-11
 Guess MOs from SCF MO coefficient file
 Reading MOs from coefficient file
 Reading MOs from coefficient file
 A restricted hybrid HF-DFT SCF calculation will be
 performed using Pulay DIIS extrapolation
 Exchange:     0.2000 Hartree-Fock + 0.0800 Slater + 0.7200 B88
 Correlation:  0.1900 VWN1RPA + 0.8100 LYP
 Using SG-1 standard quadrature grid
 Dispersion:   Grimme D3
 SCF converges when DIIS error is below 1.0E-08
 Geometry optimization detected.  Setting ReadMinima to 0
 Setting SaveMinima to 0
 using 20 threads for integral computing
 -------------------------------------------------------
 OpenMP Integral computing Module                
 Release: version 1.0, May 2013, Q-Chem Inc. Pittsburgh 
 -------------------------------------------------------
 -------------------------------------------------------
 OpenMP BLAS3 based DFT computing Module                
 Release: version 1.0, May 2013, Q-Chem Inc. Pittsburgh 
 -------------------------------------------------------
 ---------------------------------------
  Cycle       Energy         DIIS Error
 ---------------------------------------
    1    -805.1934026713      2.43E-04
    2    -805.1965114374      2.62E-05
    3    -805.1964954861      4.14E-05
    4    -805.1965287724      1.00E-05
    5    -805.1965303664      4.02E-06
    6    -805.1965306812      1.01E-06
    7    -805.1965306979      4.68E-07
    8    -805.1965307024      8.81E-08
    9    -805.1965307027      4.87E-08
   10    -805.1965307043      1.47E-08
   11    -805.1965306984      7.06E-09 Convergence criterion met
 ---------------------------------------
 SCF time:  CPU 687.76 s  wall 36.30 s
 SCF   energy in the final basis set = -805.19653070
 Total energy in the final basis set = -805.19653070
 
 --------------------------------------------------------------
 
                    Orbital Energies (a.u.)
 --------------------------------------------------------------
 
 Alpha MOs
 -- Occupied --
-19.178 -19.171 -19.130 -19.115 -19.113 -10.309 -10.303 -10.245
-10.232 -10.231 -10.227 -10.206 -10.203 -10.180 -10.180 -10.170
 -1.119  -1.112  -1.063  -1.029  -1.025  -0.831  -0.796  -0.783
 -0.746  -0.728  -0.693  -0.655  -0.605  -0.592  -0.572  -0.565
 -0.528  -0.514  -0.508  -0.492  -0.490  -0.482  -0.477  -0.470
 -0.461  -0.442  -0.432  -0.424  -0.417  -0.403  -0.394  -0.386
 -0.377  -0.372  -0.367  -0.364  -0.355  -0.353  -0.337  -0.334
 -0.318  -0.311  -0.292  -0.277  -0.272
 -- Virtual --
 -0.019  -0.012  -0.005   0.000   0.006   0.009   0.013   0.019
  0.027   0.034   0.034   0.040   0.044   0.045   0.051   0.055
  0.064   0.067   0.072   0.074   0.081   0.088   0.092   0.095
  0.100   0.101   0.108   0.111   0.112   0.114   0.118   0.122
  0.127   0.129   0.131   0.135   0.137   0.140   0.142   0.145
  0.149   0.150   0.153   0.158   0.158   0.159   0.163   0.163
  0.168   0.173   0.175   0.179   0.184   0.184   0.188   0.188
  0.194   0.197   0.202   0.210   0.213   0.216   0.218   0.225
  0.226   0.233   0.236   0.242   0.245   0.252   0.259   0.262
  0.270   0.276   0.283   0.285   0.288   0.292   0.296   0.299
  0.306   0.311   0.323   0.324   0.328   0.330   0.332   0.338
  0.345   0.349   0.355   0.358   0.361   0.364   0.369   0.372
  0.373   0.376   0.385   0.391   0.396   0.405   0.408   0.413
  0.418   0.427   0.428   0.440   0.444   0.465   0.470   0.475
  0.501   0.506   0.514   0.521   0.525   0.528   0.535   0.554
  0.560   0.570   0.575   0.582   0.592   0.602   0.612   0.624
  0.633   0.636   0.642   0.649   0.650   0.657   0.659   0.672
  0.673   0.682   0.691   0.694   0.699   0.704   0.714   0.720
  0.728   0.733   0.736   0.743   0.750   0.753   0.766   0.775
  0.783   0.788   0.794   0.808   0.813   0.824   0.833   0.852
  0.863   0.891   0.916   0.933   0.962   0.993   1.011   1.014
  1.031   1.042   1.062   1.068   1.075   1.084   1.108   1.142
  1.162   1.167   1.190   1.200   1.204   1.212   1.228   1.232
  1.250   1.253   1.269   1.281   1.285   1.301   1.306   1.332
  1.337   1.343   1.374   1.376   1.387   1.398   1.404   1.417
  1.438   1.450   1.455   1.466   1.479   1.502   1.504   1.516
  1.522   1.545   1.548   1.561   1.564   1.566   1.573   1.584
  1.591   1.605   1.613   1.614   1.626   1.636   1.652   1.669
  1.672   1.690   1.697   1.700   1.706   1.711   1.718   1.734
  1.744   1.753   1.756   1.781   1.789   1.801   1.812   1.820
  1.836   1.842   1.854   1.860   1.880   1.889   1.902   1.908
  1.940   1.946   1.978   1.985   1.999   2.001   2.019   2.029
  2.038   2.072   2.085   2.110   2.111   2.118   2.124   2.134
  2.141   2.158   2.170   2.180   2.204   2.217   2.237   2.255
  2.267   2.309   2.329   2.365   2.400   2.422   2.445   2.456
  2.465   2.476   2.491   2.495   2.507   2.515   2.518   2.526
  2.530   2.551   2.562   2.580   2.593   2.609   2.626   2.633
  2.640   2.658   2.679   2.690   2.720   2.734   2.752   2.772
  2.797   2.815   2.826   2.833   2.847   2.866   2.873   2.875
  2.896   2.906   2.908   2.936   2.949   2.982   2.997   3.009
  3.036   3.038   3.050   3.067   3.081   3.095   3.107   3.110
  3.137   3.153   3.169   3.183   3.213   3.219   3.240   3.251
  3.265   3.299   3.337   3.353   3.360   3.387   3.397   3.444
  3.583   3.606   3.608   3.658   3.697   3.734   3.773   3.793
  3.824   3.827   3.841   3.856   3.934   3.963   4.029   4.064
  4.072   4.083   4.121   4.148   4.154   4.169   4.221   4.256
  4.272   4.432   4.506   5.042   5.095   5.138   5.172   5.230
  5.247   5.254   5.403   5.442   5.516   5.623   5.647   5.663
  5.879   5.894  23.783  23.849  23.851  23.884  23.905  23.930
 23.943  23.955  23.973  23.985  24.045  49.919  49.935  49.985
 50.036  50.049
 --------------------------------------------------------------
 
          Ground-State Mulliken Net Atomic Charges

     Atom                 Charge (a.u.)
  ----------------------------------------
      1 C                     0.073731
      2 C                     0.336556
      3 C                    -0.642895
      4 C                    -0.586972
      5 O                    -0.005066
      6 O                    -0.183323
      7 O                    -0.035158
      8 O                    -0.167615
      9 C                    -0.222644
     10 C                    -0.185764
     11 C                     0.018721
     12 C                    -0.542137
     13 C                    -0.385936
     14 C                    -0.099598
     15 O                    -0.070985
     16 H                     0.248428
     17 H                     0.287357
     18 H                     0.207452
     19 H                     0.165322
     20 H                     0.182358
     21 H                     0.122525
     22 H                     0.169133
     23 H                     0.141194
     24 H                     0.158327
     25 H                     0.175383
     26 H                     0.154449
     27 H                     0.173404
     28 H                     0.299278
     29 C                    -0.306789
     30 H                     0.177581
     31 H                     0.165490
     32 H                     0.178193
  ----------------------------------------
  Sum of atomic charges =     0.000000

 -----------------------------------------------------------------
                    Cartesian Multipole Moments
 -----------------------------------------------------------------
    Charge (ESU x 10^10)
                 0.0000
    Dipole Moment (Debye)
         X       0.3838      Y       2.2173      Z      -1.6994
       Tot       2.8199
    Quadrupole Moments (Debye-Ang)
        XX     -84.8010     XY       0.1600     YY     -94.0699
        XZ       9.4084     YZ       8.1527     ZZ    -101.2487
    Octopole Moments (Debye-Ang^2)
       XXX     -35.4361    XXY       1.5527    XYY     -19.9741
       YYY      15.6465    XXZ     -23.1062    XYZ       0.8413
       YYZ     -23.2791    XZZ      -2.5984    YZZ       5.0851
       ZZZ      -5.4452
    Hexadecapole Moments (Debye-Ang^3)
      XXXX   -2064.8500   XXXY     -61.3352   XXYY    -564.4165
      XYYY      -1.0794   YYYY   -1548.4543   XXXZ      41.1436
      XXYZ     -11.7500   XYYZ       6.3394   YYYZ      51.6180
      XXZZ    -453.4288   XYZZ      -9.6705   YYZZ    -345.7410
      XZZZ      26.8378   YZZZ       7.8702   ZZZZ    -527.7199
 -----------------------------------------------------------------
 Calculating analytic gradient of the SCF energy
 Gradient of SCF Energy
            1           2           3           4           5           6
    1   0.0000433  -0.0004407  -0.0000904   0.0003856   0.0000734   0.0000376
    2  -0.0006444   0.0005031   0.0008978   0.0000622  -0.0002367  -0.0003929
    3  -0.0003703   0.0003440   0.0010717  -0.0006255  -0.0002835  -0.0002882
            7           8           9          10          11          12
    1   0.0000278  -0.0000954   0.0000016  -0.0000720   0.0000199  -0.0000179
    2  -0.0000464   0.0000149   0.0000374   0.0000019   0.0000473  -0.0000056
    3   0.0001031   0.0001888   0.0000201   0.0000054   0.0000564   0.0000829
           13          14          15          16          17          18
    1   0.0000488   0.0000984   0.0000842  -0.0000388  -0.0000846   0.0000111
    2   0.0000215  -0.0002448  -0.0000608   0.0001475  -0.0000053   0.0000129
    3  -0.0001331  -0.0001337   0.0000133   0.0000172   0.0000051  -0.0000149
           19          20          21          22          23          24
    1  -0.0000351  -0.0000007   0.0000173   0.0000320  -0.0000089  -0.0000097
    2   0.0000187  -0.0000196   0.0000094  -0.0000250  -0.0000092  -0.0000093
    3   0.0000064  -0.0000184   0.0000005   0.0000310  -0.0000115   0.0000039
           25          26          27          28          29          30
    1   0.0000013  -0.0000073   0.0000287  -0.0000189   0.0000778  -0.0000327
    2  -0.0000049  -0.0000041   0.0000033  -0.0000603   0.0000511   0.0000366
    3  -0.0000195   0.0000030   0.0000288   0.0000004   0.0000305  -0.0000326
           31          32
    1  -0.0000668   0.0000311
    2  -0.0000129  -0.0000834
    3  -0.0000372  -0.0000439
 Max gradient component =       1.072E-03
 RMS gradient           =       2.111E-04
 Gradient time:  CPU 317.01 s  wall 22.91 s
 Geometry Optimization Parameters
   NAtoms,    NIC,     NZ,  NCons,   NDum,   NFix, NCnnct, MaxDiis
       32     251       0       0       0       0       0       0

 Cartesian Hessian Update
 Hessian Updated using BFGS Update


** GEOMETRY OPTIMIZATION IN DELOCALIZED INTERNAL COORDINATES **
   Searching for a Minimum

   Optimization Cycle:   3

                       Coordinates (Angstroms)
     ATOM                X               Y               Z
      1  C         0.0468383736    1.0151569867    0.7564609937
      2  C         0.7493943604   -0.3861514587    0.8303501038
      3  C        -1.4605603155    0.9424465573    0.5897056622
      4  C        -0.1055859008   -1.6054994602    0.5534588984
      5  O        -1.9060573339    1.5733833923   -0.5093192421
      6  O        -2.1852802441    0.3998159327    1.3897557152
      7  O        -0.8773785044   -1.4600854043   -0.5395309287
      8  O        -0.0592403342   -2.6176049093    1.2099858366
      9  C        -1.7471969648   -2.5616984448   -0.8543855014
     10  C        -3.3268307382    1.5155585161   -0.7338755611
     11  C         0.8655074615    1.7106019020   -0.3605095994
     12  C         2.2284885351    2.1419914711    0.2203535700
     13  C         2.9410338305    0.7650359594    0.3475964878
     14  C         1.8809602821   -0.1995889816   -0.2519771152
     15  O         1.2264953286    0.6284283368   -1.2277889154
     16  H         0.1835224811    1.5265797847    1.7133610853
     17  H         1.1815350518   -0.5609856961    1.8135147907
     18  H        -2.4823884395   -2.6960494559   -0.0592990061
     19  H        -3.6508253857    0.4776028410   -0.8211985565
     20  H         2.7470692472    2.7910177861   -0.4867102196
     21  H         2.1379741764    2.6758894491    1.1686478838
     22  H         3.8532701972    0.7304538597   -0.2504125275
     23  H         3.2021408275    0.5035867081    1.3747252771
     24  H        -2.2344886041   -2.2870352818   -1.7873794840
     25  H        -1.1729677139   -3.4810666639   -0.9763224544
     26  H        -3.4945007202    2.0501290917   -1.6661618993
     27  H        -3.8645602957    1.9918213772    0.0872484115
     28  H         0.3238314864    2.4653428038   -0.9218793417
     29  C         2.4261748952   -1.4589319331   -0.8860477044
     30  H         3.1818426179   -1.2001633670   -1.6306695154
     31  H         2.8856816687   -2.0990307775   -0.1291374315
     32  H         1.6348107738   -2.0221652816   -1.3826793725
   Point Group: c1    Number of degrees of freedom:    90


   Energy is   -805.196530698

 Hessian Updated using BFGS Update

 83 Hessian modes will be used to form the next step
  Hessian Eigenvalues:
     0.002482    0.005279    0.006935    0.007183    0.007625    0.010396
     0.010538    0.011215    0.022549    0.022777    0.023026    0.025501
     0.032025    0.035921    0.037537    0.040431    0.042424    0.043659
     0.048898    0.051627    0.053315    0.055102    0.055642    0.057170
     0.058328    0.059528    0.063771    0.064721    0.065676    0.074455
     0.080746    0.092373    0.099606    0.101410    0.101496    0.103688
     0.106018    0.106181    0.119707    0.125134    0.155145    0.159909
     0.160000    0.161214    0.174376    0.231804    0.239402    0.249226
     0.249566    0.249825    0.249987    0.250000    0.250573    0.255379
     0.268896    0.278200    0.305235    0.309620    0.311876    0.336817
     0.343838    0.345144    0.345815    0.345826    0.346331    0.346594
     0.346763    0.347000    0.347046    0.347124    0.347158    0.347183
     0.348434    0.350354    0.350656    0.350836    0.353451    0.396413
     0.397964    0.559136    0.565481    1.007990    1.011866

 Minimum Search - Taking Simple RFO Step
 Searching for Lamda that Minimizes Along All modes
 Value Taken    Lamda =  -0.00004024
 Step Taken.  Stepsize is  0.076361

                             Maximum     Tolerance    Cnvgd?
         Gradient           0.000367      0.000001      NO
         Displacement       0.029525      0.000001      NO
         Energy change     -0.000021      0.000000      NO


 New Cartesian Coordinates Obtained by Inverse Iteration

 Displacement from previous Coordinates is:  0.175549
 Adding empirical dispersion correction 
 ----------------------------------------------------------------
 Doing -D3(op) with
 s6 =   1.00000
 s8 =   0.78311
 a1 =   0.30000
 a2 =   4.25000
 n  =  10.00000
 -D3 energy without 3body term =     -0.0367352778 hartrees
 ----------------------------------------------------------------
             Standard Nuclear Orientation (Angstroms)
    I     Atom           X                Y                Z
 ----------------------------------------------------------------
    1      C       0.0447312490     1.0153512525     0.7603023306
    2      C       0.7514205208    -0.3845841822     0.8311951002
    3      C      -1.4608090588     0.9362830424     0.5802773630
    4      C      -0.1060406595    -1.6048590865     0.5649097512
    5      O      -1.9001916503     1.5745093082    -0.5168872578
    6      O      -2.1908465341     0.3989266318     1.3790773527
    7      O      -0.8829502667    -1.4634361618    -0.5250996676
    8      O      -0.0449731654    -2.6200282574     1.2153468186
    9      C      -1.7469085021    -2.5704185481    -0.8375103619
   10      C      -3.3194693344     1.5178718886    -0.7503135230
   11      C       0.8658620759     1.7175563110    -0.3505290695
   12      C       2.2306455589     2.1410228655     0.2322175604
   13      C       2.9421986947     0.7622499542     0.3436849192
   14      C       1.8766806491    -0.1955524576    -0.2567739504
   15      O       1.2215244858     0.6401820205    -1.2256921975
   16      H       0.1738352525     1.5222963748     1.7204440070
   17      H       1.1906111179    -0.5573995767     1.8116331348
   18      H      -2.4788027650    -2.7096084569    -0.0401622822
   19      H      -3.6421991842     0.4803971720    -0.8476218692
   20      H       2.7485385566     2.7968402639    -0.4690518797
   21      H       2.1426562032     2.6652090564     1.1861479869
   22      H       3.8504095377     0.7313984465    -0.2606032811
   23      H       3.2094935590     0.4921604461     1.3669960260
   24      H      -2.2387048091    -2.2984883539    -1.7689479192
   25      H      -1.1673706929    -3.4861646826    -0.9613841766
   26      H      -3.4817221899     2.0594751499    -1.6794909796
   27      H      -3.8626245490     1.9875181032     0.0710477599
   28      H       0.3261512029     2.4780356538    -0.9060993888
   29      C       2.4148397075    -1.4536177401    -0.8992228205
   30      H       3.1684598759    -1.1943773486    -1.6457402067
   31      H       2.8753491027    -2.0989110209    -0.1472450087
   32      H       1.6189161114    -2.0110524281    -1.3950239305
 ----------------------------------------------------------------
 Nuclear Repulsion Energy =  1263.4310328257 hartrees
 There are       61 alpha and       61 beta electrons
 Applying Cartesian multipole field
    Component          Value
    ---------          -----
     (2,0,0)        1.00000E-11
     (0,2,0)        2.00000E-11
     (0,0,2)       -3.00000E-11
 Nucleus-field energy     =     0.0000000278 hartrees
 Requested basis set is 6-311++G(d,p)
 There are 176 shells and 464 basis functions
 A cutoff of  1.0D-11 yielded  12842 shell pairs
 There are     91011 function pairs (     97110 Cartesian)
 Smallest overlap matrix eigenvalue = 8.11E-07

 Q-Chem warning in module /fs/scratch/osu6415/qchem-kaunlao-vdw/stvman/mkSTV.C, line 281:

 Overlap eigenvalue is smaller than square root of threshold

 Linear dependence detected in AO basis
 Number of orthogonalized atomic orbitals = 463
 Maximum deviation from orthogonality = 1.239E-10
 Guess MOs from SCF MO coefficient file
 Reading MOs from coefficient file
 Reading MOs from coefficient file
 A restricted hybrid HF-DFT SCF calculation will be
 performed using Pulay DIIS extrapolation
 Exchange:     0.2000 Hartree-Fock + 0.0800 Slater + 0.7200 B88
 Correlation:  0.1900 VWN1RPA + 0.8100 LYP
 Using SG-1 standard quadrature grid
 Dispersion:   Grimme D3
 SCF converges when DIIS error is below 1.0E-08
 Geometry optimization detected.  Setting ReadMinima to 0
 Setting SaveMinima to 0
 using 20 threads for integral computing
 -------------------------------------------------------
 OpenMP Integral computing Module                
 Release: version 1.0, May 2013, Q-Chem Inc. Pittsburgh 
 -------------------------------------------------------
 -------------------------------------------------------
 OpenMP BLAS3 based DFT computing Module                
 Release: version 1.0, May 2013, Q-Chem Inc. Pittsburgh 
 -------------------------------------------------------
 ---------------------------------------
  Cycle       Energy         DIIS Error
 ---------------------------------------
    1    -805.1973382682      2.68E-04
    2    -805.1964923760      3.44E-05
    3    -805.1964608141      5.51E-05
    4    -805.1965187170      1.05E-05
    5    -805.1965203083      4.80E-06
    6    -805.1965207678      9.68E-07
    7    -805.1965207832      4.55E-07
    8    -805.1965207871      9.63E-08
    9    -805.1965207873      4.41E-08
   10    -805.1965207876      1.51E-08
   11    -805.1965207861      5.66E-09 Convergence criterion met
 ---------------------------------------
 SCF time:  CPU 698.17 s  wall 36.32 s
 SCF   energy in the final basis set = -805.19652079
 Total energy in the final basis set = -805.19652079
 
 --------------------------------------------------------------
 
                    Orbital Energies (a.u.)
 --------------------------------------------------------------
 
 Alpha MOs
 -- Occupied --
-19.177 -19.171 -19.130 -19.115 -19.113 -10.309 -10.303 -10.245
-10.232 -10.231 -10.227 -10.206 -10.203 -10.180 -10.180 -10.170
 -1.119  -1.112  -1.063  -1.029  -1.025  -0.831  -0.796  -0.783
 -0.746  -0.728  -0.693  -0.655  -0.605  -0.592  -0.572  -0.565
 -0.527  -0.514  -0.508  -0.492  -0.490  -0.482  -0.477  -0.470
 -0.461  -0.442  -0.432  -0.423  -0.417  -0.403  -0.394  -0.386
 -0.377  -0.372  -0.367  -0.364  -0.355  -0.353  -0.337  -0.334
 -0.318  -0.311  -0.292  -0.277  -0.272
 -- Virtual --
 -0.019  -0.012  -0.005   0.000   0.006   0.009   0.013   0.019
  0.027   0.034   0.034   0.040   0.044   0.044   0.051   0.055
  0.064   0.067   0.072   0.074   0.081   0.088   0.092   0.095
  0.100   0.102   0.108   0.111   0.112   0.114   0.118   0.122
  0.127   0.129   0.131   0.135   0.137   0.140   0.142   0.145
  0.149   0.150   0.153   0.158   0.159   0.159   0.163   0.163
  0.168   0.173   0.175   0.179   0.184   0.184   0.188   0.188
  0.194   0.197   0.202   0.210   0.214   0.216   0.218   0.225
  0.226   0.232   0.237   0.242   0.245   0.253   0.259   0.263
  0.270   0.276   0.283   0.285   0.288   0.292   0.295   0.299
  0.306   0.311   0.323   0.324   0.329   0.330   0.332   0.338
  0.345   0.349   0.355   0.357   0.361   0.364   0.369   0.372
  0.373   0.377   0.384   0.390   0.395   0.404   0.408   0.412
  0.418   0.427   0.428   0.440   0.444   0.465   0.469   0.475
  0.501   0.506   0.514   0.521   0.524   0.528   0.535   0.554
  0.559   0.570   0.575   0.581   0.592   0.602   0.612   0.624
  0.632   0.636   0.642   0.649   0.650   0.657   0.660   0.672
  0.673   0.682   0.691   0.695   0.699   0.704   0.714   0.719
  0.728   0.733   0.736   0.743   0.750   0.752   0.767   0.774
  0.783   0.789   0.794   0.808   0.814   0.824   0.834   0.853
  0.863   0.891   0.916   0.933   0.963   0.993   1.010   1.015
  1.031   1.042   1.062   1.067   1.073   1.084   1.110   1.141
  1.162   1.167   1.190   1.200   1.204   1.213   1.228   1.233
  1.251   1.254   1.268   1.281   1.285   1.301   1.305   1.333
  1.336   1.345   1.374   1.378   1.387   1.399   1.405   1.417
  1.438   1.450   1.454   1.467   1.478   1.502   1.505   1.516
  1.523   1.545   1.547   1.562   1.563   1.566   1.573   1.584
  1.591   1.605   1.613   1.614   1.627   1.636   1.652   1.668
  1.672   1.689   1.697   1.700   1.706   1.711   1.718   1.733
  1.744   1.754   1.756   1.781   1.790   1.801   1.812   1.820
  1.837   1.844   1.854   1.861   1.880   1.890   1.902   1.906
  1.940   1.946   1.977   1.985   1.999   2.002   2.018   2.029
  2.037   2.072   2.086   2.110   2.111   2.118   2.126   2.134
  2.141   2.157   2.170   2.179   2.204   2.217   2.237   2.254
  2.268   2.309   2.330   2.365   2.400   2.423   2.445   2.457
  2.465   2.475   2.491   2.495   2.507   2.515   2.518   2.526
  2.531   2.550   2.562   2.580   2.593   2.610   2.626   2.634
  2.640   2.658   2.679   2.689   2.720   2.735   2.752   2.772
  2.797   2.816   2.826   2.833   2.846   2.865   2.873   2.875
  2.897   2.906   2.908   2.936   2.950   2.982   2.995   3.010
  3.036   3.037   3.050   3.067   3.082   3.095   3.107   3.110
  3.138   3.154   3.169   3.181   3.212   3.219   3.240   3.251
  3.265   3.297   3.338   3.352   3.360   3.388   3.396   3.444
  3.584   3.605   3.608   3.658   3.697   3.736   3.773   3.792
  3.824   3.827   3.841   3.856   3.934   3.963   4.029   4.065
  4.072   4.082   4.122   4.149   4.155   4.168   4.221   4.255
  4.272   4.433   4.507   5.042   5.096   5.138   5.171   5.229
  5.247   5.254   5.403   5.442   5.516   5.622   5.647   5.663
  5.880   5.894  23.783  23.850  23.851  23.884  23.905  23.930
 23.943  23.955  23.973  23.986  24.045  49.919  49.934  49.984
 50.037  50.048
 --------------------------------------------------------------
 
          Ground-State Mulliken Net Atomic Charges

     Atom                 Charge (a.u.)
  ----------------------------------------
      1 C                     0.065714
      2 C                     0.348483
      3 C                    -0.651115
      4 C                    -0.577062
      5 O                    -0.006039
      6 O                    -0.184175
      7 O                    -0.036041
      8 O                    -0.169830
      9 C                    -0.222102
     10 C                    -0.184701
     11 C                     0.026396
     12 C                    -0.535183
     13 C                    -0.394271
     14 C                    -0.110900
     15 O                    -0.070338
     16 H                     0.249814
     17 H                     0.287491
     18 H                     0.207713
     19 H                     0.164745
     20 H                     0.182317
     21 H                     0.123070
     22 H                     0.169546
     23 H                     0.140297
     24 H                     0.157765
     25 H                     0.175542
     26 H                     0.154207
     27 H                     0.173779
     28 H                     0.299751
     29 C                    -0.306166
     30 H                     0.177486
     31 H                     0.166136
     32 H                     0.177669
  ----------------------------------------
  Sum of atomic charges =     0.000000

 -----------------------------------------------------------------
                    Cartesian Multipole Moments
 -----------------------------------------------------------------
    Charge (ESU x 10^10)
                 0.0000
    Dipole Moment (Debye)
         X       0.3825      Y       2.1990      Z      -1.6951
       Tot       2.8027
    Quadrupole Moments (Debye-Ang)
        XX     -84.9005     XY       0.2686     YY     -94.0596
        XZ       9.3751     YZ       8.1453     ZZ    -101.1939
    Octopole Moments (Debye-Ang^2)
       XXX     -34.9916    XXY       1.4846    XYY     -20.2833
       YYY      15.5333    XXZ     -23.2701    XYZ       1.1243
       YYZ     -23.3467    XZZ      -2.7216    YZZ       5.0928
       ZZZ      -5.4625
    Hexadecapole Moments (Debye-Ang^3)
      XXXX   -2062.4591   XXXY     -61.8789   XXYY    -563.9495
      XYYY      -1.1676   YYYY   -1550.6122   XXXZ      40.4180
      XXYZ     -11.5293   XYYZ       5.7928   YYYZ      53.1287
      XXZZ    -452.3218   XYZZ     -10.1125   YYZZ    -346.6896
      XZZZ      25.1637   YZZZ       9.9187   ZZZZ    -527.7051
 -----------------------------------------------------------------
 Calculating analytic gradient of the SCF energy
 Gradient of SCF Energy
            1           2           3           4           5           6
    1  -0.0004698   0.0005945   0.0002659  -0.0017656   0.0000038   0.0000443
    2  -0.0000876   0.0000408  -0.0015435   0.0008274   0.0004435   0.0004090
    3   0.0000480  -0.0002376  -0.0006019   0.0011740   0.0001678   0.0001227
            7           8           9          10          11          12
    1   0.0004070   0.0005741   0.0000695  -0.0000603   0.0001974  -0.0000465
    2  -0.0000407  -0.0002742  -0.0000134   0.0000025   0.0001790  -0.0000209
    3  -0.0000968  -0.0005124   0.0000034  -0.0000136  -0.0000889   0.0001784
           13          14          15          16          17          18
    1   0.0001338  -0.0001657  -0.0000106   0.0002256  -0.0000593   0.0000029
    2  -0.0000023   0.0001867   0.0001542   0.0000083  -0.0001177  -0.0000285
    3  -0.0002515   0.0000683  -0.0000463   0.0000616  -0.0000168   0.0000331
           19          20          21          22          23          24
    1  -0.0000009  -0.0000028   0.0000597   0.0000627  -0.0000277   0.0000174
    2   0.0000062  -0.0000469   0.0000168  -0.0000079  -0.0000127   0.0000066
    3   0.0000159  -0.0000420  -0.0000034   0.0000681   0.0000217  -0.0000133
           25          26          27          28          29          30
    1  -0.0000398   0.0000055  -0.0000078  -0.0000414   0.0000397  -0.0000226
    2  -0.0000182   0.0000182   0.0000004  -0.0000597   0.0000311   0.0000054
    3  -0.0000139   0.0000207   0.0000036  -0.0000437   0.0000835  -0.0000173
           31          32
    1  -0.0000081   0.0000250
    2  -0.0000157  -0.0000461
    3  -0.0000046  -0.0000670
 Max gradient component =       1.766E-03
 RMS gradient           =       3.277E-04
 Gradient time:  CPU 315.39 s  wall 22.59 s
 Geometry Optimization Parameters
   NAtoms,    NIC,     NZ,  NCons,   NDum,   NFix, NCnnct, MaxDiis
       32     251       0       0       0       0       0       0

 Cartesian Hessian Update
 Hessian Updated using BFGS Update


** GEOMETRY OPTIMIZATION IN DELOCALIZED INTERNAL COORDINATES **
   Searching for a Minimum

   Optimization Cycle:   4

                       Coordinates (Angstroms)
     ATOM                X               Y               Z
      1  C         0.0447312490    1.0153512525    0.7603023306
      2  C         0.7514205208   -0.3845841822    0.8311951002
      3  C        -1.4608090588    0.9362830424    0.5802773630
      4  C        -0.1060406595   -1.6048590865    0.5649097512
      5  O        -1.9001916503    1.5745093082   -0.5168872578
      6  O        -2.1908465341    0.3989266318    1.3790773527
      7  O        -0.8829502667   -1.4634361618   -0.5250996676
      8  O        -0.0449731654   -2.6200282574    1.2153468186
      9  C        -1.7469085021   -2.5704185481   -0.8375103619
     10  C        -3.3194693344    1.5178718886   -0.7503135230
     11  C         0.8658620759    1.7175563110   -0.3505290695
     12  C         2.2306455589    2.1410228655    0.2322175604
     13  C         2.9421986947    0.7622499542    0.3436849192
     14  C         1.8766806491   -0.1955524576   -0.2567739504
     15  O         1.2215244858    0.6401820205   -1.2256921975
     16  H         0.1738352525    1.5222963748    1.7204440070
     17  H         1.1906111179   -0.5573995767    1.8116331348
     18  H        -2.4788027650   -2.7096084569   -0.0401622822
     19  H        -3.6421991842    0.4803971720   -0.8476218692
     20  H         2.7485385566    2.7968402639   -0.4690518797
     21  H         2.1426562032    2.6652090564    1.1861479869
     22  H         3.8504095377    0.7313984465   -0.2606032811
     23  H         3.2094935590    0.4921604461    1.3669960260
     24  H        -2.2387048091   -2.2984883539   -1.7689479192
     25  H        -1.1673706929   -3.4861646826   -0.9613841766
     26  H        -3.4817221899    2.0594751499   -1.6794909796
     27  H        -3.8626245490    1.9875181032    0.0710477599
     28  H         0.3261512029    2.4780356538   -0.9060993888
     29  C         2.4148397075   -1.4536177401   -0.8992228205
     30  H         3.1684598759   -1.1943773486   -1.6457402067
     31  H         2.8753491027   -2.0989110209   -0.1472450087
     32  H         1.6189161114   -2.0110524281   -1.3950239305
   Point Group: c1    Number of degrees of freedom:    90


   Energy is   -805.196520786

 Hessian Updated using BFGS Update

 85 Hessian modes will be used to form the next step
  Hessian Eigenvalues:
     0.002274    0.005332    0.006824    0.007162    0.007635    0.010395
     0.010536    0.021506    0.022699    0.022837    0.023670    0.027142
     0.034625    0.035405    0.037533    0.040672    0.043351    0.046782
     0.048792    0.051718    0.052793    0.055309    0.055881    0.057431
     0.058330    0.059521    0.064116    0.065033    0.066067    0.074413
     0.081265    0.092773    0.099422    0.101411    0.101496    0.104693
     0.106023    0.106191    0.119674    0.129767    0.157631    0.159766
     0.159998    0.160282    0.161686    0.174705    0.231568    0.240042
     0.249310    0.249433    0.249812    0.249988    0.249998    0.250346
     0.251411    0.255314    0.267848    0.278230    0.305607    0.308923
     0.311819    0.337314    0.343755    0.345135    0.345815    0.345826
     0.346337    0.346593    0.346771    0.347000    0.347046    0.347097
     0.347158    0.347183    0.349394    0.350340    0.350656    0.350837
     0.353435    0.396257    0.397969    0.559055    0.565054    1.008038
     1.011796

 Minimum Search - Taking Simple RFO Step
 Searching for Lamda that Minimizes Along All modes
 Value Taken    Lamda =  -0.00004508
 Step Taken.  Stepsize is  0.035193

                             Maximum     Tolerance    Cnvgd?
         Gradient           0.000678      0.000001      NO
         Displacement       0.013304      0.000001      NO
[...]
     0.00004243     -0.00013356      0.00012222
    -0.00003247      0.00004118      0.00019106
    -0.00000549      0.00002306      0.00002278
    -0.00002442      0.00005840      0.00000036
     0.00000730      0.00003202      0.00000742
    -0.00021041     -0.00003894      0.00006097
    -0.00066754     -0.00103536      0.00045682
     0.00295860      0.01962252      0.01519347
     0.04444466     -0.01012840      0.00893520
    -0.00041006     -0.00055935     -0.00028577
    -0.00006436      0.00016083      0.00003044
     0.09039907      0.29249100      0.57217214
    -0.01613471      0.00567338     -0.03803563
    -0.00023272     -0.00006089      0.00027207
     0.00054764      0.00215926      0.00011995
    -0.06471052     -0.07805011      0.09452483
     0.02745715     -0.14123413     -0.27364328
    -0.42013495      0.00719049      0.30028387
    -0.09135669      0.10629682     -0.40387510
    -0.00014074      0.00008515     -0.00026721
     0.00035576     -0.00059453     -0.00003561
    -0.00005092     -0.00051980      0.00092252
     0.00145688     -0.00138625     -0.00242916
    -0.00370861      0.00867602     -0.00571583
     0.00129306     -0.00399705     -0.00087413
    -0.02717742     -0.00922379      0.02773523
    -0.02293364      0.03282268     -0.03768699
     0.03544342      0.02473312      0.02249423
vibration 80
    -0.00721743     -0.02532778     -0.05044900
     0.00370307     -0.00114692      0.00772348
     0.00015519     -0.00010954     -0.00121180
     0.00006453      0.00028908      0.00021040
    -0.00003145     -0.00015234      0.00014045
    -0.00018115     -0.00000548      0.00026232
    -0.00002667     -0.00002383     -0.00001881
    -0.00003428     -0.00011976      0.00000968
     0.00015015      0.00039657      0.00001393
     0.00056010      0.00019974      0.00002736
    -0.00123665      0.00201433     -0.00182017
    -0.01403794     -0.03776042     -0.00736162
    -0.02600897      0.00679727     -0.00730223
    -0.00012524      0.00090631      0.00014419
    -0.00000798      0.00023887      0.00034774
     0.09433904      0.30759876      0.60381368
    -0.04203960      0.01454314     -0.09280300
    -0.00323019     -0.00054917      0.00351034
    -0.00263789     -0.00849591     -0.00073751
     0.20149274      0.24802347     -0.27855483
    -0.03672585      0.18514073      0.36751862
     0.24018360     -0.00416230     -0.17247090
     0.05896183     -0.06828684      0.25740865
    -0.00151070      0.00087499     -0.00287447
     0.00320176     -0.00511788     -0.00066650
    -0.00096780      0.00262038     -0.00477476
    -0.00343090      0.00299160      0.00474379
     0.02060828     -0.03263467      0.02009198
    -0.00049681      0.00158467      0.00025759
     0.01035138      0.00340075     -0.01079279
     0.00956445     -0.01385857      0.01570327
    -0.01395983     -0.01007847     -0.00923930
vibration 81
     0.00099946      0.00390159      0.00726822
     0.00214131     -0.00065731      0.00470568
     0.00009632     -0.00000887      0.00008714
     0.00001603     -0.00031358      0.00016500
    -0.00004162      0.00002202     -0.00002928
    -0.00001250     -0.00001388     -0.00001170
     0.00001505      0.00003675      0.00000936
    -0.00000634      0.00008626     -0.00004919
    -0.00002423     -0.00006421     -0.00001586
     0.00006581     -0.00007951     -0.00009527
    -0.00174776      0.00213034     -0.00068516
    -0.02396267     -0.00996898      0.06089194
     0.01973077      0.01053479     -0.06356834
     0.00056714      0.00028590     -0.00060025
     0.00007983     -0.00016961     -0.00008003
    -0.01241768     -0.04469119     -0.08982777
    -0.02652037      0.00848483     -0.05395558
     0.00040103      0.00010775     -0.00040371
     0.00010558      0.00036693      0.00000921
     0.25649023      0.32174743     -0.34077564
     0.02946884     -0.20698645     -0.38299791
    -0.36945516      0.00887680      0.24458392
     0.13404639     -0.13512740      0.51042760
     0.00036294     -0.00011623      0.00063037
    -0.00039989      0.00077102      0.00009794
     0.00000885     -0.00004297      0.00002796
    -0.00081622      0.00071048      0.00120645
     0.01539912     -0.02240459      0.01534311
    -0.00352763     -0.00467916      0.00540368
     0.04449684      0.01666634     -0.04252651
    -0.02152153      0.02860224     -0.03334751
     0.01702390      0.01077412      0.01264333
vibration 82
    -0.00040805     -0.00120451     -0.00226691
     0.00560672     -0.00195368      0.01169687
    -0.00020603      0.00002599      0.00001839
     0.00018655     -0.00048499      0.00046510
     0.00004663     -0.00001291      0.00002351
     0.00004467      0.00002633     -0.00002574
    -0.00003775      0.00003718     -0.00008424
    -0.00006326      0.00020362     -0.00014378
    -0.00051329      0.00032161      0.00013618
    -0.00009107      0.00015864      0.00016418
     0.00165881     -0.00180738      0.00052260
     0.01853866      0.00702748     -0.04719621
     0.01402746      0.00628770     -0.03939004
    -0.00003094     -0.00007794      0.00056077
    -0.00016607      0.00025097      0.00012165
     0.00298292      0.01320419      0.02803334
    -0.06497531      0.02193780     -0.14003720
     0.00267313      0.00054603     -0.00301640
    -0.00028080     -0.00106324     -0.00002719
    -0.19605943     -0.24903284      0.26222031
    -0.02506217      0.16438873      0.30130166
    -0.24915265      0.00832129      0.16664314
     0.08036378     -0.08279451      0.30124834
     0.00089147     -0.00041605      0.00189877
     0.00267862     -0.00400175     -0.00041405
    -0.00000005      0.00013106     -0.00013078
     0.00125682     -0.00109382     -0.00184112
    -0.01389144      0.02020487     -0.01372147
    -0.01327868     -0.03341364      0.05397897
     0.35619016      0.12267539     -0.34458680
    -0.20594106      0.27851159     -0.32003636
     0.00761072     -0.00042972      0.01792410
vibration 83
     0.00020098      0.00014640      0.00060045
    -0.00889249      0.00311273     -0.01997728
     0.00026176     -0.00005273      0.00001972
     0.00021330      0.00048763     -0.00029039
    -0.00006912      0.00002243     -0.00005624
    -0.00004960     -0.00000356      0.00001333
     0.00001247     -0.00004738     -0.00006350
    -0.00003051     -0.00011024      0.00010781
     0.00017406      0.00012729     -0.00023558
     0.00012318     -0.00003063     -0.00022038
    -0.00162026      0.00184948     -0.00044658
    -0.01489798     -0.00582492      0.03786496
    -0.01630523     -0.00664702      0.04261489
    -0.00062342     -0.00101271      0.00199799
    -0.00000234      0.00017033     -0.00049714
     0.00001049     -0.00240934     -0.00794745
     0.10800301     -0.03711939      0.23143778
    -0.00244487     -0.00046577      0.00251734
    -0.00009437     -0.00024752     -0.00006562
     0.15851545      0.20227587     -0.21234138
     0.02016007     -0.13195974     -0.24125482
     0.28308525     -0.00805359     -0.18747222
    -0.08594348      0.08641849     -0.32266743
     0.00013793     -0.00025790      0.00047512
     0.00026276     -0.00064558     -0.00009679
     0.00007367     -0.00048729      0.00083506
    -0.00127915      0.00113615      0.00184216
     0.01289463     -0.01881061      0.01277683
    -0.00538662     -0.03044189      0.05803564
     0.34518911      0.11601739     -0.33267804
    -0.21804830      0.29782276     -0.34097866
    -0.06164081     -0.04784825     -0.02489107
vibration 84
     0.00002015      0.00011744      0.00030920
     0.00200777     -0.00069382      0.00374493
     0.00011800      0.00014249     -0.00000382
    -0.00010571     -0.00020790      0.00025237
    -0.00006749      0.00010841      0.00006114
    -0.00007982      0.00001163      0.00004120
    -0.00030842      0.00011041      0.00016930
    -0.00002911      0.00019877      0.00007337
     0.06197661     -0.03814041     -0.04571114
     0.00494008     -0.03239086     -0.01893991
    -0.00004475      0.00008834     -0.00010282
    -0.00025084     -0.00008485      0.00062368
    -0.00053153     -0.00022949      0.00176371
    -0.00020194     -0.00009539      0.00001356
     0.00001381      0.00003533     -0.00000259
    -0.00080070     -0.00240587     -0.00440458
    -0.02114884      0.00746811     -0.04588325
    -0.41028498     -0.07666449      0.46821196
     0.07858332      0.27024358      0.01466767
     0.00258841      0.00338925     -0.00358175
     0.00042999     -0.00216615     -0.00388185
     0.01075212     -0.00004448     -0.00709885
    -0.00363415      0.00367224     -0.01390841
     0.02281075     -0.01329094      0.01219033
    -0.34587092      0.54160833      0.05920156
     0.00126523     -0.00758594     -0.00164717
    -0.13799952      0.12054711      0.21085302
     0.00078421     -0.00107161      0.00076713
    -0.01186985     -0.00413161     -0.00351640
     0.03790169      0.01370416     -0.04070974
     0.01549243     -0.02556061      0.02832511
     0.08913687      0.06124683      0.05452436
vibration 85
     0.00001806     -0.00024377     -0.00024261
    -0.00018149      0.00008981     -0.00014615
    -0.00003657      0.00007956      0.00012028
    -0.00006659      0.00005978     -0.00019025
    -0.00007617      0.00028168      0.00014355
    -0.00000135      0.00013432      0.00005058
     0.00018654     -0.00003051     -0.00003230
     0.00003399     -0.00009600     -0.00000840
    -0.02588504      0.01552361      0.02029602
     0.01132140     -0.07394601     -0.04425341
    -0.00008454      0.00009990     -0.00007836
     0.00018190      0.00001586     -0.00049859
     0.00035203      0.00007578     -0.00084383
     0.00021759      0.00006734      0.00003673
    -0.00002780      0.00001851     -0.00000007
     0.00003327      0.00097026      0.00163690
     0.00143030     -0.00050121      0.00269340
     0.17701527      0.03309241     -0.20162895
     0.18002460      0.61685005      0.03382799
    -0.00184179     -0.00231804      0.00244259
    -0.00035223      0.00199406      0.00364858
    -0.00632514     -0.00001769      0.00411417
     0.00152515     -0.00154567      0.00578164
    -0.01428765      0.00853896     -0.01396266
     0.14375735     -0.22501337     -0.02417252
     0.00422551     -0.02105507      0.00386261
    -0.31791964      0.27830820      0.48586641
     0.00093372     -0.00130968      0.00083557
     0.01071727      0.00352560      0.00361904
    -0.03176637     -0.01147140      0.03445433
    -0.01562161      0.02535069     -0.02804108
    -0.08162906     -0.05602536     -0.04968735
vibration 86
    -0.00079093     -0.00395033     -0.00682750
    -0.02668191      0.00917254     -0.05692386
     0.00036085     -0.00007251     -0.00019429
    -0.00013587      0.00156343     -0.00122781
    -0.00001075     -0.00003966      0.00003917
    -0.00011072     -0.00006869      0.00010603
     0.00028184     -0.00002458      0.00016325
     0.00013890     -0.00052356      0.00046893
     0.01025045     -0.00625876     -0.00710558
    -0.00023536      0.00184653      0.00120222
    -0.00047064      0.00027127     -0.00076658
     0.00462396      0.00121225     -0.01226843
     0.00553792      0.00353309     -0.02197481
     0.00069055      0.00082938     -0.00053677
    -0.00004404     -0.00012873      0.00052091
     0.01247947      0.04555126      0.08555803
     0.30952812     -0.10966570      0.67531614
    -0.06666772     -0.01260560      0.07570644
    -0.00471637     -0.01590043     -0.00092954
    -0.04780978     -0.06145179      0.06450844
    -0.00745155      0.04597264      0.08365704
    -0.11882105      0.00247806      0.07941806
     0.04808679     -0.04870611      0.18418104
     0.00187092     -0.00131169     -0.00143427
    -0.05649999      0.08781038      0.00951303
    -0.00028324      0.00103724     -0.00107085
     0.00794791     -0.00703252     -0.01227598
     0.00668735     -0.00899318      0.00678054
     0.04748335      0.01844780      0.01173311
    -0.16176937     -0.05780513      0.17351481
    -0.04857180      0.08396033     -0.09314995
    -0.36186064     -0.24753257     -0.22006085
vibration 87
    -0.00045898     -0.00282430     -0.00479954
    -0.01991839      0.00682140     -0.04331385
     0.00021256     -0.00011392     -0.00011047
    -0.00013902      0.00100025     -0.00121424
    -0.00000604      0.00001561      0.00003872
    -0.00004029      0.00001733      0.00008057
     0.00000869      0.00001023      0.00029858
     0.00009981     -0.00032557      0.00038495
    -0.00749518      0.00495346      0.00619217
     0.00079488     -0.00477993     -0.00294136
    -0.00048321      0.00030906     -0.00071652
     0.00211669      0.00052241     -0.00596625
     0.00092853      0.00198475     -0.00880723
    -0.00184233     -0.00007362     -0.00077167
     0.00029432     -0.00016290      0.00047181
     0.00878707      0.03250720      0.06038552
     0.23417486     -0.08253975      0.51248048
     0.05025528      0.00914950     -0.05773416
     0.01158317      0.03949447      0.00214527
    -0.02173093     -0.02854885      0.02975139
    -0.00324087      0.02261425      0.04191531
    -0.03069299      0.00227921      0.02161284
     0.02245840     -0.02276763      0.08673428
    -0.00574592      0.00317859     -0.00687155
     0.04476751     -0.07036426     -0.00775233
     0.00033609     -0.00156993      0.00063453
    -0.02107824      0.01850386      0.03217183
     0.00684243     -0.00927190      0.00688394
    -0.06588837     -0.01951336     -0.02651439
     0.17284197      0.06267361     -0.19030432
     0.11285424     -0.17905517      0.19780814
     0.50941100      0.35025733      0.30917554
vibration 88
    -0.00000473     -0.00002951     -0.00003311
    -0.00020128      0.00001475     -0.00034964
    -0.00002330      0.00008577     -0.00014070
     0.00048386      0.00117437     -0.00021892
     0.00005552     -0.00001786      0.00007730
    -0.00001445     -0.00004140      0.00004773
     0.00007813     -0.00018473      0.00027752
    -0.00010470     -0.00049995      0.00017921
    -0.03145475      0.04358939     -0.07789271
     0.00017946      0.00014085     -0.00237257
     0.00050332     -0.00071744      0.00050602
    -0.00001562     -0.00002160     -0.00001379
     0.00001084      0.00002074     -0.00009644
    -0.00001017      0.00002399     -0.00005597
     0.00000592     -0.00002200      0.00002463
     0.00008512      0.00015294      0.00043592
     0.00229636     -0.00078580      0.00492337
    -0.20606370     -0.02073623      0.20906928
     0.00101167      0.00212822     -0.00060712
     0.00012028      0.00009837     -0.00008695
     0.00001713      0.00014311      0.00028587
    -0.00057121     -0.00003045      0.00035178
     0.00027912     -0.00022969      0.00096400
     0.39834691     -0.23202237      0.76499700
     0.17698572     -0.26805492     -0.05190942
     0.00296692     -0.01041660      0.01840015
    -0.00647916      0.00655380      0.01001001
    -0.00583565      0.00813123     -0.00589363
     0.00006378      0.00014418     -0.00023956
    -0.00176653     -0.00065421      0.00163099
     0.00107234     -0.00122331      0.00147479
    -0.00000660      0.00013742     -0.00032409
vibration 89
    -0.00006783     -0.00005424      0.00016429
     0.00009516     -0.00012320      0.00028501
     0.00115707      0.00035746     -0.00044116
     0.00001719     -0.00006408      0.00002705
    -0.00006207     -0.00018730      0.00036398
    -0.00043816     -0.00019090      0.00025191
    -0.00001168      0.00001563      0.00000504
    -0.00000277      0.00002972     -0.00001061
     0.00091420     -0.00108628      0.00144176
     0.00834986      0.04893451     -0.07988575
    -0.00463621      0.00668496     -0.00484196
     0.00041938      0.00041282     -0.00038732
     0.00021416     -0.00005586     -0.00000727
     0.00008512     -0.00012484     -0.00000104
    -0.00002276      0.00003449      0.00005405
    -0.00014589     -0.00021866     -0.00089581
    -0.00131775      0.00048936     -0.00289112
     0.00265130     -0.00005691     -0.00237649
    -0.08236924     -0.29875930     -0.03781779
    -0.00437223     -0.00510277      0.00517051
    -0.00019620     -0.00000465     -0.00025651
    -0.00143878     -0.00001969      0.00097394
    -0.00011281      0.00008296     -0.00055808
    -0.00835647      0.00490963     -0.01625323
    -0.00520956      0.00790879      0.00138321
     0.12082733     -0.42813859      0.77257253
    -0.14317897      0.14657548      0.21090526
     0.05386020     -0.07640036      0.05533169
     0.00006451      0.00003601     -0.00004015
    -0.00068840     -0.00019450      0.00067085
     0.00008490     -0.00007412      0.00011388
    -0.00024284     -0.00014877     -0.00018077
vibration 90
     0.00010850     -0.00014148     -0.00146597
    -0.00068643      0.00097655     -0.00200609
     0.00043382     -0.00054714      0.00096742
     0.00003795      0.00014691      0.00001666
     0.00034211      0.00029994     -0.00025617
    -0.00018020      0.00006376     -0.00013122
    -0.00004400     -0.00001175     -0.00003190
    -0.00001127     -0.00005518      0.00000517
     0.00059673     -0.00062349      0.00101035
     0.00063398      0.00510877     -0.00887179
     0.04192389     -0.06062883      0.04357656
    -0.00334930     -0.00336258      0.00267051
    -0.00155816      0.00056336     -0.00052704
    -0.00066253      0.00125141     -0.00021823
     0.00018330     -0.00035608     -0.00028892
     0.00129145      0.00501701      0.01398532
     0.00914602     -0.00359309      0.02048148
     0.00168685      0.00000374     -0.00161867
    -0.00725227     -0.02793542     -0.00367836
     0.03348062      0.03925590     -0.03951546
     0.00177186      0.00219742      0.00584810
     0.00708006      0.00013994     -0.00495068
     0.00222837     -0.00175398      0.00882699
    -0.00573265      0.00328781     -0.01108807
    -0.00286513      0.00424133      0.00075015
     0.01324357     -0.04730402      0.08523184
    -0.01481551      0.01542981      0.02228488
    -0.49027769      0.69424159     -0.50331708
    -0.00013242     -0.00000305     -0.00004621
     0.00079040      0.00009153     -0.00083452
     0.00048497     -0.00076634      0.00057420
     0.00046695      0.00016459      0.00017661
[INT]
    2.200601
    0.228445
    1.119471
    3.884330
    0.094950
    0.616658
    2.305452
    1.210256
    0.620494
    1.802331
    4.693312
    1.510757
    3.018694
    3.072949
   13.891195
    3.520805
    1.114449
    8.052917
    2.163133
    5.930881
   16.238374
   11.206775
    0.779263
    6.886509
    3.472110
    7.898480
    8.364145
   24.635648
    9.011988
    8.044975
    2.479992
    6.467908
    9.897290
    6.820699
    9.010155
    4.592962
    1.758415
   10.010474
   40.295592
    7.483015
   94.600688
   31.894744
   29.129688
   12.528212
    0.749502
    1.286851
    6.556109
    7.796728
   46.622955
    1.885767
   17.149882
   59.806750
   91.778302
   61.315918
  197.042593
  166.995191
   16.303798
   15.184341
   37.079029
   13.904115
    3.185271
   12.340399
   13.979562
   17.910150
    5.658021
   10.228223
    0.691313
    2.337181
   13.204634
    5.792618
    8.405922
    5.707287
  120.400114
  417.038062
   10.559128
   21.479004
   45.029348
   25.460156
   21.280187
   26.681774
    0.769150
    3.030495
   37.953425
   24.558371
    7.049490
   14.231135
   20.928215
   12.669590
   14.581866
   10.831274

======= END OF MOLDEN-FORMATTED INPUT FILE =======


        *************************************************************
        *                                                           *
        *  Thank you very much for using Q-Chem.  Have a nice day.  *
        *                                                           *
        *************************************************************


