mFile = /opt/software/qchem/qchem-5.0.1//bin/mpi/machines
Process 0 of 1 is on vega02.cac.cornell.edu - thread support 0
initial socket setup ...start
initial socket setup ...done 
now start server 0 ... 
vega02.cac.cornell.edu 10.84.3
Q-Chem Developer Version! Running on 10.84.3.*
                  Welcome to Q-Chem
     A Quantum Leap Into The Future Of Chemistry


 Q-Chem 5.0, Q-Chem, Inc., Pleasanton, CA (2017)

 Yihan Shao,  Zhengting Gan,  E. Epifanovsky,  A. T. B. Gilbert,  M. Wormit,  
 J. Kussmann,  A. W. Lange,  A. Behn,  Jia Deng,  Xintian Feng,  D. Ghosh,  
 M. Goldey,  P. R. Horn,  L. D. Jacobson,  I. Kaliman,  T. Kus,  A. Landau,  
 Jie Liu,  E. I. Proynov,  R. M. Richard,  R. P. Steele,  E. J. Sundstrom,  
 H. L. Woodcock III,  P. M. Zimmerman,  D. Zuev,  B. Albrecht,  E. Alguire,  
 S. A. Baeppler,  Z. Benda,  Y. A. Bernard,  E. J. Berquist,  K. B. Bravaya,  
 D. Casanova,  Chun-Min Chang,  Yunqing Chen,  A. Chien,  K. D. Closser,  
 M. P. Coons,  S. Dasgupta,  M. Diedenhofen,  Hainam Do,  R. G. Edgar,  
 Po-Tung Fang,  S. Fatehi,  Qingguo Feng,  Qinghui Ge,  A. Ghysels,  
 J. Gomes,  J. Gonthier,  A. Gunina,  M. W. D. Hanson-Heine,  
 P. H. P. Harbach,  A. W. Hauser,  J. E. Herr,  E. G. Hohenstein,  
 Z. C. Holden,  Kerwin Hui,  T.-C. Jagau,  Hyunjun Ji,  B. Kaduk,  
 K. Khistyaev,  Jaehoon Kim,  P. Klunzinger,  K. Koh,  D. Kosenkov,  
 T. Kowalczyk,  C. M. Krauter,  A. Kunitsa,  Ka Un Lao,  A. Laurent,  
 K. V. Lawler,  Joonho Lee,  D. Lefrancois,  S. Lehtola,  D. S. Levine,  
 Yi-Pei Li,  You-Sheng Lin,  Fenglai Liu,  E. Livshits,  A. Luenser,  
 P. Manohar,  E. Mansoor,  S. F. Manzer,  Shan-Ping Mao,  Yuezhi Mao,  
 N. Mardirossian,  A. V. Marenich,  L. A. Martinez-Martinez,  S. A. Maurer,  
 N. J. Mayhall,  S. C. McKenzie,  J.-M. Mewes,  A. F. Morrison,  K. Nanda,  
 T. S. Nguyen-Beck,  R. Olivares-Amaya,  J. A. Parkhill,  T. M. Perrine,  
 F. Plasser,  S. Prager,  A. Prociuk,  D. R. Rehn,  F. Rob,  M. Schneider,  
 N. Sergueev,  S. M. Sharada,  S. Sharma,  D. W. Small,  T. Stauch,  
 T. Stein,  Yu-Chuan Su,  A. J. W. Thom,  T. Tsuchimochi,  L. Vogt,  
 O. Vydrov,  M. A. Watson,  J. Wenzel,  M. de Wergifosse,  T. A. Wesolowski,  
 A. White,  J. Witte,  A. Yamada,  Jun Yang,  K. Yao,  S. Yeganeh,  
 S. R. Yost,  Zhi-Qiang You,  A. Zech,  Igor Ying Zhang,  Xing Zhang,  
 Yan Zhao,  Ying Zhu,  B. R. Brooks,  G. K. L. Chan,  C. J. Cramer,  
 M. S. Gordon,  W. J. Hehre,  A. Klamt,  M. W. Schmidt,  C. D. Sherrill,  
 D. G. Truhlar,  A. Aspuru-Guzik,  R. Baer,  A. T. Bell,  N. A. Besley,  
 Jeng-Da Chai,  A. Dreuw,  B. D. Dunietz,  T. R. Furlani,  Chao-Ping Hsu,  
 Yousung Jung,  Jing Kong,  D. S. Lambrecht,  WanZhen Liang,  C. Ochsenfeld,  
 V. A. Rassolov,  L. V. Slipchenko,  J. E. Subotnik,  T. Van Voorhis,  
 J. M. Herbert,  A. I. Krylov,  P. M. W. Gill,  M. Head-Gordon

 Contributors to earlier versions of Q-Chem not listed above: 
 R. D. Adamson,  B. Austin,  J. Baker,  G. J. O. Beran,  K. Brandhorst,  
 S. T. Brown,  E. F. C. Byrd,  A. K. Chakraborty,  C.-L. Cheng,  
 Siu Hung Chien,  D. M. Chipman,  D. L. Crittenden,  H. Dachsel,  
 R. A. DiStasio Jr.,  R. J. Doerksen,  A. D. Dutoi,  L. Fusti-Molnar,  
 W. A. Goddard III,  A. Golubeva-Zadorozhnaya,  S. R. Gwaltney,  G. Hawkins,  
 A. Heyden,  S. Hirata,  G. Kedziora,  F. J. Keil,  C. Kelley,  Jihan Kim,  
 R. A. King,  R. Z. Khaliullin,  P. P. Korambath,  W. Kurlancheek,  
 A. M. Lee,  M. S. Lee,  S. V. Levchenko,  Ching Yeh Lin,  D. Liotard,  
 R. C. Lochan,  I. Lotan,  P. E. Maslen,  N. Nair,  D. P. O'Neill,  
 D. Neuhauser,  E. Neuscamman,  C. M. Oana,  R. Olson,  B. Peters,  
 R. Peverati,  P. A. Pieniazek,  Y. M. Rhee,  J. Ritchie,  M. A. Rohrdanz,  
 E. Rosta,  N. J. Russ,  H. F. Schaefer III,  N. E. Schultz,  N. Shenvi,  
 A. C. Simmonett,  A. Sodt,  D. Stuck,  K. S. Thanthiriwatte,  V. Vanovschi,  
 Tao Wang,  A. Warshel,  C. F. Williams,  Q. Wu,  X. Xu,  W. Zhang

 Please cite Q-Chem as follows:
 Y. Shao et al., Mol. Phys. 113, 184-215 (2015)
 DOI: 10.1080/00268976.2014.952696

 Q-Chem 5.0.1 for Intel X86 EM64T Linux

 Parts of Q-Chem use Armadillo 5.200.1 (Boston Tea Smuggler).
 http://arma.sourceforge.net/

 Q-Chem begins on Tue Apr 17 23:30:20 2018  

Host: vega02.cac.cornell.edu
0

     Scratch files written to /scratch/jj585/vdw/0110_distance_3.500_01.save//
 Parallel job on  1  processors

Checking the input file for inconsistencies... 	...done.

--------------------------------------------------------------
User input:
--------------------------------------------------------------
$molecule
0  1
C        +0.21484000        +2.04164000        +3.92165000
C        +0.66756000        +0.62005000        +4.35454000
C        +1.32345000        +2.43177000        +2.90955000
C        +2.62334000        +2.74367000        +3.69481000
C        +3.07718000        +1.32361000        +4.13104000
C        +1.96258000        +0.43450000        +3.52209000
O        +1.63918000        +1.15438000        +2.31003000
H        +3.35816000        +3.20916000        +3.03424000
H        +2.44684000        +3.42303000        +4.53180000
H        +4.04281000        +1.06395000        +3.69233000
H        +3.15551000        +1.20372000        +5.21407000
C        +0.93117000        +3.43781000        +1.85209000
C        +2.35165000        -0.99190000        +3.20843000
H        +3.22630000        -1.01716000        +2.55374000
H        +2.59537000        -1.52898000        +4.12954000
H        +1.53104000        -1.51487000        +2.71130000
H        +1.74798000        +3.58653000        +1.14177000
H        +0.69639000        +4.40123000        +2.31381000
H        +0.05051000        +3.09545000        +1.30342000
H        +0.84941000        +0.52853000        +5.42779000
H        -0.06922000        -0.13552000        +4.07261000
H        -0.75503000        +2.01328000        +3.42022000
H        +0.14586000        +2.74934000        +4.75056000
@C        +0.20186000        +1.01419000        +0.57588000
@C        +0.65458000        -0.40740000        +1.00877000
@C        +1.31047000        +1.40432000        -0.43622000
@C        +2.61036000        +1.71622000        +0.34904000
@C        +3.06420000        +0.29616000        +0.78527000
@C        +1.94960000        -0.59295000        +0.17632000
@O        +1.62620000        +0.12693000        -1.03574000
@H        +3.34518000        +2.18171000        -0.31153000
@H        +2.43386000        +2.39558000        +1.18603000
@H        +4.02983000        +0.03650000        +0.34656000
@H        +3.14253000        +0.17627000        +1.86830000
@C        +0.91819000        +2.41036000        -1.49368000
@C        +2.33867000        -2.01935000        -0.13734000
@H        +3.21332000        -2.04461000        -0.79203000
@H        +2.58239000        -2.55643000        +0.78377000
@H        +1.51806000        -2.54232000        -0.63447000
@H        +1.73500000        +2.55908000        -2.20400000
@H        +0.68341000        +3.37378000        -1.03196000
@H        +0.03753000        +2.06800000        -2.04235000
@H        +0.83643000        -0.49892000        +2.08202000
@H        -0.08220000        -1.16297000        +0.72684000
@H        -0.76801000        +0.98583000        +0.07445000
@H        +0.13288000        +1.72189000        +1.40479000
$end

$rem
JOBTYPE                   SP
METHOD                    B3LYP
DFT_D                     d3_op
BASIS                     6-311++G(d,p)
SYMMETRY                  False
THRESH                    12
SCF_CONVERGENCE           8
MAX_SUB_FILE_NUM          128
MEM_STATIC                400
MEM_TOTAL                 4000
$end
--------------------------------------------------------------
 Adding empirical dispersion correction 
 ----------------------------------------------------------------
 Doing -D3(op) with
 s6 =   1.00000
 s8 =   0.78311
 a1 =   0.30000
 a2 =   4.25000
 n  =  10.00000
 -D3 energy without 3body term =     -0.0215647334 hartrees
 ----------------------------------------------------------------
             Standard Nuclear Orientation (Angstroms)
    I     Atom           X                Y                Z
 ----------------------------------------------------------------
    1      C       0.2148400000     2.0416400000     3.9216500000
    2      C       0.6675600000     0.6200500000     4.3545400000
    3      C       1.3234500000     2.4317700000     2.9095500000
    4      C       2.6233400000     2.7436700000     3.6948100000
    5      C       3.0771800000     1.3236100000     4.1310400000
    6      C       1.9625800000     0.4345000000     3.5220900000
    7      O       1.6391800000     1.1543800000     2.3100300000
    8      H       3.3581600000     3.2091600000     3.0342400000
    9      H       2.4468400000     3.4230300000     4.5318000000
   10      H       4.0428100000     1.0639500000     3.6923300000
   11      H       3.1555100000     1.2037200000     5.2140700000
   12      C       0.9311700000     3.4378100000     1.8520900000
   13      C       2.3516500000    -0.9919000000     3.2084300000
   14      H       3.2263000000    -1.0171600000     2.5537400000
   15      H       2.5953700000    -1.5289800000     4.1295400000
   16      H       1.5310400000    -1.5148700000     2.7113000000
   17      H       1.7479800000     3.5865300000     1.1417700000
   18      H       0.6963900000     4.4012300000     2.3138100000
   19      H       0.0505100000     3.0954500000     1.3034200000
   20      H       0.8494100000     0.5285300000     5.4277900000
   21      H      -0.0692200000    -0.1355200000     4.0726100000
   22      H      -0.7550300000     2.0132800000     3.4202200000
   23      H       0.1458600000     2.7493400000     4.7505600000
   24      GH      0.2018600000     1.0141900000     0.5758800000
   25      GH      0.6545800000    -0.4074000000     1.0087700000
   26      GH      1.3104700000     1.4043200000    -0.4362200000
   27      GH      2.6103600000     1.7162200000     0.3490400000
   28      GH      3.0642000000     0.2961600000     0.7852700000
   29      GH      1.9496000000    -0.5929500000     0.1763200000
   30      GH      1.6262000000     0.1269300000    -1.0357400000
   31      GH      3.3451800000     2.1817100000    -0.3115300000
   32      GH      2.4338600000     2.3955800000     1.1860300000
   33      GH      4.0298300000     0.0365000000     0.3465600000
   34      GH      3.1425300000     0.1762700000     1.8683000000
   35      GH      0.9181900000     2.4103600000    -1.4936800000
   36      GH      2.3386700000    -2.0193500000    -0.1373400000
   37      GH      3.2133200000    -2.0446100000    -0.7920300000
   38      GH      2.5823900000    -2.5564300000     0.7837700000
   39      GH      1.5180600000    -2.5423200000    -0.6344700000
   40      GH      1.7350000000     2.5590800000    -2.2040000000
   41      GH      0.6834100000     3.3737800000    -1.0319600000
   42      GH      0.0375300000     2.0680000000    -2.0423500000
   43      GH      0.8364300000    -0.4989200000     2.0820200000
   44      GH     -0.0822000000    -1.1629700000     0.7268400000
   45      GH     -0.7680100000     0.9858300000     0.0744500000
   46      GH      0.1328800000     1.7218900000     1.4047900000
 ----------------------------------------------------------------
 Nuclear Repulsion Energy =   505.5140981702 hartrees
 There are       35 alpha and       35 beta electrons
 Requested basis set is 6-311++G(d,p)
 There are 248 shells and 592 basis functions

 Total QAlloc Memory Limit   4000 MB
 Mega-Array Size       392 MB
 MEM_STATIC part       400 MB
 A cutoff of  1.0D-12 yielded  26920 shell pairs
 There are    154769 function pairs (    164220 Cartesian)
 
 -------------------------------------------------------
 OpenMP Integral Computing Module                       
 Release: version 1.0, May 2013, Q-Chem Inc. Pittsburgh 
 -------------------------------------------------------
 Integral Job Info:
 Integral job number is                      11
 Integral operator is                         1
 short-range coefficients                     0
 long-range coefficients              100000000
 Omega coefficients                           0
 if combine SR and LR in K                    0
 Integral screening is                        0
 Integral computing path is                   2
 max size of driver memory is            800000
 size of driver memory is                593474
 size of scratch memory is              2361544
 max col of scratch BK array               1296
 max len of scratch array in speh3          155
 max len of scratch index in speh4           18
 max int batch size is                      520
 min int batch size is                       52
 fixed nKL is                                52
 max L of basis functions is                  2
 order of int derivative is                   0
 number of shells is                        248
 number of basis is                         610
 number of cartesian basis is               610
 number of contracted shell pairs         26920
 number of primitive shell pairs          56416
 maxK2 (contraction) of shell pair           36
 max number of K2 of shell pair               1
 max number of CS2 of shell pair           4762
 max number of PS2 of shell pair           8364
 mem total for path MDJ                  211434
 -------------------------------------------------------
 Smallest overlap matrix eigenvalue = 1.71E-07
 Linear dependence detected in AO basis
 Number of orthogonalized atomic orbitals = 589
 Maximum deviation from orthogonality = 2.320E-10

 Scale SEOQF with 1.000000e-01/1.000000e-01/1.000000e-02

 Standard Electronic Orientation quadrupole field applied
 Nucleus-field energy     =     0.0000000213 hartrees
 Guess from superposition of atomic densities
 Warning:  Energy on first SCF cycle will be non-variational

 Q-Chem warning in module /opt/software/qchem/qchem-5.0.1/libgen/Atomic_PolEc.C, line 58:

 No atomic polarizability available.


 Q-Chem warning in module /opt/software/qchem/qchem-5.0.1/libgen/Atomic_PolEc.C, line 73:

 No atomic polarizability available.


 Q-Chem warning in module /opt/software/qchem/qchem-5.0.1/libgen/Atomic_PolEc.C, line 58:

 No atomic polarizability available.


 Q-Chem warning in module /opt/software/qchem/qchem-5.0.1/libgen/Atomic_PolEc.C, line 73:

 No atomic polarizability available.


 Q-Chem warning in module /opt/software/qchem/qchem-5.0.1/libgen/Atomic_PolEc.C, line 58:

 No atomic polarizability available.


 Q-Chem warning in module /opt/software/qchem/qchem-5.0.1/libgen/Atomic_PolEc.C, line 73:

 No atomic polarizability available.


 Q-Chem warning in module /opt/software/qchem/qchem-5.0.1/libgen/Atomic_PolEc.C, line 58:

 No atomic polarizability available.


 Q-Chem warning in module /opt/software/qchem/qchem-5.0.1/libgen/Atomic_PolEc.C, line 73:

 No atomic polarizability available.


 Q-Chem warning in module /opt/software/qchem/qchem-5.0.1/libgen/Atomic_PolEc.C, line 58:

 No atomic polarizability available.


 Q-Chem warning in module /opt/software/qchem/qchem-5.0.1/libgen/Atomic_PolEc.C, line 73:

 No atomic polarizability available.


 Q-Chem warning in module /opt/software/qchem/qchem-5.0.1/libgen/Atomic_PolEc.C, line 58:

 No atomic polarizability available.


 Q-Chem warning in module /opt/software/qchem/qchem-5.0.1/libgen/Atomic_PolEc.C, line 73:

 No atomic polarizability available.


 Q-Chem warning in module /opt/software/qchem/qchem-5.0.1/libgen/Atomic_PolEc.C, line 58:

 No atomic polarizability available.


 Q-Chem warning in module /opt/software/qchem/qchem-5.0.1/libgen/Atomic_PolEc.C, line 73:

 No atomic polarizability available.


 Q-Chem warning in module /opt/software/qchem/qchem-5.0.1/libgen/Atomic_PolEc.C, line 58:

 No atomic polarizability available.


 Q-Chem warning in module /opt/software/qchem/qchem-5.0.1/libgen/Atomic_PolEc.C, line 73:

 No atomic polarizability available.


 Q-Chem warning in module /opt/software/qchem/qchem-5.0.1/libgen/Atomic_PolEc.C, line 58:

 No atomic polarizability available.


 Q-Chem warning in module /opt/software/qchem/qchem-5.0.1/libgen/Atomic_PolEc.C, line 73:

 No atomic polarizability available.


 Q-Chem warning in module /opt/software/qchem/qchem-5.0.1/libgen/Atomic_PolEc.C, line 58:

 No atomic polarizability available.


 Q-Chem warning in module /opt/software/qchem/qchem-5.0.1/libgen/Atomic_PolEc.C, line 73:

 No atomic polarizability available.


 Q-Chem warning in module /opt/software/qchem/qchem-5.0.1/libgen/Atomic_PolEc.C, line 58:

 No atomic polarizability available.


 Q-Chem warning in module /opt/software/qchem/qchem-5.0.1/libgen/Atomic_PolEc.C, line 73:

 No atomic polarizability available.


 Q-Chem warning in module /opt/software/qchem/qchem-5.0.1/libgen/Atomic_PolEc.C, line 58:

 No atomic polarizability available.


 Q-Chem warning in module /opt/software/qchem/qchem-5.0.1/libgen/Atomic_PolEc.C, line 73:

 No atomic polarizability available.


 Q-Chem warning in module /opt/software/qchem/qchem-5.0.1/libgen/Atomic_PolEc.C, line 58:

 No atomic polarizability available.


 Q-Chem warning in module /opt/software/qchem/qchem-5.0.1/libgen/Atomic_PolEc.C, line 73:

 No atomic polarizability available.


 Q-Chem warning in module /opt/software/qchem/qchem-5.0.1/libgen/Atomic_PolEc.C, line 58:

 No atomic polarizability available.


 Q-Chem warning in module /opt/software/qchem/qchem-5.0.1/libgen/Atomic_PolEc.C, line 73:

 No atomic polarizability available.


 Q-Chem warning in module /opt/software/qchem/qchem-5.0.1/libgen/Atomic_PolEc.C, line 58:

 No atomic polarizability available.


 Q-Chem warning in module /opt/software/qchem/qchem-5.0.1/libgen/Atomic_PolEc.C, line 73:

 No atomic polarizability available.


 Q-Chem warning in module /opt/software/qchem/qchem-5.0.1/libgen/Atomic_PolEc.C, line 58:

 No atomic polarizability available.


 Q-Chem warning in module /opt/software/qchem/qchem-5.0.1/libgen/Atomic_PolEc.C, line 73:

 No atomic polarizability available.


 Q-Chem warning in module /opt/software/qchem/qchem-5.0.1/libgen/Atomic_PolEc.C, line 58:

 No atomic polarizability available.


 Q-Chem warning in module /opt/software/qchem/qchem-5.0.1/libgen/Atomic_PolEc.C, line 73:

 No atomic polarizability available.


 Q-Chem warning in module /opt/software/qchem/qchem-5.0.1/libgen/Atomic_PolEc.C, line 58:

 No atomic polarizability available.


 Q-Chem warning in module /opt/software/qchem/qchem-5.0.1/libgen/Atomic_PolEc.C, line 73:

 No atomic polarizability available.


 Q-Chem warning in module /opt/software/qchem/qchem-5.0.1/libgen/Atomic_PolEc.C, line 58:

 No atomic polarizability available.


 Q-Chem warning in module /opt/software/qchem/qchem-5.0.1/libgen/Atomic_PolEc.C, line 73:

 No atomic polarizability available.


 Q-Chem warning in module /opt/software/qchem/qchem-5.0.1/libgen/Atomic_PolEc.C, line 58:

 No atomic polarizability available.


 Q-Chem warning in module /opt/software/qchem/qchem-5.0.1/libgen/Atomic_PolEc.C, line 73:

 No atomic polarizability available.


 Q-Chem warning in module /opt/software/qchem/qchem-5.0.1/libgen/Atomic_PolEc.C, line 58:

 No atomic polarizability available.


 Q-Chem warning in module /opt/software/qchem/qchem-5.0.1/libgen/Atomic_PolEc.C, line 73:

 No atomic polarizability available.


 Q-Chem warning in module /opt/software/qchem/qchem-5.0.1/libgen/Atomic_PolEc.C, line 58:

 No atomic polarizability available.


 Q-Chem warning in module /opt/software/qchem/qchem-5.0.1/libgen/Atomic_PolEc.C, line 73:

 No atomic polarizability available.


 Q-Chem warning in module /opt/software/qchem/qchem-5.0.1/libgen/Atomic_PolEc.C, line 58:

 No atomic polarizability available.


 Q-Chem warning in module /opt/software/qchem/qchem-5.0.1/libgen/Atomic_PolEc.C, line 73:

 No atomic polarizability available.

 A restricted hybrid HF-DFT SCF calculation will be
 performed using Pulay DIIS extrapolation
 Exchange:     0.2000 Hartree-Fock + 0.0800 Slater + 0.7200 B88
 Correlation:  0.1900 VWN1RPA + 0.8100 LYP
 Using SG-1 standard quadrature grid
 Dispersion:   Grimme D3
 SCF converges when DIIS error is below 1.0E-08
 using 4 threads for integral computing
 -------------------------------------------------------
 OpenMP Integral computing Module                
 Release: version 1.0, May 2013, Q-Chem Inc. Pittsburgh 
 -------------------------------------------------------
 -------------------------------------------------------
 OpenMP BLAS3 based DFT computing Module                
 Release: version 1.0, May 2013, Q-Chem Inc. Pittsburgh 
 -------------------------------------------------------
 ---------------------------------------
  Cycle       Energy         DIIS Error
 ---------------------------------------
    1    -390.4185355054      1.78E-02
    2    -388.4214422040      2.22E-03
    3    -388.3282598183      2.68E-03
    4    -388.6338753317      4.34E-04
    5    -388.6395579804      1.47E-04
    6    -388.6401998872      4.35E-05
    7    -388.6402559009      1.46E-05
    8    -388.6402638119      1.25E-06
    9    -388.6402638755      4.75E-07
   10    -388.6402638838      1.60E-07
   11    -388.6402638849      1.47E-08
   12    -388.6402638849      3.20E-09 Convergence criterion met
 ---------------------------------------
 SCF time:  CPU 1560.58 s  wall 393.39 s
 SCF   energy in the final basis set = -388.64026388
 Total energy in the final basis set = -388.64026388
 
 --------------------------------------------------------------
 
                    Orbital Energies (a.u.)
 --------------------------------------------------------------
 
 Alpha MOs
 -- Occupied --
-19.113 -10.223 -10.223 -10.166 -10.166 -10.166 -10.166 -10.160
-10.160  -1.043  -0.799  -0.788  -0.749  -0.716  -0.650  -0.613
 -0.557  -0.553  -0.484  -0.475  -0.466  -0.440  -0.417  -0.408
 -0.404  -0.402  -0.383  -0.359  -0.344  -0.343  -0.341  -0.335
 -0.317  -0.298  -0.260
 -- Virtual --
 -0.011   0.001   0.008   0.010   0.022   0.027   0.030   0.031
  0.031   0.047   0.052   0.054   0.056   0.057   0.060   0.066
  0.074   0.076   0.076   0.082   0.083   0.088   0.096   0.098
  0.099   0.099   0.101   0.108   0.108   0.110   0.111   0.123
  0.123   0.123   0.126   0.129   0.130   0.132   0.132   0.142
  0.144   0.145   0.153   0.153   0.161   0.161   0.164   0.164
  0.167   0.167   0.171   0.174   0.174   0.175   0.176   0.178
  0.178   0.187   0.195   0.199   0.200   0.201   0.204   0.206
  0.207   0.207   0.210   0.213   0.214   0.221   0.226   0.230
  0.233   0.239   0.239   0.241   0.242   0.247   0.248   0.248
  0.250   0.261   0.265   0.269   0.274   0.277   0.279   0.282
  0.285   0.290   0.291   0.294   0.302   0.302   0.312   0.312
  0.321   0.321   0.325   0.331   0.335   0.341   0.346   0.357
  0.358   0.364   0.365   0.369   0.374   0.376   0.377   0.378
  0.379   0.387   0.399   0.399   0.401   0.402   0.410   0.416
  0.419   0.419   0.441   0.443   0.446   0.450   0.453   0.463
  0.472   0.474   0.479   0.485   0.485   0.498   0.499   0.519
  0.530   0.530   0.539   0.547   0.549   0.564   0.565   0.566
  0.571   0.578   0.592   0.603   0.609   0.620   0.622   0.629
  0.633   0.641   0.642   0.654   0.663   0.671   0.673   0.677
  0.685   0.694   0.695   0.698   0.707   0.713   0.713   0.724
  0.725   0.728   0.738   0.742   0.743   0.752   0.755   0.755
  0.765   0.766   0.773   0.774   0.782   0.789   0.789   0.795
  0.795   0.802   0.806   0.818   0.822   0.826   0.839   0.841
  0.849   0.877   0.893   0.900   0.901   0.922   0.926   0.931
  0.945   0.946   0.976   0.994   1.004   1.006   1.017   1.024
  1.041   1.041   1.046   1.056   1.071   1.108   1.109   1.111
  1.145   1.153   1.159   1.175   1.187   1.188   1.205   1.207
  1.235   1.239   1.285   1.287   1.306   1.309   1.311   1.334
  1.353   1.354   1.375   1.390   1.397   1.413   1.419   1.438
  1.447   1.466   1.490   1.494   1.500   1.521   1.523   1.524
  1.543   1.549   1.555   1.564   1.565   1.591   1.598   1.599
  1.617   1.623   1.634   1.645   1.650   1.663   1.678   1.687
  1.694   1.702   1.708   1.717   1.731   1.733   1.736   1.741
  1.746   1.751   1.754   1.757   1.764   1.775   1.799   1.801
  1.811   1.821   1.828   1.856   1.859   1.865   1.872   1.874
  1.876   1.878   1.880   1.902   1.903   1.915   1.922   1.934
  1.935   1.943   1.954   1.958   1.986   1.990   1.997   1.998
  2.001   2.016   2.023   2.024   2.027   2.028   2.035   2.038
  2.065   2.067   2.078   2.089   2.106   2.106   2.128   2.136
  2.141   2.147   2.148   2.167   2.168   2.176   2.183   2.189
  2.214   2.230   2.238   2.242   2.249   2.269   2.289   2.306
  2.322   2.326   2.329   2.339   2.343   2.349   2.353   2.382
  2.389   2.392   2.409   2.411   2.413   2.444   2.452   2.465
  2.467   2.493   2.496   2.506   2.510   2.513   2.524   2.539
  2.539   2.549   2.557   2.569   2.573   2.575   2.577   2.590
  2.623   2.632   2.635   2.637   2.645   2.646   2.655   2.693
  2.695   2.696   2.705   2.727   2.746   2.758   2.769   2.775
  2.781   2.800   2.805   2.807   2.847   2.852   2.853   2.869
  2.872   2.876   2.891   2.894   2.906   2.923   2.940   2.946
  2.958   2.959   2.972   2.995   3.000   3.007   3.021   3.027
  3.033   3.089   3.097   3.108   3.114   3.125   3.133   3.148
  3.153   3.183   3.193   3.203   3.229   3.242   3.246   3.265
  3.274   3.285   3.317   3.317   3.347   3.358   3.365   3.372
  3.382   3.402   3.430   3.438   3.483   3.508   3.517   3.523
  3.540   3.575   3.587   3.591   3.592   3.637   3.650   3.657
  3.675   3.679   3.686   3.742   3.764   3.767   3.772   3.817
  3.855   3.882   3.916   3.917   3.925   3.948   3.954   3.956
  3.970   4.010   4.028   4.085   4.147   4.159   4.163   4.197
  4.228   4.270   4.347   4.457   4.467   4.557   4.642   4.708
  4.713   4.795   4.815   4.867   4.869   4.890   4.895   4.906
  4.931   4.952   5.048   5.061   5.085   5.191   5.272   5.369
  5.465   5.734   5.840   5.845   7.398   7.533   7.541   7.582
  7.665   7.742   7.752   7.759   7.816   7.834   7.843   7.849
  7.886   7.948   8.018   8.111   8.158   8.230   8.352   8.435
  8.470   8.490   8.700   8.866   9.949   9.995  10.015  10.046
 10.046  10.094  10.186  10.221  13.650  13.976  14.119  18.669
 23.842  23.891  23.990  24.009  24.018  24.024  24.073  24.228
 50.090  69.889  69.905  69.917  69.955  69.967  69.997  70.080
 70.129 139.771
 --------------------------------------------------------------
 
          Ground-State Mulliken Net Atomic Charges

     Atom                 Charge (a.u.)
  ----------------------------------------
      1 C                    -0.369466
      2 C                    -0.379983
      3 C                     0.325776
      4 C                    -0.379607
      5 C                    -0.372423
      6 C                     0.331854
      7 O                    -0.091839
      8 H                     0.162191
      9 H                     0.151505
     10 H                     0.162007
     11 H                     0.151357
     12 C                    -0.640319
     13 C                    -0.647099
     14 H                     0.196370
     15 H                     0.189438
     16 H                     0.195991
     17 H                     0.196378
     18 H                     0.189693
     19 H                     0.195892
     20 H                     0.151391
     21 H                     0.162568
     22 H                     0.161947
     23 H                     0.151476
     24 GH                    0.093246
     25 GH                    0.090395
     26 GH                   -0.148938
     27 GH                    0.089508
     28 GH                    0.096131
     29 GH                   -0.149895
     30 GH                   -0.013996
     31 GH                    0.012335
     32 GH                   -0.091142
     33 GH                    0.013060
     34 GH                   -0.095682
     35 GH                    0.036486
     36 GH                    0.037180
     37 GH                   -0.000028
     38 GH                   -0.000891
     39 GH                   -0.000002
     40 GH                   -0.000018
     41 GH                   -0.000967
     42 GH                   -0.000005
     43 GH                   -0.091870
     44 GH                    0.012342
     45 GH                    0.012707
     46 GH                   -0.095054
  ----------------------------------------
  Sum of atomic charges =     0.000000

 -----------------------------------------------------------------
                    Cartesian Multipole Moments
 -----------------------------------------------------------------
    Charge (ESU x 10^10)
                 0.0000
    Dipole Moment (Debye)
         X       0.0081      Y       0.4461      Z       1.4482
       Tot       1.5154
    Quadrupole Moments (Debye-Ang)
        XX     -56.6286     XY       0.1954     YY     -54.0301
        XZ       2.5635     YZ       2.3693     ZZ     -49.3733
    Octopole Moments (Debye-Ang^2)
       XXX    -279.3151    XXY     -85.0007    XYY     -90.8415
       YYY    -242.2789    XXZ    -188.1683    XYZ       1.6945
       YYZ    -181.4162    XZZ     -79.5276    YZZ     -73.8226
       ZZZ    -538.3889
    Hexadecapole Moments (Debye-Ang^3)
      XXXX   -1344.9529   XXXY    -355.9178   XXYY    -478.3000
      XYYY    -341.7442   YYYY   -1486.7136   XXXZ    -961.2880
      XXYZ    -264.8881   XYYZ    -313.8733   YYYZ    -740.5834
      XXZZ    -914.6861   XYZZ    -110.0139   YYZZ    -915.3532
      XZZZ    -891.6893   YZZZ    -728.5456   ZZZZ   -4024.6679
 -----------------------------------------------------------------
Archival summary:
1\1\vega02.cac.cornell.edu\SP\ProcedureUnspecified\BasisUnspecified\1814h23\jj585\TueApr1723:36:542018TueApr1723:36:542018\0\\#,ProcedureUnspecified,BasisUnspecified,\\0,1\O\C,1,1.44597\C,1,1.44634,2,98.1095\C,2,1.51136,1,110.77,3,-179.998,0\H,4,1.09262,2,110.608,1,60.2832,0\H,4,1.09263,2,110.575,1,-60.0402,0\H,4,1.09384,2,110.283,1,-179.869,0\Gh,6,1.37505,4,103.537,2,27.0308,0\Gh,8,1.09235,6,126.483,4,120.359,0\Gh,9,1.09224,8,107.882,6,72.0689,0\Gh,5,1.37976,4,103.116,2,-27.3854,0\Gh,11,1.0921,5,126.378,4,-120.561,0\Gh,12,1.09219,11,108.011,5,-71.3947,0\C,3,1.51141,1,110.694,2,-179.879,0\H,14,1.09272,3,110.657,1,-60.1545,0\H,14,1.09283,3,110.62,1,60.1323,0\H,14,1.09375,3,110.244,1,179.953,0\Gh,16,1.37881,14,103.249,3,-27.2319,0\Gh,18,1.09246,16,126.312,14,-120.515,0\Gh,19,1.09194,18,107.987,16,-71.5396,0\Gh,15,1.38226,14,103.458,3,27.027,0\Gh,21,1.09239,15,126.335,14,120.193,0\Gh,22,1.09234,21,107.933,15,72.1927,0\Gh,9,1.55036,8,112.194,6,-49.3592,0\Gh,24,1.44597,9,101.809,8,-155.556,0\Gh,25,1.44634,24,98.1095,9,56.0867,0\Gh,24,1.51136,9,115.982,8,84.118,0\Gh,27,1.09262,24,110.608,9,175.644,0\Gh,27,1.09263,24,110.575,9,55.3209,0\Gh,27,1.09384,24,110.283,9,-64.5081,0\Gh,26,1.51141,25,110.694,24,-179.879,0\Gh,31,1.09272,26,110.657,25,-60.1545,0\Gh,31,1.09283,26,110.62,25,60.1323,0\Gh,31,1.09375,26,110.244,25,179.953,0\C,2,1.55036,1,101.809,3,56.0867,0\H,35,1.09224,2,110.089,1,84.2905,0\H,35,1.09235,2,112.194,1,-155.556,0\C,3,1.55038,1,101.798,2,-56.0407,0\H,38,1.09194,3,109.973,1,-84.3583,0\H,38,1.09246,3,112.21,1,155.424,0\C,3,1.55064,1,101.747,2,56.1879,0\H,41,1.09234,3,109.998,1,84.2326,0\H,41,1.09239,3,112.234,1,-155.586,0\C,2,1.55099,1,101.795,3,-56.0607,0\H,44,1.0921,2,112.175,1,155.338,0\H,44,1.09219,2,109.978,1,-84.4337,0\\\@

 Total job time:  394.83s(wall), 1563.89s(cpu) 
 Tue Apr 17 23:36:54 2018

        *************************************************************
        *                                                           *
        *  Thank you very much for using Q-Chem.  Have a nice day.  *
        *                                                           *
        *************************************************************


0 sent ACK to 0 
now end server 0 ... 
