mFile = /opt/software/qchem/qchem-5.0.1//bin/mpi/machines
Process 0 of 1 is on vega02.cac.cornell.edu - thread support 0
initial socket setup ...start
initial socket setup ...done 
now start server 0 ... 
vega02.cac.cornell.edu 10.84.3
Q-Chem Developer Version! Running on 10.84.3.*
                  Welcome to Q-Chem
     A Quantum Leap Into The Future Of Chemistry


 Q-Chem 5.0, Q-Chem, Inc., Pleasanton, CA (2017)

 Yihan Shao,  Zhengting Gan,  E. Epifanovsky,  A. T. B. Gilbert,  M. Wormit,  
 J. Kussmann,  A. W. Lange,  A. Behn,  Jia Deng,  Xintian Feng,  D. Ghosh,  
 M. Goldey,  P. R. Horn,  L. D. Jacobson,  I. Kaliman,  T. Kus,  A. Landau,  
 Jie Liu,  E. I. Proynov,  R. M. Richard,  R. P. Steele,  E. J. Sundstrom,  
 H. L. Woodcock III,  P. M. Zimmerman,  D. Zuev,  B. Albrecht,  E. Alguire,  
 S. A. Baeppler,  Z. Benda,  Y. A. Bernard,  E. J. Berquist,  K. B. Bravaya,  
 D. Casanova,  Chun-Min Chang,  Yunqing Chen,  A. Chien,  K. D. Closser,  
 M. P. Coons,  S. Dasgupta,  M. Diedenhofen,  Hainam Do,  R. G. Edgar,  
 Po-Tung Fang,  S. Fatehi,  Qingguo Feng,  Qinghui Ge,  A. Ghysels,  
 J. Gomes,  J. Gonthier,  A. Gunina,  M. W. D. Hanson-Heine,  
 P. H. P. Harbach,  A. W. Hauser,  J. E. Herr,  E. G. Hohenstein,  
 Z. C. Holden,  Kerwin Hui,  T.-C. Jagau,  Hyunjun Ji,  B. Kaduk,  
 K. Khistyaev,  Jaehoon Kim,  P. Klunzinger,  K. Koh,  D. Kosenkov,  
 T. Kowalczyk,  C. M. Krauter,  A. Kunitsa,  Ka Un Lao,  A. Laurent,  
 K. V. Lawler,  Joonho Lee,  D. Lefrancois,  S. Lehtola,  D. S. Levine,  
 Yi-Pei Li,  You-Sheng Lin,  Fenglai Liu,  E. Livshits,  A. Luenser,  
 P. Manohar,  E. Mansoor,  S. F. Manzer,  Shan-Ping Mao,  Yuezhi Mao,  
 N. Mardirossian,  A. V. Marenich,  L. A. Martinez-Martinez,  S. A. Maurer,  
 N. J. Mayhall,  S. C. McKenzie,  J.-M. Mewes,  A. F. Morrison,  K. Nanda,  
 T. S. Nguyen-Beck,  R. Olivares-Amaya,  J. A. Parkhill,  T. M. Perrine,  
 F. Plasser,  S. Prager,  A. Prociuk,  D. R. Rehn,  F. Rob,  M. Schneider,  
 N. Sergueev,  S. M. Sharada,  S. Sharma,  D. W. Small,  T. Stauch,  
 T. Stein,  Yu-Chuan Su,  A. J. W. Thom,  T. Tsuchimochi,  L. Vogt,  
 O. Vydrov,  M. A. Watson,  J. Wenzel,  M. de Wergifosse,  T. A. Wesolowski,  
 A. White,  J. Witte,  A. Yamada,  Jun Yang,  K. Yao,  S. Yeganeh,  
 S. R. Yost,  Zhi-Qiang You,  A. Zech,  Igor Ying Zhang,  Xing Zhang,  
 Yan Zhao,  Ying Zhu,  B. R. Brooks,  G. K. L. Chan,  C. J. Cramer,  
 M. S. Gordon,  W. J. Hehre,  A. Klamt,  M. W. Schmidt,  C. D. Sherrill,  
 D. G. Truhlar,  A. Aspuru-Guzik,  R. Baer,  A. T. Bell,  N. A. Besley,  
 Jeng-Da Chai,  A. Dreuw,  B. D. Dunietz,  T. R. Furlani,  Chao-Ping Hsu,  
 Yousung Jung,  Jing Kong,  D. S. Lambrecht,  WanZhen Liang,  C. Ochsenfeld,  
 V. A. Rassolov,  L. V. Slipchenko,  J. E. Subotnik,  T. Van Voorhis,  
 J. M. Herbert,  A. I. Krylov,  P. M. W. Gill,  M. Head-Gordon

 Contributors to earlier versions of Q-Chem not listed above: 
 R. D. Adamson,  B. Austin,  J. Baker,  G. J. O. Beran,  K. Brandhorst,  
 S. T. Brown,  E. F. C. Byrd,  A. K. Chakraborty,  C.-L. Cheng,  
 Siu Hung Chien,  D. M. Chipman,  D. L. Crittenden,  H. Dachsel,  
 R. A. DiStasio Jr.,  R. J. Doerksen,  A. D. Dutoi,  L. Fusti-Molnar,  
 W. A. Goddard III,  A. Golubeva-Zadorozhnaya,  S. R. Gwaltney,  G. Hawkins,  
 A. Heyden,  S. Hirata,  G. Kedziora,  F. J. Keil,  C. Kelley,  Jihan Kim,  
 R. A. King,  R. Z. Khaliullin,  P. P. Korambath,  W. Kurlancheek,  
 A. M. Lee,  M. S. Lee,  S. V. Levchenko,  Ching Yeh Lin,  D. Liotard,  
 R. C. Lochan,  I. Lotan,  P. E. Maslen,  N. Nair,  D. P. O'Neill,  
 D. Neuhauser,  E. Neuscamman,  C. M. Oana,  R. Olson,  B. Peters,  
 R. Peverati,  P. A. Pieniazek,  Y. M. Rhee,  J. Ritchie,  M. A. Rohrdanz,  
 E. Rosta,  N. J. Russ,  H. F. Schaefer III,  N. E. Schultz,  N. Shenvi,  
 A. C. Simmonett,  A. Sodt,  D. Stuck,  K. S. Thanthiriwatte,  V. Vanovschi,  
 Tao Wang,  A. Warshel,  C. F. Williams,  Q. Wu,  X. Xu,  W. Zhang

 Please cite Q-Chem as follows:
 Y. Shao et al., Mol. Phys. 113, 184-215 (2015)
 DOI: 10.1080/00268976.2014.952696

 Q-Chem 5.0.1 for Intel X86 EM64T Linux

 Parts of Q-Chem use Armadillo 5.200.1 (Boston Tea Smuggler).
 http://arma.sourceforge.net/

 Q-Chem begins on Wed Apr 18 00:27:29 2018  

Host: vega02.cac.cornell.edu
0

     Scratch files written to /scratch/jj585/vdw/01n00_distance_3.500_01.save//
 Parallel job on  1  processors

Checking the input file for inconsistencies... 	...done.

--------------------------------------------------------------
User input:
--------------------------------------------------------------
$molecule
0  1
C        -0.57652000        -0.96781000        +3.43711000
C        -0.60686000        +0.41926000        +3.55809000
C        -1.76733000        -1.69242000        +3.36562000
C        -2.98417000        -1.01690000        +3.41692000
C        -3.00877000        +0.37296000        +3.53799000
C        -1.82413000        +1.11156000        +3.60868000
H        -3.96186000        +0.89059000        +3.57708000
H        -3.91602000        -1.56927000        +3.36218000
C        -1.84878000        +2.61625000        +3.73415000
H        -1.32441000        +3.09027000        +2.89862000
H        -1.35738000        +2.94494000        +4.65510000
H        -2.87209000        +2.99666000        +3.74615000
H        -1.74533000        -2.77225000        +3.27046000
H        +0.37572000        -1.48548000        +3.39825000
H        +0.32503000        +0.97355000        +3.61314000
@C        -0.55335000        -0.66344000        -0.04955000
@C        -0.58369000        +0.72363000        +0.07143000
@C        -1.74416000        -1.38805000        -0.12104000
@C        -2.96100000        -0.71253000        -0.06974000
@C        -2.98560000        +0.67733000        +0.05133000
@C        -1.80096000        +1.41593000        +0.12202000
@H        -3.93869000        +1.19496000        +0.09042000
@H        -3.89285000        -1.26490000        -0.12448000
@C        -1.82561000        +2.92062000        +0.24749000
@H        -1.30124000        +3.39464000        -0.58804000
@H        -1.33421000        +3.24931000        +1.16844000
@H        -2.84892000        +3.30103000        +0.25949000
@H        -1.72216000        -2.46788000        -0.21620000
@H        +0.39889000        -1.18111000        -0.08841000
@H        +0.34820000        +1.27792000        +0.12648000
$end

$rem
JOBTYPE                   SP
METHOD                    B3LYP
DFT_D                     d3_op
BASIS                     6-311++G(d,p)
SYMMETRY                  False
THRESH                    12
SCF_CONVERGENCE           8
MAX_SUB_FILE_NUM          128
MEM_STATIC                400
MEM_TOTAL                 4000
$end
--------------------------------------------------------------
 Adding empirical dispersion correction 
 ----------------------------------------------------------------
 Doing -D3(op) with
 s6 =   1.00000
 s8 =   0.78311
 a1 =   0.30000
 a2 =   4.25000
 n  =  10.00000
 -D3 energy without 3body term =     -0.0113715942 hartrees
 ----------------------------------------------------------------
             Standard Nuclear Orientation (Angstroms)
    I     Atom           X                Y                Z
 ----------------------------------------------------------------
    1      C      -0.5765200000    -0.9678100000     3.4371100000
    2      C      -0.6068600000     0.4192600000     3.5580900000
    3      C      -1.7673300000    -1.6924200000     3.3656200000
    4      C      -2.9841700000    -1.0169000000     3.4169200000
    5      C      -3.0087700000     0.3729600000     3.5379900000
    6      C      -1.8241300000     1.1115600000     3.6086800000
    7      H      -3.9618600000     0.8905900000     3.5770800000
    8      H      -3.9160200000    -1.5692700000     3.3621800000
    9      C      -1.8487800000     2.6162500000     3.7341500000
   10      H      -1.3244100000     3.0902700000     2.8986200000
   11      H      -1.3573800000     2.9449400000     4.6551000000
   12      H      -2.8720900000     2.9966600000     3.7461500000
   13      H      -1.7453300000    -2.7722500000     3.2704600000
   14      H       0.3757200000    -1.4854800000     3.3982500000
   15      H       0.3250300000     0.9735500000     3.6131400000
   16      GH     -0.5533500000    -0.6634400000    -0.0495500000
   17      GH     -0.5836900000     0.7236300000     0.0714300000
   18      GH     -1.7441600000    -1.3880500000    -0.1210400000
   19      GH     -2.9610000000    -0.7125300000    -0.0697400000
   20      GH     -2.9856000000     0.6773300000     0.0513300000
   21      GH     -1.8009600000     1.4159300000     0.1220200000
   22      GH     -3.9386900000     1.1949600000     0.0904200000
   23      GH     -3.8928500000    -1.2649000000    -0.1244800000
   24      GH     -1.8256100000     2.9206200000     0.2474900000
   25      GH     -1.3012400000     3.3946400000    -0.5880400000
   26      GH     -1.3342100000     3.2493100000     1.1684400000
   27      GH     -2.8489200000     3.3010300000     0.2594900000
   28      GH     -1.7221600000    -2.4678800000    -0.2162000000
   29      GH      0.3988900000    -1.1811100000    -0.0884100000
   30      GH      0.3482000000     1.2779200000     0.1264800000
 ----------------------------------------------------------------
 Nuclear Repulsion Energy =   268.9996227479 hartrees
 There are       25 alpha and       25 beta electrons
 Requested basis set is 6-311++G(d,p)
 There are 164 shells and 420 basis functions

 Total QAlloc Memory Limit   4000 MB
 Mega-Array Size       392 MB
 MEM_STATIC part       400 MB
 A cutoff of  1.0D-12 yielded  11783 shell pairs
 There are     79149 function pairs (     84512 Cartesian)
 
 -------------------------------------------------------
 OpenMP Integral Computing Module                       
 Release: version 1.0, May 2013, Q-Chem Inc. Pittsburgh 
 -------------------------------------------------------
 Integral Job Info:
 Integral job number is                      11
 Integral operator is                         1
 short-range coefficients                     0
 long-range coefficients              100000000
 Omega coefficients                           0
 if combine SR and LR in K                    0
 Integral screening is                        0
 Integral computing path is                   2
 max size of driver memory is            800000
 size of driver memory is                593474
 size of scratch memory is              2361544
 max col of scratch BK array               1296
 max len of scratch array in speh3          155
 max len of scratch index in speh4           18
 max int batch size is                      520
 min int batch size is                       52
 fixed nKL is                                52
 max L of basis functions is                  2
 order of int derivative is                   0
 number of shells is                        164
 number of basis is                         434
 number of cartesian basis is               434
 number of contracted shell pairs         11783
 number of primitive shell pairs          25842
 maxK2 (contraction) of shell pair           36
 max number of K2 of shell pair               1
 max number of CS2 of shell pair           2153
 max number of PS2 of shell pair           3612
 mem total for path MDJ                  130200
 -------------------------------------------------------
 Smallest overlap matrix eigenvalue = 1.18E-07
 Linear dependence detected in AO basis
 Number of orthogonalized atomic orbitals = 418
 Maximum deviation from orthogonality = 3.096E-10

 Scale SEOQF with 1.000000e-01/1.000000e-01/1.000000e-01

 Standard Electronic Orientation quadrupole field applied
 Nucleus-field energy     =    -0.0000000506 hartrees
 Guess from superposition of atomic densities
 Warning:  Energy on first SCF cycle will be non-variational

 Q-Chem warning in module /opt/software/qchem/qchem-5.0.1/libgen/Atomic_PolEc.C, line 58:

 No atomic polarizability available.


 Q-Chem warning in module /opt/software/qchem/qchem-5.0.1/libgen/Atomic_PolEc.C, line 73:

 No atomic polarizability available.


 Q-Chem warning in module /opt/software/qchem/qchem-5.0.1/libgen/Atomic_PolEc.C, line 58:

 No atomic polarizability available.


 Q-Chem warning in module /opt/software/qchem/qchem-5.0.1/libgen/Atomic_PolEc.C, line 73:

 No atomic polarizability available.


 Q-Chem warning in module /opt/software/qchem/qchem-5.0.1/libgen/Atomic_PolEc.C, line 58:

 No atomic polarizability available.


 Q-Chem warning in module /opt/software/qchem/qchem-5.0.1/libgen/Atomic_PolEc.C, line 73:

 No atomic polarizability available.


 Q-Chem warning in module /opt/software/qchem/qchem-5.0.1/libgen/Atomic_PolEc.C, line 58:

 No atomic polarizability available.


 Q-Chem warning in module /opt/software/qchem/qchem-5.0.1/libgen/Atomic_PolEc.C, line 73:

 No atomic polarizability available.


 Q-Chem warning in module /opt/software/qchem/qchem-5.0.1/libgen/Atomic_PolEc.C, line 58:

 No atomic polarizability available.


 Q-Chem warning in module /opt/software/qchem/qchem-5.0.1/libgen/Atomic_PolEc.C, line 73:

 No atomic polarizability available.


 Q-Chem warning in module /opt/software/qchem/qchem-5.0.1/libgen/Atomic_PolEc.C, line 58:

 No atomic polarizability available.


 Q-Chem warning in module /opt/software/qchem/qchem-5.0.1/libgen/Atomic_PolEc.C, line 73:

 No atomic polarizability available.


 Q-Chem warning in module /opt/software/qchem/qchem-5.0.1/libgen/Atomic_PolEc.C, line 58:

 No atomic polarizability available.


 Q-Chem warning in module /opt/software/qchem/qchem-5.0.1/libgen/Atomic_PolEc.C, line 73:

 No atomic polarizability available.


 Q-Chem warning in module /opt/software/qchem/qchem-5.0.1/libgen/Atomic_PolEc.C, line 58:

 No atomic polarizability available.


 Q-Chem warning in module /opt/software/qchem/qchem-5.0.1/libgen/Atomic_PolEc.C, line 73:

 No atomic polarizability available.


 Q-Chem warning in module /opt/software/qchem/qchem-5.0.1/libgen/Atomic_PolEc.C, line 58:

 No atomic polarizability available.


 Q-Chem warning in module /opt/software/qchem/qchem-5.0.1/libgen/Atomic_PolEc.C, line 73:

 No atomic polarizability available.


 Q-Chem warning in module /opt/software/qchem/qchem-5.0.1/libgen/Atomic_PolEc.C, line 58:

 No atomic polarizability available.


 Q-Chem warning in module /opt/software/qchem/qchem-5.0.1/libgen/Atomic_PolEc.C, line 73:

 No atomic polarizability available.


 Q-Chem warning in module /opt/software/qchem/qchem-5.0.1/libgen/Atomic_PolEc.C, line 58:

 No atomic polarizability available.


 Q-Chem warning in module /opt/software/qchem/qchem-5.0.1/libgen/Atomic_PolEc.C, line 73:

 No atomic polarizability available.


 Q-Chem warning in module /opt/software/qchem/qchem-5.0.1/libgen/Atomic_PolEc.C, line 58:

 No atomic polarizability available.


 Q-Chem warning in module /opt/software/qchem/qchem-5.0.1/libgen/Atomic_PolEc.C, line 73:

 No atomic polarizability available.


 Q-Chem warning in module /opt/software/qchem/qchem-5.0.1/libgen/Atomic_PolEc.C, line 58:

 No atomic polarizability available.


 Q-Chem warning in module /opt/software/qchem/qchem-5.0.1/libgen/Atomic_PolEc.C, line 73:

 No atomic polarizability available.


 Q-Chem warning in module /opt/software/qchem/qchem-5.0.1/libgen/Atomic_PolEc.C, line 58:

 No atomic polarizability available.


 Q-Chem warning in module /opt/software/qchem/qchem-5.0.1/libgen/Atomic_PolEc.C, line 73:

 No atomic polarizability available.


 Q-Chem warning in module /opt/software/qchem/qchem-5.0.1/libgen/Atomic_PolEc.C, line 58:

 No atomic polarizability available.


 Q-Chem warning in module /opt/software/qchem/qchem-5.0.1/libgen/Atomic_PolEc.C, line 73:

 No atomic polarizability available.

 A restricted hybrid HF-DFT SCF calculation will be
 performed using Pulay DIIS extrapolation
 Exchange:     0.2000 Hartree-Fock + 0.0800 Slater + 0.7200 B88
 Correlation:  0.1900 VWN1RPA + 0.8100 LYP
 Using SG-1 standard quadrature grid
 Dispersion:   Grimme D3
 SCF converges when DIIS error is below 1.0E-08
 using 4 threads for integral computing
 -------------------------------------------------------
 OpenMP Integral computing Module                
 Release: version 1.0, May 2013, Q-Chem Inc. Pittsburgh 
 -------------------------------------------------------
 -------------------------------------------------------
 OpenMP BLAS3 based DFT computing Module                
 Release: version 1.0, May 2013, Q-Chem Inc. Pittsburgh 
 -------------------------------------------------------
 ---------------------------------------
  Cycle       Energy         DIIS Error
 ---------------------------------------
    1    -273.1178506224      2.18E-02
    2    -271.5025098535      2.46E-03
    3    -271.4678576033      2.76E-03
    4    -271.6501144975      2.13E-04
    5    -271.6507837457      1.13E-04
    6    -271.6510115681      4.35E-05
    7    -271.6510477319      1.76E-05
    8    -271.6510553383      1.32E-06
    9    -271.6510553709      7.23E-07
   10    -271.6510553816      1.29E-07
   11    -271.6510553819      3.54E-08
   12    -271.6510553819      1.69E-08
   13    -271.6510553819      8.59E-10 Convergence criterion met
 ---------------------------------------
 SCF time:  CPU 466.38 s  wall 118.30 s
 SCF   energy in the final basis set = -271.65105538
 Total energy in the final basis set = -271.65105538
 
 --------------------------------------------------------------
 
                    Orbital Energies (a.u.)
 --------------------------------------------------------------
 
 Alpha MOs
 -- Occupied --
-10.185 -10.176 -10.175 -10.173 -10.173 -10.173 -10.170  -0.860
 -0.775  -0.748  -0.689  -0.608  -0.587  -0.515  -0.464  -0.457
 -0.424  -0.423  -0.412  -0.389  -0.359  -0.346  -0.343  -0.257
 -0.248
 -- Virtual --
 -0.018  -0.013  -0.009   0.004   0.009   0.019   0.027   0.031
  0.036   0.041   0.047   0.054   0.061   0.064   0.066   0.067
  0.080   0.083   0.092   0.093   0.099   0.102   0.104   0.106
  0.111   0.114   0.119   0.124   0.127   0.128   0.130   0.133
  0.138   0.141   0.145   0.149   0.155   0.162   0.163   0.164
  0.171   0.174   0.176   0.178   0.179   0.182   0.187   0.189
  0.196   0.199   0.207   0.213   0.215   0.220   0.221   0.223
  0.232   0.239   0.240   0.245   0.249   0.252   0.255   0.262
  0.268   0.269   0.270   0.280   0.281   0.284   0.286   0.296
  0.300   0.304   0.309   0.313   0.315   0.323   0.333   0.334
  0.338   0.342   0.361   0.372   0.375   0.377   0.389   0.404
  0.405   0.407   0.414   0.422   0.432   0.434   0.443   0.454
  0.460   0.478   0.482   0.491   0.502   0.514   0.525   0.541
  0.544   0.548   0.559   0.569   0.573   0.580   0.588   0.603
  0.606   0.614   0.617   0.622   0.632   0.640   0.641   0.654
  0.669   0.672   0.679   0.690   0.694   0.710   0.713   0.723
  0.727   0.733   0.736   0.748   0.760   0.762   0.776   0.780
  0.794   0.799   0.814   0.815   0.827   0.855   0.862   0.869
  0.880   0.895   0.897   0.915   0.922   0.936   0.938   0.944
  0.958   0.967   0.970   0.998   1.007   1.022   1.029   1.053
  1.068   1.093   1.099   1.112   1.120   1.142   1.151   1.153
  1.179   1.197   1.208   1.225   1.261   1.355   1.367   1.377
  1.387   1.429   1.444   1.455   1.475   1.486   1.496   1.515
  1.522   1.529   1.534   1.543   1.546   1.572   1.579   1.592
  1.603   1.612   1.622   1.634   1.646   1.665   1.672   1.693
  1.701   1.720   1.730   1.739   1.749   1.752   1.756   1.777
  1.782   1.789   1.799   1.801   1.803   1.806   1.848   1.854
  1.860   1.867   1.879   1.893   1.899   1.913   1.925   1.944
  1.948   1.958   1.959   1.963   1.986   1.996   2.007   2.017
  2.035   2.039   2.042   2.045   2.056   2.073   2.090   2.100
  2.128   2.146   2.178   2.217   2.235   2.246   2.262   2.289
  2.302   2.305   2.318   2.331   2.362   2.385   2.396   2.398
  2.406   2.411   2.422   2.446   2.478   2.479   2.487   2.489
  2.505   2.530   2.537   2.546   2.558   2.564   2.574   2.592
  2.622   2.635   2.645   2.688   2.695   2.705   2.731   2.738
  2.761   2.779   2.797   2.798   2.805   2.825   2.834   2.861
  2.878   2.885   2.899   2.905   2.922   2.940   2.942   2.968
  2.970   2.983   2.989   3.012   3.033   3.046   3.092   3.130
  3.169   3.184   3.191   3.236   3.249   3.293   3.334   3.354
  3.380   3.424   3.436   3.446   3.458   3.500   3.527   3.527
  3.556   3.561   3.590   3.599   3.610   3.631   3.637   3.664
  3.746   3.765   3.816   3.846   3.853   4.011   4.030   4.058
  4.061   4.159   4.166   4.175   4.338   4.648   4.707   4.826
  4.842   4.849   4.875   4.923   4.992   5.094   5.500   7.100
  7.146   7.183   7.221   7.249   7.383   7.621   7.742   7.757
  7.780   7.787   7.799   7.830   7.850   7.876   7.965   7.987
  8.004   8.174   8.467   8.903   9.670   9.987  10.182  10.198
 10.247  10.251  10.316  23.652  23.940  23.985  24.007  24.089
 24.101  24.201  69.733  69.904  69.953  69.978  69.993  70.011
 70.040
 --------------------------------------------------------------
 
          Ground-State Mulliken Net Atomic Charges

     Atom                 Charge (a.u.)
  ----------------------------------------
      1 C                    -0.214253
      2 C                    -0.110859
      3 C                    -0.371219
      4 C                    -0.256018
      5 C                    -0.243094
      6 C                     0.522075
      7 H                     0.163481
      8 H                     0.174425
      9 C                    -0.749794
     10 H                     0.175326
     11 H                     0.161678
     12 H                     0.141743
     13 H                     0.154622
     14 H                     0.169831
     15 H                     0.182065
     16 GH                    0.023896
     17 GH                    0.040575
     18 GH                   -0.014110
     19 GH                    0.007380
     20 GH                    0.008700
     21 GH                   -0.009785
     22 GH                    0.011742
     23 GH                    0.004770
     24 GH                    0.022444
     25 GH                    0.001994
     26 GH                   -0.015922
     27 GH                   -0.001096
     28 GH                    0.003918
     29 GH                    0.005981
     30 GH                    0.009505
  ----------------------------------------
  Sum of atomic charges =     0.000000

 -----------------------------------------------------------------
                    Cartesian Multipole Moments
 -----------------------------------------------------------------
    Charge (ESU x 10^10)
                 0.0000
    Dipole Moment (Debye)
         X       0.0339      Y       0.4056      Z       0.0329
       Tot       0.4083
    Quadrupole Moments (Debye-Ang)
        XX     -39.3300     XY      -0.6710     YY     -38.7322
        XZ       0.1178     YZ       2.0994     ZZ     -46.1908
    Octopole Moments (Debye-Ang^2)
       XXX     212.0302    XXY      -7.7508    XYY      70.0350
       YYY     -27.4786    XXZ    -139.0299    XYZ      -3.6159
       YYZ    -137.4863    XZZ      84.6801    YZZ       4.2648
       ZZZ    -489.2195
    Hexadecapole Moments (Debye-Ang^3)
      XXXX   -1056.4944   XXXY      47.2626   XXYY    -277.5492
      XYYY      52.6382   YYYY    -630.6904   XXXZ     748.9094
      XXYZ     -31.8579   XYYZ     248.2184   YYYZ    -118.9501
      XXZZ    -715.2410   XYZZ      -4.4130   YYZZ    -610.6638
      XZZZ     891.4634   YZZZ     -41.0018   ZZZZ   -3516.4362
 -----------------------------------------------------------------
Archival summary:
1\1\vega02.cac.cornell.edu\SP\ProcedureUnspecified\BasisUnspecified\78h15\jj585\WedApr1800:29:282018WedApr1800:29:282018\0\\#,ProcedureUnspecified,BasisUnspecified,\\0,1\C\C,1,1.39782\H,2,1.08529,1,119.368\C,2,1.39534,1,121.049,3,179.94,0\H,4,1.08464,2,119.768,1,-179.901,0\C,4,1.39272,2,120.115,1,0.0547342,0\H,6,1.08424,4,120.267,2,-179.932,0\C,6,1.39578,4,119.454,2,0.0391297,0\H,8,1.08455,6,119.963,4,179.98,0\C,8,1.39267,6,120.193,4,-0.0300908,0\H,10,1.08567,8,119.617,6,179.987,0\C,1,1.51011,2,121.122,3,-0.187779,0\H,12,1.0918,1,111.308,2,-0.672818,0\H,12,1.09438,1,111.214,2,119.648,0\H,12,1.09443,1,111.119,2,-120.898,0\Gh,15,1.7375,12,142.86,1,60.344,0\Gh,16,1.09438,15,144.392,12,-3.46868,0\Gh,17,1.0918,16,107.876,15,66.2319,0\Gh,17,1.09443,16,107.291,15,-177.807,0\Gh,17,1.51011,16,111.214,15,-56.0964,0\Gh,20,1.39782,17,121.122,16,119.648,0\Gh,21,1.08529,20,119.368,17,-0.187779,0\Gh,21,1.39534,20,121.049,17,179.752,0\Gh,23,1.08464,21,119.768,20,-179.901,0\Gh,23,1.39272,21,120.115,20,0.0547342,0\Gh,25,1.08424,23,120.267,21,-179.932,0\Gh,25,1.39578,23,119.454,21,0.0391297,0\Gh,27,1.08455,25,119.963,23,179.98,0\Gh,27,1.39267,25,120.193,23,-0.0300908,0\Gh,29,1.08567,27,119.617,25,179.987,0\\\@

 Total job time:  119.06s(wall), 468.74s(cpu) 
 Wed Apr 18 00:29:28 2018

        *************************************************************
        *                                                           *
        *  Thank you very much for using Q-Chem.  Have a nice day.  *
        *                                                           *
        *************************************************************


0 sent ACK to 0 
now end server 0 ... 
