mFile = /opt/software/qchem/qchem-5.0.1//bin/mpi/machines
Process 0 of 1 is on vega03.cac.cornell.edu - thread support 0
initial socket setup ...start
initial socket setup ...done 
now start server 0 ... 
vega03 10.84.3
Q-Chem Developer Version! Running on 10.84.3.*
                  Welcome to Q-Chem
     A Quantum Leap Into The Future Of Chemistry


 Q-Chem 5.0, Q-Chem, Inc., Pleasanton, CA (2017)

 Yihan Shao,  Zhengting Gan,  E. Epifanovsky,  A. T. B. Gilbert,  M. Wormit,  
 J. Kussmann,  A. W. Lange,  A. Behn,  Jia Deng,  Xintian Feng,  D. Ghosh,  
 M. Goldey,  P. R. Horn,  L. D. Jacobson,  I. Kaliman,  T. Kus,  A. Landau,  
 Jie Liu,  E. I. Proynov,  R. M. Richard,  R. P. Steele,  E. J. Sundstrom,  
 H. L. Woodcock III,  P. M. Zimmerman,  D. Zuev,  B. Albrecht,  E. Alguire,  
 S. A. Baeppler,  Z. Benda,  Y. A. Bernard,  E. J. Berquist,  K. B. Bravaya,  
 D. Casanova,  Chun-Min Chang,  Yunqing Chen,  A. Chien,  K. D. Closser,  
 M. P. Coons,  S. Dasgupta,  M. Diedenhofen,  Hainam Do,  R. G. Edgar,  
 Po-Tung Fang,  S. Fatehi,  Qingguo Feng,  Qinghui Ge,  A. Ghysels,  
 J. Gomes,  J. Gonthier,  A. Gunina,  M. W. D. Hanson-Heine,  
 P. H. P. Harbach,  A. W. Hauser,  J. E. Herr,  E. G. Hohenstein,  
 Z. C. Holden,  Kerwin Hui,  T.-C. Jagau,  Hyunjun Ji,  B. Kaduk,  
 K. Khistyaev,  Jaehoon Kim,  P. Klunzinger,  K. Koh,  D. Kosenkov,  
 T. Kowalczyk,  C. M. Krauter,  A. Kunitsa,  Ka Un Lao,  A. Laurent,  
 K. V. Lawler,  Joonho Lee,  D. Lefrancois,  S. Lehtola,  D. S. Levine,  
 Yi-Pei Li,  You-Sheng Lin,  Fenglai Liu,  E. Livshits,  A. Luenser,  
 P. Manohar,  E. Mansoor,  S. F. Manzer,  Shan-Ping Mao,  Yuezhi Mao,  
 N. Mardirossian,  A. V. Marenich,  L. A. Martinez-Martinez,  S. A. Maurer,  
 N. J. Mayhall,  S. C. McKenzie,  J.-M. Mewes,  A. F. Morrison,  K. Nanda,  
 T. S. Nguyen-Beck,  R. Olivares-Amaya,  J. A. Parkhill,  T. M. Perrine,  
 F. Plasser,  S. Prager,  A. Prociuk,  D. R. Rehn,  F. Rob,  M. Schneider,  
 N. Sergueev,  S. M. Sharada,  S. Sharma,  D. W. Small,  T. Stauch,  
 T. Stein,  Yu-Chuan Su,  A. J. W. Thom,  T. Tsuchimochi,  L. Vogt,  
 O. Vydrov,  M. A. Watson,  J. Wenzel,  M. de Wergifosse,  T. A. Wesolowski,  
 A. White,  J. Witte,  A. Yamada,  Jun Yang,  K. Yao,  S. Yeganeh,  
 S. R. Yost,  Zhi-Qiang You,  A. Zech,  Igor Ying Zhang,  Xing Zhang,  
 Yan Zhao,  Ying Zhu,  B. R. Brooks,  G. K. L. Chan,  C. J. Cramer,  
 M. S. Gordon,  W. J. Hehre,  A. Klamt,  M. W. Schmidt,  C. D. Sherrill,  
 D. G. Truhlar,  A. Aspuru-Guzik,  R. Baer,  A. T. Bell,  N. A. Besley,  
 Jeng-Da Chai,  A. Dreuw,  B. D. Dunietz,  T. R. Furlani,  Chao-Ping Hsu,  
 Yousung Jung,  Jing Kong,  D. S. Lambrecht,  WanZhen Liang,  C. Ochsenfeld,  
 V. A. Rassolov,  L. V. Slipchenko,  J. E. Subotnik,  T. Van Voorhis,  
 J. M. Herbert,  A. I. Krylov,  P. M. W. Gill,  M. Head-Gordon

 Contributors to earlier versions of Q-Chem not listed above: 
 R. D. Adamson,  B. Austin,  J. Baker,  G. J. O. Beran,  K. Brandhorst,  
 S. T. Brown,  E. F. C. Byrd,  A. K. Chakraborty,  C.-L. Cheng,  
 Siu Hung Chien,  D. M. Chipman,  D. L. Crittenden,  H. Dachsel,  
 R. A. DiStasio Jr.,  R. J. Doerksen,  A. D. Dutoi,  L. Fusti-Molnar,  
 W. A. Goddard III,  A. Golubeva-Zadorozhnaya,  S. R. Gwaltney,  G. Hawkins,  
 A. Heyden,  S. Hirata,  G. Kedziora,  F. J. Keil,  C. Kelley,  Jihan Kim,  
 R. A. King,  R. Z. Khaliullin,  P. P. Korambath,  W. Kurlancheek,  
 A. M. Lee,  M. S. Lee,  S. V. Levchenko,  Ching Yeh Lin,  D. Liotard,  
 R. C. Lochan,  I. Lotan,  P. E. Maslen,  N. Nair,  D. P. O'Neill,  
 D. Neuhauser,  E. Neuscamman,  C. M. Oana,  R. Olson,  B. Peters,  
 R. Peverati,  P. A. Pieniazek,  Y. M. Rhee,  J. Ritchie,  M. A. Rohrdanz,  
 E. Rosta,  N. J. Russ,  H. F. Schaefer III,  N. E. Schultz,  N. Shenvi,  
 A. C. Simmonett,  A. Sodt,  D. Stuck,  K. S. Thanthiriwatte,  V. Vanovschi,  
 Tao Wang,  A. Warshel,  C. F. Williams,  Q. Wu,  X. Xu,  W. Zhang

 Please cite Q-Chem as follows:
 Y. Shao et al., Mol. Phys. 113, 184-215 (2015)
 DOI: 10.1080/00268976.2014.952696

 Q-Chem 5.0.1 for Intel X86 EM64T Linux

 Parts of Q-Chem use Armadillo 5.200.1 (Boston Tea Smuggler).
 http://arma.sourceforge.net/

 Q-Chem begins on Mon Apr  2 13:13:44 2018  

Host: vega03.cac.cornell.edu
0

     Scratch files written to /scratch/jj585/vdw/1111_distance_3.500_11.save//
 Parallel job on  1  processors

Checking the input file for inconsistencies... 	...done.

--------------------------------------------------------------
User input:
--------------------------------------------------------------
$molecule
0  1
--
0  1
C        +0.22270000        +1.04488000        +0.58595000
C        +0.62626000        -0.41353000        +0.99871000
C        -1.18200000        +1.23223000        +0.04377000
C        -0.37457000        -1.51643000        +0.72333000
O        -2.09172000        +0.78832000        +0.93966000
O        -1.47336000        +1.75939000        -0.99882000
O        -0.91364000        -1.42792000        -0.50620000
O        -0.62208000        -2.40877000        +1.49911000
C        -1.86134000        -2.44741000        -0.86560000
C        -3.47068000        +0.87492000        +0.53920000
C        +1.33008000        +1.39974000        -0.43491000
C        +2.63070000        +1.71700000        +0.32855000
C        +3.04336000        +0.29351000        +0.80300000
C        +1.94423000        -0.59299000        +0.15262000
O        +1.62840000        +0.13663000        -1.04376000
H        +0.27811000        +1.68786000        +1.46900000
H        +0.83923000        -0.48042000        +2.06408000
H        -2.68749000        -2.46677000        -0.15296000
H        -3.76076000        +1.91522000        +0.38406000
H        +3.37234000        +2.13782000        -0.35195000
H        +2.48236000        +2.42488000        +1.14651000
H        +4.02182000        +0.00994000        +0.41161000
H        +3.07359000        +0.18738000        +1.88928000
H        -2.21148000        -2.17765000        -1.85937000
H        -1.38062000        -3.42697000        -0.88096000
H        -4.03855000        +0.43623000        +1.35671000
H        -3.63120000        +0.31700000        -0.38495000
C        +0.90028000        +2.39077000        -1.49430000
C        +2.35450000        -2.01267000        -0.16812000
H        +3.26311000        -2.00678000        -0.77366000
H        +2.54990000        -2.57059000        +0.75079000
H        +1.57335000        -2.52896000        -0.72872000
H        +1.71845000        +2.58186000        -2.15686000
H        +0.59919000        +3.30478000        -1.02650000
H        +0.07925000        +1.98653000        -2.04874000
--
0  1
C        +0.24096000        +2.07909000        +3.92961000
C        +0.64452000        +0.62068000        +4.34237000
C        -1.16374000        +2.26644000        +3.38743000
C        -0.35631000        -0.48222000        +4.06699000
O        -2.07346000        +1.82253000        +4.28332000
O        -1.45510000        +2.79360000        +2.34484000
O        -0.89538000        -0.39371000        +2.83746000
O        -0.60382000        -1.37456000        +4.84277000
C        -1.84308000        -1.41320000        +2.47806000
C        -3.45242000        +1.90913000        +3.88286000
C        +1.34834000        +2.43395000        +2.90875000
C        +2.64896000        +2.75121000        +3.67221000
C        +3.06162000        +1.32772000        +4.14666000
C        +1.96249000        +0.44122000        +3.49628000
O        +1.64666000        +1.17084000        +2.29990000
H        +0.29637000        +2.72207000        +4.81266000
H        +0.85749000        +0.55379000        +5.40774000
H        -2.66923000        -1.43256000        +3.19070000
H        -3.74250000        +2.94943000        +3.72772000
H        +3.39060000        +3.17203000        +2.99171000
H        +2.50062000        +3.45909000        +4.49017000
H        +4.04008000        +1.04415000        +3.75527000
H        +3.09185000        +1.22159000        +5.23294000
H        -2.19322000        -1.14344000        +1.48429000
H        -1.36236000        -2.39276000        +2.46270000
H        -4.02029000        +1.47044000        +4.70037000
H        -3.61294000        +1.35121000        +2.95871000
C        +0.91854000        +3.42498000        +1.84936000
C        +2.37276000        -0.97846000        +3.17554000
H        +3.28137000        -0.97257000        +2.57000000
H        +2.56816000        -1.53638000        +4.09445000
H        +1.59161000        -1.49475000        +2.61494000
H        +1.73671000        +3.61607000        +1.18680000
H        +0.61745000        +4.33899000        +2.31716000
H        +0.09751000        +3.02074000        +1.29492000
$end

$rem
JOBTYPE                   SP
METHOD                    B3LYP
DFT_D                     d3_op
BASIS                     6-311++G(d,p)
SYMMETRY                  False
THRESH                    12
SCF_CONVERGENCE           8
MAX_SUB_FILE_NUM          128
MEM_STATIC                400
MEM_TOTAL                 4000
$end
--------------------------------------------------------------
 Adding empirical dispersion correction 
 ----------------------------------------------------------------
 Doing -D3(op) with
 s6 =   1.00000
 s8 =   0.78311
 a1 =   0.30000
 a2 =   4.25000
 n  =  10.00000
 -D3 energy without 3body term =     -0.1340306984 hartrees
 ----------------------------------------------------------------
             Standard Nuclear Orientation (Angstroms)
    I     Atom           X                Y                Z
 ----------------------------------------------------------------
    1      C       0.7180485547    -0.4018695783     0.9232457728
    2      C       0.9646308929    -0.6170500053    -0.6107313306
    3      C       1.3803417399     0.8091319080     1.5533921064
    4      C       1.9202220552     0.3334227906    -1.3016222324
    5      O       1.0014253926     1.9362944826     0.9105916780
    6      O       2.0890245448     0.8013479478     2.5267832484
    7      O       3.0451880556     0.5388016855    -0.5927883214
    8      O       1.7209126280     0.8119408945    -2.3927971315
    9      C       4.0232473595     1.4126519441    -1.1813877044
   10      C       1.5838140054     3.1631524784     1.3849769802
   11      C       1.2062442400    -1.7473598476     1.5112016656
   12      C       0.1382862429    -2.8260990247     1.2448842463
   13      C       0.3136132070    -3.0361395650    -0.2870616683
   14      C       1.5102435535    -2.0960347405    -0.6052469666
   15      O       2.2613155599    -2.1288584058     0.6187761075
   16      H      -0.3538446332    -0.2628692410     1.0905620927
   17      H       0.0365980680    -0.5499348686    -1.1756157119
   18      H       3.5862127120     2.3922245974    -1.3818684654
   19      H       1.2885681793     3.3540411110     2.4178517781
   20      H       0.3767025304    -3.7352241677     1.7988235573
   21      H      -0.8668693027    -2.5098317203     1.5308820310
   22      H       0.5854623568    -4.0669664859    -0.5204624982
   23      H      -0.5771172482    -2.7852713926    -0.8665839582
   24      H       4.8223757641     1.4864234411    -0.4472904021
   25      H       4.3981907438     0.9914762408    -2.1156756296
   26      H       1.2008262775     3.9399168727     0.7267936250
   27      H       2.6724454248     3.1112109122     1.3277203154
   28      C       1.7400627209    -1.6479824451     2.9234118604
   29      C       2.3682308808    -2.5052312497    -1.7813009134
   30      H       2.7028011972    -3.5367208565    -1.6533266574
   31      H       1.7997170027    -2.4345517725    -2.7117028999
   32      H       3.2500124221    -1.8674822457    -1.8635235863
   33      H       2.0551963820    -2.6154428779     3.2544924809
   34      H       0.9703884791    -1.2826892601     3.5707670632
   35      H       2.5721166087    -0.9755399233     2.9436932499
   36      C      -2.6460226011     0.3770144649     0.3519745123
   37      C      -2.3994402630     0.1618340380    -1.1820025911
   38      C      -1.9837294159     1.5880159512     0.9821208460
   39      C      -1.4438491006     1.1123068338    -1.8728934928
   40      O      -2.3626457633     2.7151785258     0.3393204176
   41      O      -1.2750466110     1.5802319911     1.9555119880
   42      O      -0.3188831002     1.3176857288    -1.1640595819
   43      O      -1.6431585278     1.5908249377    -2.9640683920
   44      C       0.6591762037     2.1915359874    -1.7526589649
   45      C      -1.7802571504     3.9420365216     0.8137057198
   46      C      -2.1578269158    -0.9684758043     0.9399304052
   47      C      -3.2257849129    -2.0472149815     0.6736129859
   48      C      -3.0504579488    -2.2572555218    -0.8583329288
   49      C      -1.8538276024    -1.3171506972    -1.1765182270
   50      O      -1.1027555959    -1.3499743626     0.0475048470
   51      H      -3.7179157890     0.5160148022     0.5192908322
   52      H      -3.3274730879     0.2289491747    -1.7468869723
   53      H       0.2221415561     3.1711086406    -1.9531397258
   54      H      -2.0755029765     4.1329251542     1.8465805177
   55      H      -2.9873686254    -2.9563401244     1.2275522969
   56      H      -4.2309404585    -1.7309476771     0.9596107706
   57      H      -2.7786087990    -3.2880824427    -1.0917337587
   58      H      -3.9411884040    -2.0063873493    -1.4378552187
   59      H       1.4583046083     2.2653074844    -1.0185616625
   60      H       1.0341195879     1.7703602840    -2.6869468901
   61      H      -2.1632448783     4.7188009160     0.1555223646
   62      H      -0.6916257310     3.8900949554     0.7564490550
   63      C      -1.6240084349    -0.8690984019     2.3521406000
   64      C      -0.9958402750    -1.7263472065    -2.3525721738
   65      H      -0.6612699587    -2.7578368133    -2.2245979178
   66      H      -1.5643541531    -1.6556677292    -3.2829741603
   67      H      -0.1140587337    -1.0885982024    -2.4347948468
   68      H      -1.3088747738    -1.8365588347     2.6832212205
   69      H      -2.3936826768    -0.5038052168     2.9994958028
   70      H      -0.7919545471    -0.1966558801     2.3724219894
 ----------------------------------------------------------------
 Molecular Point Group                 C1    NOp =  1
 Largest Abelian Subgroup              C1    NOp =  1
 Nuclear Repulsion Energy =  4815.4411789581 hartrees
 There are      130 alpha and      130 beta electrons
 Requested basis set is 6-311++G(d,p)
 There are 384 shells and 1000 basis functions

 Total QAlloc Memory Limit   4000 MB
 Mega-Array Size       392 MB
 MEM_STATIC part       400 MB
 A cutoff of  1.0D-12 yielded  57235 shell pairs
 There are    390115 function pairs (    414662 Cartesian)
 
 -------------------------------------------------------
 OpenMP Integral Computing Module                       
 Release: version 1.0, May 2013, Q-Chem Inc. Pittsburgh 
 -------------------------------------------------------
 Integral Job Info:
 Integral job number is                      11
 Integral operator is                         1
 short-range coefficients                     0
 long-range coefficients              100000000
 Omega coefficients                           0
 if combine SR and LR in K                    0
 Integral screening is                        0
 Integral computing path is                   2
 max size of driver memory is            800000
 size of driver memory is                593474
 size of scratch memory is              2361544
 max col of scratch BK array               1296
 max len of scratch array in speh3          155
 max len of scratch index in speh4           18
 max int batch size is                      520
 min int batch size is                       52
 fixed nKL is                                52
 max L of basis functions is                  2
 order of int derivative is                   0
 number of shells is                        384
 number of basis is                        1034
 number of cartesian basis is              1034
 number of contracted shell pairs         57235
 number of primitive shell pairs         120676
 maxK2 (contraction) of shell pair           36
 max number of K2 of shell pair               1
 max number of CS2 of shell pair          11179
 max number of PS2 of shell pair          18546
 mem total for path MDJ                  670376
 -------------------------------------------------------
 Smallest overlap matrix eigenvalue = 6.34E-08
 Linear dependence detected in AO basis
 Number of orthogonalized atomic orbitals = 988
 Maximum deviation from orthogonality = 3.495E-10

 Scale SEOQF with 1.000000e-01/1.000000e-01/1.000000e-01

 Standard Electronic Orientation quadrupole field applied
 Nucleus-field energy     =     0.0000000354 hartrees
 Guess from superposition of atomic densities
 Warning:  Energy on first SCF cycle will be non-variational
 A restricted hybrid HF-DFT SCF calculation will be
 performed using Pulay DIIS extrapolation
 Exchange:     0.2000 Hartree-Fock + 0.0800 Slater + 0.7200 B88
 Correlation:  0.1900 VWN1RPA + 0.8100 LYP
 Using SG-1 standard quadrature grid
 Dispersion:   Grimme D3
 SCF converges when DIIS error is below 1.0E-08
 using 2 threads for integral computing
 -------------------------------------------------------
 OpenMP Integral computing Module                
 Release: version 1.0, May 2013, Q-Chem Inc. Pittsburgh 
 -------------------------------------------------------
 -------------------------------------------------------
 OpenMP BLAS3 based DFT computing Module                
 Release: version 1.0, May 2013, Q-Chem Inc. Pittsburgh 
 -------------------------------------------------------
 ---------------------------------------
  Cycle       Energy         DIIS Error
 ---------------------------------------
    1   -1697.5606461148      2.10E-02
    2   -1687.9212972046      2.65E-03
    3   -1686.9704200519      4.22E-03
    4   -1688.5200213135      1.11E-03
    5   -1688.6313704478      2.82E-04
    6   -1688.6368878896      1.39E-04
    7   -1688.6385254942      3.77E-05
    8   -1688.6386177138      1.84E-05
    9   -1688.6386465329      3.75E-06
   10   -1688.6386476133      1.46E-06
   11   -1688.6386477821      4.53E-07
   12   -1688.6386477984      1.91E-07
   13   -1688.6386478016      5.59E-08
   14   -1688.6386478020      2.45E-08
   15   -1688.6386478023      7.59E-09 Convergence criterion met
 ---------------------------------------
 SCF time:  CPU 9065.14 s  wall 4551.81 s
 SCF   energy in the final basis set = -1688.63864780
 Total energy in the final basis set = -1688.63864780
 
 --------------------------------------------------------------
 
                    Orbital Energies (a.u.)
 --------------------------------------------------------------
 
 Alpha MOs
 -- Occupied --
-19.182 -19.169 -19.167 -19.156 -19.135 -19.131 -19.126 -19.116
-19.103 -19.097 -10.320 -10.307 -10.289 -10.288 -10.261 -10.252
-10.234 -10.231 -10.226 -10.220 -10.219 -10.216 -10.209 -10.195
-10.193 -10.188 -10.175 -10.167 -10.162 -10.157 -10.151 -10.143
-10.141 -10.120  -1.141  -1.127  -1.113  -1.102  -1.101  -1.056
 -1.043  -1.039  -1.026  -1.016  -0.854  -0.841  -0.817  -0.800
 -0.785  -0.771  -0.756  -0.747  -0.740  -0.735  -0.721  -0.707
 -0.696  -0.669  -0.661  -0.636  -0.624  -0.611  -0.607  -0.588
 -0.580  -0.576  -0.564  -0.561  -0.547  -0.540  -0.533  -0.524
 -0.519  -0.515  -0.506  -0.501  -0.494  -0.492  -0.487  -0.478
 -0.473  -0.471  -0.468  -0.467  -0.464  -0.457  -0.453  -0.450
 -0.446  -0.436  -0.433  -0.426  -0.422  -0.420  -0.412  -0.408
 -0.402  -0.400  -0.394  -0.390  -0.387  -0.383  -0.377  -0.376
 -0.372  -0.372  -0.368  -0.364  -0.357  -0.356  -0.351  -0.345
 -0.344  -0.338  -0.334  -0.328  -0.326  -0.322  -0.317  -0.310
 -0.304  -0.299  -0.293  -0.290  -0.285  -0.278  -0.273  -0.249
 -0.245  -0.220
 -- Virtual --
 -0.033  -0.019  -0.012  -0.010  -0.005   0.002   0.003   0.005
  0.008   0.015   0.018   0.021   0.022   0.023   0.027   0.032
  0.036   0.037   0.042   0.044   0.045   0.049   0.053   0.057
  0.060   0.062   0.063   0.065   0.068   0.072   0.074   0.076
  0.076   0.083   0.086   0.089   0.090   0.092   0.094   0.097
  0.100   0.101   0.104   0.105   0.105   0.106   0.110   0.112
  0.114   0.115   0.117   0.118   0.119   0.120   0.123   0.125
  0.128   0.129   0.131   0.134   0.135   0.138   0.139   0.141
  0.144   0.145   0.146   0.148   0.148   0.150   0.153   0.154
  0.155   0.156   0.158   0.160   0.161   0.162   0.163   0.166
  0.169   0.171   0.172   0.174   0.174   0.176   0.177   0.180
  0.182   0.183   0.185   0.185   0.188   0.192   0.193   0.195
  0.198   0.200   0.202   0.203   0.206   0.208   0.209   0.210
  0.213   0.214   0.216   0.220   0.220   0.222   0.224   0.225
  0.225   0.227   0.230   0.231   0.233   0.236   0.240   0.244
  0.246   0.247   0.248   0.252   0.254   0.256   0.257   0.259
  0.260   0.266   0.268   0.271   0.276   0.278   0.281   0.284
  0.285   0.289   0.290   0.291   0.295   0.296   0.297   0.299
  0.302   0.304   0.307   0.309   0.310   0.312   0.313   0.315
  0.317   0.317   0.323   0.327   0.327   0.330   0.330   0.335
  0.336   0.337   0.339   0.342   0.347   0.347   0.350   0.352
  0.353   0.356   0.359   0.359   0.361   0.363   0.366   0.369
  0.373   0.373   0.376   0.381   0.383   0.385   0.386   0.389
  0.389   0.392   0.393   0.395   0.400   0.404   0.408   0.408
  0.411   0.413   0.415   0.419   0.423   0.423   0.425   0.433
  0.433   0.437   0.441   0.444   0.448   0.450   0.455   0.459
  0.462   0.464   0.466   0.471   0.476   0.479   0.482   0.484
  0.491   0.496   0.497   0.501   0.504   0.505   0.511   0.515
  0.519   0.523   0.533   0.536   0.539   0.543   0.548   0.553
  0.558   0.559   0.562   0.564   0.572   0.575   0.577   0.580
  0.590   0.591   0.596   0.601   0.602   0.605   0.609   0.614
  0.616   0.619   0.626   0.629   0.636   0.638   0.643   0.646
  0.650   0.653   0.659   0.662   0.665   0.668   0.672   0.674
  0.680   0.681   0.685   0.687   0.696   0.701   0.704   0.705
  0.706   0.713   0.716   0.716   0.721   0.723   0.725   0.729
  0.732   0.738   0.739   0.744   0.745   0.749   0.749   0.755
  0.759   0.761   0.766   0.768   0.770   0.773   0.775   0.778
  0.782   0.784   0.788   0.791   0.795   0.800   0.801   0.805
  0.811   0.813   0.817   0.821   0.825   0.833   0.834   0.841
  0.845   0.846   0.849   0.854   0.861   0.866   0.869   0.874
  0.885   0.887   0.890   0.895   0.897   0.906   0.909   0.916
  0.920   0.930   0.936   0.945   0.952   0.960   0.967   0.975
  0.986   0.987   0.994   1.005   1.014   1.025   1.030   1.034
  1.057   1.062   1.067   1.079   1.089   1.095   1.100   1.106
  1.115   1.125   1.131   1.141   1.149   1.155   1.157   1.164
  1.169   1.171   1.177   1.189   1.194   1.199   1.204   1.211
  1.218   1.225   1.235   1.239   1.249   1.254   1.261   1.269
  1.272   1.279   1.288   1.290   1.298   1.302   1.310   1.315
  1.321   1.326   1.329   1.332   1.337   1.344   1.347   1.354
  1.360   1.363   1.367   1.373   1.382   1.394   1.395   1.407
  1.408   1.411   1.418   1.420   1.421   1.428   1.436   1.444
  1.453   1.458   1.466   1.470   1.476   1.480   1.489   1.494
  1.496   1.507   1.508   1.517   1.528   1.531   1.532   1.540
  1.544   1.549   1.550   1.555   1.562   1.563   1.569   1.572
  1.574   1.584   1.584   1.589   1.593   1.598   1.603   1.608
  1.612   1.618   1.623   1.629   1.633   1.635   1.639   1.647
  1.652   1.654   1.659   1.662   1.668   1.674   1.676   1.681
  1.685   1.689   1.694   1.698   1.701   1.706   1.709   1.720
  1.722   1.729   1.731   1.734   1.736   1.739   1.743   1.750
  1.751   1.756   1.759   1.763   1.769   1.774   1.778   1.781
  1.786   1.788   1.797   1.803   1.810   1.812   1.818   1.823
  1.825   1.828   1.834   1.836   1.841   1.845   1.849   1.856
  1.864   1.870   1.875   1.878   1.881   1.891   1.893   1.895
  1.901   1.906   1.914   1.923   1.928   1.929   1.938   1.945
  1.956   1.957   1.963   1.970   1.972   1.973   1.985   1.989
  2.000   2.009   2.018   2.023   2.034   2.039   2.044   2.046
  2.052   2.053   2.066   2.071   2.079   2.086   2.087   2.101
  2.102   2.111   2.113   2.121   2.130   2.134   2.141   2.143
  2.152   2.156   2.160   2.169   2.170   2.178   2.186   2.194
  2.196   2.204   2.204   2.210   2.221   2.231   2.236   2.244
  2.249   2.254   2.261   2.277   2.282   2.289   2.293   2.295
  2.307   2.308   2.320   2.339   2.344   2.349   2.354   2.371
  2.377   2.396   2.399   2.409   2.424   2.427   2.434   2.449
  2.452   2.459   2.469   2.479   2.485   2.496   2.502   2.508
  2.516   2.518   2.525   2.529   2.535   2.543   2.548   2.550
  2.555   2.560   2.561   2.568   2.578   2.583   2.586   2.596
  2.601   2.601   2.610   2.615   2.620   2.626   2.635   2.636
  2.639   2.647   2.650   2.656   2.658   2.673   2.676   2.682
  2.693   2.699   2.705   2.712   2.720   2.730   2.737   2.746
  2.753   2.754   2.762   2.770   2.787   2.793   2.799   2.803
  2.809   2.821   2.824   2.831   2.833   2.846   2.856   2.864
  2.874   2.882   2.888   2.891   2.894   2.901   2.914   2.925
  2.931   2.935   2.940   2.955   2.965   2.975   2.983   2.987
  2.993   3.000   3.018   3.030   3.036   3.041   3.051   3.059
  3.068   3.076   3.078   3.087   3.094   3.102   3.104   3.118
  3.120   3.124   3.131   3.136   3.146   3.148   3.150   3.169
  3.171   3.174   3.177   3.184   3.188   3.193   3.211   3.215
  3.231   3.234   3.243   3.252   3.259   3.264   3.272   3.281
  3.282   3.292   3.292   3.300   3.310   3.328   3.339   3.343
  3.355   3.378   3.379   3.387   3.396   3.405   3.420   3.421
  3.428   3.436   3.442   3.457   3.461   3.472   3.499   3.507
  3.519   3.521   3.574   3.597   3.609   3.613   3.619   3.645
  3.659   3.673   3.706   3.717   3.762   3.774   3.777   3.785
  3.795   3.800   3.814   3.828   3.832   3.839   3.855   3.861
  3.869   3.875   3.888   3.906   3.923   3.932   3.940   3.947
  3.954   3.972   3.980   4.000   4.009   4.035   4.063   4.101
  4.106   4.108   4.136   4.141   4.160   4.172   4.182   4.200
  4.208   4.223   4.230   4.241   4.265   4.275   4.295   4.297
  4.324   4.343   4.369   4.373   4.414   4.472   4.514   4.547
  4.586   4.606   5.138   5.149   5.223   5.235   5.266   5.279
  5.299   5.310   5.339   5.377   5.386   5.398   5.420   5.451
  5.495   5.522   5.569   5.599   5.625   5.672   5.697   5.707
  5.742   5.752   5.819   5.832   5.983   5.989   6.016   6.025
 23.843  23.895  23.903  23.923  23.938  23.958  23.965  23.970
 23.978  23.989  24.005  24.006  24.018  24.026  24.051  24.067
 24.090  24.111  24.122  24.137  24.147  24.192  24.248  24.297
 49.958  50.005  50.027  50.046  50.076  50.087  50.100  50.110
 50.135  50.162
 --------------------------------------------------------------
 
          Ground-State Mulliken Net Atomic Charges

     Atom                 Charge (a.u.)
  ----------------------------------------
      1 C                     0.120223
      2 C                    -0.863348
      3 C                    -0.118885
      4 C                    -0.676718
      5 O                     0.026860
      6 O                    -0.025101
      7 O                     0.223553
      8 O                     0.298616
      9 C                    -0.091434
     10 C                    -0.266646
     11 C                    -0.270534
     12 C                     0.158237
     13 C                    -0.055843
     14 C                    -0.411850
     15 O                     0.188508
     16 H                    -0.113235
     17 H                    -0.026387
     18 H                     0.206180
     19 H                     0.222856
     20 H                     0.212838
     21 H                     0.014373
     22 H                     0.202056
     23 H                    -0.056363
     24 H                     0.184238
     25 H                     0.174935
     26 H                     0.159651
     27 H                     0.207417
     28 C                    -0.546129
     29 C                    -0.504634
     30 H                     0.201058
     31 H                     0.123621
     32 H                     0.183373
     33 H                     0.144184
     34 H                     0.122562
     35 H                     0.202074
     36 C                    -0.043342
     37 C                     0.204707
     38 C                    -0.908215
     39 C                    -0.545041
     40 O                     0.156418
     41 O                    -0.029817
     42 O                     0.041968
     43 O                    -0.054354
     44 C                    -0.065404
     45 C                    -0.124511
     46 C                     0.039632
     47 C                    -0.139084
     48 C                    -0.127812
     49 C                    -0.252524
     50 O                    -0.187389
     51 H                     0.249641
     52 H                     0.294107
     53 H                     0.225922
     54 H                     0.171441
     55 H                     0.201708
     56 H                     0.164122
     57 H                     0.192916
     58 H                     0.162774
     59 H                    -0.068152
     60 H                     0.257110
     61 H                     0.181999
     62 H                     0.141618
     63 C                    -0.745605
     64 C                    -0.485922
     65 H                     0.281063
     66 H                     0.203008
     67 H                     0.337330
     68 H                     0.220395
     69 H                     0.175404
     70 H                     0.323585
  ----------------------------------------
  Sum of atomic charges =     0.000000

 -----------------------------------------------------------------
                    Cartesian Multipole Moments
 -----------------------------------------------------------------
    Charge (ESU x 10^10)
                 0.0000
    Dipole Moment (Debye)
         X      -3.4659      Y       1.1486      Z      -0.4952
       Tot       3.6847
    Quadrupole Moments (Debye-Ang)
        XX    -193.4766     XY      15.6931     YY    -192.1498
        XZ     -14.5615     YZ      10.2779     ZZ    -223.2586
    Octopole Moments (Debye-Ang^2)
       XXX       1.6141    XXY      35.8098    XYY       0.3384
       YYY     109.4147    XXZ     -20.4585    XYZ     -15.7604
       YYZ      13.9215    XZZ       2.6609    YZZ     -22.1640
       ZZZ      16.8477
    Hexadecapole Moments (Debye-Ang^3)
      XXXX   -4709.4575   XXXY     149.1677   XXYY   -1604.8290
      XYYY      -4.1215   YYYY   -4506.0340   XXXZ    -125.9178
      XXYZ      30.2253   XYYZ     -47.4927   YYYZ     108.0439
      XXZZ   -1434.6159   XYZZ      35.6054   YYZZ   -1365.2827
      XZZZ    -100.3329   YZZZ      72.2873   ZZZZ   -3529.9630
 -----------------------------------------------------------------
Archival summary:
1\1\vega03.cac.cornell.edu\SP\ProcedureUnspecified\BasisUnspecified\102436\jj585\MonApr214:29:392018MonApr214:29:392018\0\\#,ProcedureUnspecified,BasisUnspecified,\\0,1\O\C,1,1.43358\C,1,1.43646,2,98.0224\C,3,1.51218,1,111.091,2,-178.393,0\H,4,1.09134,3,111.033,1,-57.0184,0\H,4,1.09192,3,109.775,1,62.6469,0\H,4,1.09264,3,110.458,1,-177.522,0\H,6,1.3609,4,98.9135,3,-32.0517,0\C,8,1.09187,6,125.783,4,-123.181,0\H,9,1.09132,8,107.862,6,-62.3507,0\H,5,1.37782,4,104.357,3,21.1187,0\C,11,1.08851,5,122.915,4,126.085,0\C,2,1.513,1,109.807,3,-177.944,0\H,13,1.07,2,109.471,1,-64.7983,0\H,13,1.07,2,109.471,1,55.2018,0\H,13,1.07,2,109.471,1,175.202,0\H,15,1.35628,13,101.689,2,-24.678,0\C,17,1.09374,15,117.863,13,-132.478,0\H,14,1.4059,13,105.782,2,31.1773,0\C,19,1.09186,14,130.004,13,112.085,0\H,20,1.09096,19,108.033,14,78.3246,0\C,12,1.51456,11,105.218,5,72.3809,0\O,22,1.20804,12,123.816,11,-13.3842,0\H,23,1.21523,22,128.629,12,81.2576,0\C,24,1.09127,23,106.938,22,3.83998,0\H,25,1.08763,24,110.585,23,45.5128,0\H,25,1.09122,24,109.073,23,167.774,0\O,22,1.34543,12,112.521,11,169.467,0\O,25,1.43759,24,110.468,23,-70.7225,0\C,29,1.34543,25,116.484,24,-63.158,0\O,30,1.20804,29,123.598,25,1.88648,0\C,28,1.43759,22,116.484,12,179.042,0\H,32,1.08763,28,105.353,22,177.393,0\H,32,1.09122,28,110.39,22,57.5626,0\H,32,1.09127,28,110.468,22,-63.158,0\C,30,1.51456,29,112.521,25,179.042,0\H,36,1.08851,30,105.218,29,169.467,0\C,18,1.51731,17,105.237,15,-61.0176,0\O,38,1.20407,18,125.979,17,112.562,0\O,38,1.35176,18,110.223,17,-63.8664,0\C,40,1.43854,38,116.158,18,-178.482,0\H,41,1.08777,40,105.482,38,177.492,0\H,41,1.09107,40,110.6,38,-62.8398,0\H,41,1.09137,40,110.239,38,57.9539,0\C,2,1.54115,1,102.483,3,57.1986,0\H,45,1.09096,2,110.128,1,81.1589,0\H,45,1.09186,2,112.95,1,-157.962,0\C,20,1.54115,19,112.95,14,-43.7381,0\O,48,1.43358,20,102.483,19,-157.962,0\C,49,1.43646,48,98.0224,20,57.1986,0\C,50,1.51218,49,111.091,48,-178.393,0\H,51,1.09134,50,111.033,49,-57.0184,0\H,51,1.09192,50,109.775,49,62.6469,0\H,51,1.09264,50,110.458,49,-177.522,0\C,48,1.513,20,116.857,19,81.963,0\H,55,1.07,48,109.471,20,51.2997,0\H,55,1.07,48,109.471,20,171.3,0\H,55,1.07,48,109.471,20,-68.6999,0\C,2,1.54738,1,103.124,3,-55.9256,0\H,59,1.09374,2,111.197,1,147.786,0\C,59,1.51731,2,113.483,1,-93.8005,0\O,61,1.20407,59,125.979,2,-9.23641,0\O,61,1.35176,59,110.223,2,174.335,0\C,63,1.43854,61,116.158,59,-178.482,0\H,64,1.08777,63,105.482,61,177.492,0\H,64,1.09107,63,110.6,61,-62.8398,0\H,64,1.09137,63,110.239,61,57.9539,0\C,3,1.55466,1,102.371,2,-54.4128,0\H,68,1.09132,3,109.614,1,-87.4148,0\H,68,1.09187,3,112.355,1,152.676,0\\\@

 Total job time:  4555.00s(wall), 9069.04s(cpu) 
 Mon Apr  2 14:29:39 2018

        *************************************************************
        *                                                           *
        *  Thank you very much for using Q-Chem.  Have a nice day.  *
        *                                                           *
        *************************************************************


0 sent ACK to 0 
now end server 0 ... 
