r0167.ten.osc.edu 10.25.155
Q-Chem Developer Version! Running on 10.25.155.*
                  Welcome to Q-Chem
     A Quantum Leap Into The Future Of Chemistry


 Q-Chem 5.0, Q-Chem, Inc., Pleasanton, CA (2017)

 Yihan Shao,  Zhengting Gan,  E. Epifanovsky,  A. T. B. Gilbert,  M. Wormit,  
 J. Kussmann,  A. W. Lange,  A. Behn,  Jia Deng,  Xintian Feng,  D. Ghosh,  
 M. Goldey,  P. R. Horn,  L. D. Jacobson,  I. Kaliman,  T. Kus,  A. Landau,  
 Jie Liu,  E. I. Proynov,  R. M. Richard,  R. P. Steele,  E. J. Sundstrom,  
 H. L. Woodcock III,  P. M. Zimmerman,  D. Zuev,  B. Albrecht,  E. Alguire,  
 S. A. Baeppler,  Z. Benda,  Y. A. Bernard,  E. J. Berquist,  K. B. Bravaya,  
 D. Casanova,  Chun-Min Chang,  Yunqing Chen,  A. Chien,  K. D. Closser,  
 M. P. Coons,  S. Dasgupta,  M. Diedenhofen,  Hainam Do,  R. G. Edgar,  
 Po-Tung Fang,  S. Fatehi,  Qingguo Feng,  Qinghui Ge,  A. Ghysels,  
 J. Gomes,  J. Gonthier,  A. Gunina,  M. W. D. Hanson-Heine,  
 P. H. P. Harbach,  A. W. Hauser,  J. E. Herr,  E. G. Hohenstein,  
 Z. C. Holden,  Kerwin Hui,  T.-C. Jagau,  Hyunjun Ji,  B. Kaduk,  
 K. Khistyaev,  Jaehoon Kim,  P. Klunzinger,  K. Koh,  D. Kosenkov,  
 T. Kowalczyk,  C. M. Krauter,  A. Kunitsa,  Ka Un Lao,  A. Laurent,  
 K. V. Lawler,  Joonho Lee,  D. Lefrancois,  S. Lehtola,  D. S. Levine,  
 Yi-Pei Li,  You-Sheng Lin,  Fenglai Liu,  E. Livshits,  A. Luenser,  
 P. Manohar,  E. Mansoor,  S. F. Manzer,  Shan-Ping Mao,  Yuezhi Mao,  
 N. Mardirossian,  A. V. Marenich,  L. A. Martinez-Martinez,  S. A. Maurer,  
 N. J. Mayhall,  S. C. McKenzie,  J.-M. Mewes,  A. F. Morrison,  K. Nanda,  
 T. S. Nguyen-Beck,  R. Olivares-Amaya,  J. A. Parkhill,  T. M. Perrine,  
 F. Plasser,  S. Prager,  A. Prociuk,  D. R. Rehn,  F. Rob,  M. Schneider,  
 N. Sergueev,  S. M. Sharada,  S. Sharma,  D. W. Small,  T. Stauch,  
 T. Stein,  Yu-Chuan Su,  A. J. W. Thom,  T. Tsuchimochi,  L. Vogt,  
 O. Vydrov,  M. A. Watson,  J. Wenzel,  M. de Wergifosse,  T. A. Wesolowski,  
 A. White,  J. Witte,  A. Yamada,  Jun Yang,  K. Yao,  S. Yeganeh,  
 S. R. Yost,  Zhi-Qiang You,  A. Zech,  Igor Ying Zhang,  Xing Zhang,  
 Yan Zhao,  Ying Zhu,  B. R. Brooks,  G. K. L. Chan,  C. J. Cramer,  
 M. S. Gordon,  W. J. Hehre,  A. Klamt,  M. W. Schmidt,  C. D. Sherrill,  
 D. G. Truhlar,  A. Aspuru-Guzik,  R. Baer,  A. T. Bell,  N. A. Besley,  
 Jeng-Da Chai,  A. Dreuw,  B. D. Dunietz,  T. R. Furlani,  Chao-Ping Hsu,  
 Yousung Jung,  Jing Kong,  D. S. Lambrecht,  WanZhen Liang,  C. Ochsenfeld,  
 V. A. Rassolov,  L. V. Slipchenko,  J. E. Subotnik,  T. Van Voorhis,  
 J. M. Herbert,  A. I. Krylov,  P. M. W. Gill,  M. Head-Gordon

 Contributors to earlier versions of Q-Chem not listed above: 
 R. D. Adamson,  B. Austin,  J. Baker,  G. J. O. Beran,  K. Brandhorst,  
 S. T. Brown,  E. F. C. Byrd,  A. K. Chakraborty,  C.-L. Cheng,  
 Siu Hung Chien,  D. M. Chipman,  D. L. Crittenden,  H. Dachsel,  
 R. A. DiStasio Jr.,  R. J. Doerksen,  A. D. Dutoi,  L. Fusti-Molnar,  
 W. A. Goddard III,  A. Golubeva-Zadorozhnaya,  S. R. Gwaltney,  G. Hawkins,  
 A. Heyden,  S. Hirata,  G. Kedziora,  F. J. Keil,  C. Kelley,  Jihan Kim,  
 R. A. King,  R. Z. Khaliullin,  P. P. Korambath,  W. Kurlancheek,  
 A. M. Lee,  M. S. Lee,  S. V. Levchenko,  Ching Yeh Lin,  D. Liotard,  
 R. C. Lochan,  I. Lotan,  P. E. Maslen,  N. Nair,  D. P. O'Neill,  
 D. Neuhauser,  E. Neuscamman,  C. M. Oana,  R. Olson,  B. Peters,  
 R. Peverati,  P. A. Pieniazek,  Y. M. Rhee,  J. Ritchie,  M. A. Rohrdanz,  
 E. Rosta,  N. J. Russ,  H. F. Schaefer III,  N. E. Schultz,  N. Shenvi,  
 A. C. Simmonett,  A. Sodt,  D. Stuck,  K. S. Thanthiriwatte,  V. Vanovschi,  
 Tao Wang,  A. Warshel,  C. F. Williams,  Q. Wu,  X. Xu,  W. Zhang

 Please cite Q-Chem as follows:
 Y. Shao et al., Mol. Phys. 113, 184-215 (2015)
 DOI: 10.1080/00268976.2014.952696

 Q-Chem 5.0.1 for Intel X86 EM64T Linux

 Parts of Q-Chem use Armadillo 5.200.1 (Boston Tea Smuggler).
 http://arma.sourceforge.net/

 Q-Chem begins on Tue Oct 24 10:21:25 2017  

Host: r0167.ten.osc.edu
0

     Scratch files written to /tmp/pbstmp.1324399/00//
Processing $rem in /users/PAS0291/osu6415/.qchemrc.
molden_format             true

Checking the input file for inconsistencies... 	...done.

--------------------------------------------------------------
User input:
--------------------------------------------------------------
$molecule
0 1
C -0.64602290 -0.04680820 -0.71869524
C 0.91983313 0.11722101 -0.63723346
C -1.44274026 1.09423705 -0.12578924
C 1.34825694 1.32240628 0.18700440
O -2.15815310 1.72385026 -1.07828772
O -1.46404516 1.41032005 1.04042089
O 1.01383107 2.44978261 -0.48602318
O 1.89579785 1.33402853 1.25760192
C 1.21899795 3.68602842 0.22119119
C -2.99595842 2.79952559 -0.62508832
C -0.83764451 -1.42399213 0.02431289
C -0.51590937 -2.52267772 -1.01086074
C 1.01859329 -2.33618361 -1.16328024
C 1.32343132 -1.27070646 -0.06915908
O 0.29128485 -1.50061420 0.90352936
H -0.95521056 -0.14215822 -1.75653858
H 1.32729813 0.27073338 -1.63635726
H 2.27279796 3.81532278 0.47162187
H -2.40387857 3.55990074 -0.11370702
H -0.75482867 -3.49957820 -0.58558608
H -1.07677376 -2.40780015 -1.93836552
H 1.55979852 -3.25828094 -0.94752645
H 1.32156529 -2.00017210 -2.15569260
H 0.88896937 4.46741058 -0.46020602
H 0.62422916 3.69246215 1.13599433
H -3.76052698 2.42203766 0.05666164
H -3.45459125 3.20889607 -1.52253867
C -2.10810084 -1.59470479 0.82939706
C 2.68760821 -1.39872056 0.57850003
O 3.64461256 -0.97516215 -0.38251225
H 2.85719898 -2.44909645 0.85669892
H 2.73504764 -0.77828768 1.47546280
C 4.95626250 -0.90720616 0.14495709
H 5.60744490 -0.55373681 -0.65508850
H 5.30514174 -1.89418634 0.48047145
H 5.00678215 -0.20751054 0.98964232
O -3.20133296 -1.33317117 -0.03762779
H -2.10423718 -0.89567607 1.67254102
H -2.15694074 -2.62019337 1.22185027
C -4.45054487 -1.36064423 0.62719139
H -5.21425928 -1.12585240 -0.11466740
H -4.48728561 -0.61663405 1.43459478
H -4.65647657 -2.35273639 1.05246798
$end

$rem
sym_ignore      true
jobtype         opt
method          b3lyp
basis           6-311++G(d,p)
dft_d           d3_op
mem_total       62000
MEM_STATIC      4000
ao2mo_disk      350000
max_scf_cycles  200
geom_opt_max_cycles 1000
geom_opt_tol_displacement 1
GEOM_OPT_TOL_GRADIENT       1
GEOM_OPT_TOL_ENERGY         1
$end

--------------------------------------------------------------
 Adding empirical dispersion correction 
 ----------------------------------------------------------------
 Doing -D3(op) with
 s6 =   1.00000
 s8 =   0.78311
 a1 =   0.30000
 a2 =   4.25000
 n  =  10.00000
 -D3 energy without 3body term =     -0.0506269417 hartrees
 ----------------------------------------------------------------
             Standard Nuclear Orientation (Angstroms)
    I     Atom           X                Y                Z
 ----------------------------------------------------------------
    1      C      -0.6460229000    -0.0468082000    -0.7186952400
    2      C       0.9198331300     0.1172210100    -0.6372334600
    3      C      -1.4427402600     1.0942370500    -0.1257892400
    4      C       1.3482569400     1.3224062800     0.1870044000
    5      O      -2.1581531000     1.7238502600    -1.0782877200
    6      O      -1.4640451600     1.4103200500     1.0404208900
    7      O       1.0138310700     2.4497826100    -0.4860231800
    8      O       1.8957978500     1.3340285300     1.2576019200
    9      C       1.2189979500     3.6860284200     0.2211911900
   10      C      -2.9959584200     2.7995255900    -0.6250883200
   11      C      -0.8376445100    -1.4239921300     0.0243128900
   12      C      -0.5159093700    -2.5226777200    -1.0108607400
   13      C       1.0185932900    -2.3361836100    -1.1632802400
   14      C       1.3234313200    -1.2707064600    -0.0691590800
   15      O       0.2912848500    -1.5006142000     0.9035293600
   16      H      -0.9552105600    -0.1421582200    -1.7565385800
   17      H       1.3272981300     0.2707333800    -1.6363572600
   18      H       2.2727979600     3.8153227800     0.4716218700
   19      H      -2.4038785700     3.5599007400    -0.1137070200
   20      H      -0.7548286700    -3.4995782000    -0.5855860800
   21      H      -1.0767737600    -2.4078001500    -1.9383655200
   22      H       1.5597985200    -3.2582809400    -0.9475264500
   23      H       1.3215652900    -2.0001721000    -2.1556926000
   24      H       0.8889693700     4.4674105800    -0.4602060200
   25      H       0.6242291600     3.6924621500     1.1359943300
   26      H      -3.7605269800     2.4220376600     0.0566616400
   27      H      -3.4545912500     3.2088960700    -1.5225386700
   28      C      -2.1081008400    -1.5947047900     0.8293970600
   29      C       2.6876082100    -1.3987205600     0.5785000300
   30      O       3.6446125600    -0.9751621500    -0.3825122500
   31      H       2.8571989800    -2.4490964500     0.8566989200
   32      H       2.7350476400    -0.7782876800     1.4754628000
   33      C       4.9562625000    -0.9072061600     0.1449570900
   34      H       5.6074449000    -0.5537368100    -0.6550885000
   35      H       5.3051417400    -1.8941863400     0.4804714500
   36      H       5.0067821500    -0.2075105400     0.9896423200
   37      O      -3.2013329600    -1.3331711700    -0.0376277900
   38      H      -2.1042371800    -0.8956760700     1.6725410200
   39      H      -2.1569407400    -2.6201933700     1.2218502700
   40      C      -4.4505448700    -1.3606442300     0.6271913900
   41      H      -5.2142592800    -1.1258524000    -0.1146674000
   42      H      -4.4872856100    -0.6166340500     1.4345947800
   43      H      -4.6564765700    -2.3527363900     1.0524679800
 ----------------------------------------------------------------
 Nuclear Repulsion Energy =  1977.9717262555 hartrees
 There are       81 alpha and       81 beta electrons
 Requested basis set is 6-311++G(d,p)
 There are 236 shells and 616 basis functions

 Total QAlloc Memory Limit  62000 MB
 Mega-Array Size      3911 MB
 MEM_STATIC part      4000 MB
 A cutoff of  1.0D-11 yielded  21143 shell pairs
 There are    145924 function pairs (    155239 Cartesian)
 
 -------------------------------------------------------
 OpenMP Integral Computing Module                       
 Release: version 1.0, May 2013, Q-Chem Inc. Pittsburgh 
 -------------------------------------------------------
 Integral Job Info:
 Integral job number is                      11
 Integral operator is                         1
 short-range coefficients                     0
 long-range coefficients              100000000
 Omega coefficients                           0
 if combine SR and LR in K                    0
 Integral screening is                        0
 Integral computing path is                   2
 max size of driver memory is            800000
 size of driver memory is                593474
 size of scratch memory is              2361544
 max col of scratch BK array               1296
 max len of scratch array in speh3          155
 max len of scratch index in speh4           18
 max int batch size is                      520
 min int batch size is                       52
 fixed nKL is                                52
 max L of basis functions is                  2
 order of int derivative is                   0
 number of shells is                        236
 number of basis is                         637
 number of cartesian basis is               637
 number of contracted shell pairs         21143
 number of primitive shell pairs          45448
 maxK2 (contraction) of shell pair           36
 max number of K2 of shell pair               1
 max number of CS2 of shell pair           4158
 max number of PS2 of shell pair           6804
 mem total for path MDJ                  257912
 -------------------------------------------------------
 Smallest overlap matrix eigenvalue = 2.45E-07

 Q-Chem warning in module /fs/scratch/osu6415/qchem-kaunlao-vdw/stvman/mkSTV.C, line 281:

 Overlap eigenvalue is smaller than square root of threshold

 Linear dependence detected in AO basis
 Number of orthogonalized atomic orbitals = 614
 Maximum deviation from orthogonality = 2.930E-10

 Scale SEOQF with 1.000000e-02/1.000000e-01/1.000000e-01

 Standard Electronic Orientation quadrupole field applied
 Nucleus-field energy     =     0.0000000323 hartrees
 Guess from superposition of atomic densities
 Warning:  Energy on first SCF cycle will be non-variational
 A restricted hybrid HF-DFT SCF calculation will be
 performed using Pulay DIIS extrapolation
 Exchange:     0.2000 Hartree-Fock + 0.0800 Slater + 0.7200 B88
 Correlation:  0.1900 VWN1RPA + 0.8100 LYP
 Using SG-1 standard quadrature grid
 Dispersion:   Grimme D3
 SCF converges when DIIS error is below 1.0E-08
 using 20 threads for integral computing
 -------------------------------------------------------
 OpenMP Integral computing Module                
 Release: version 1.0, May 2013, Q-Chem Inc. Pittsburgh 
 -------------------------------------------------------
 -------------------------------------------------------
 OpenMP BLAS3 based DFT computing Module                
 Release: version 1.0, May 2013, Q-Chem Inc. Pittsburgh 
 -------------------------------------------------------
 ---------------------------------------
  Cycle       Energy         DIIS Error
 ---------------------------------------
    1   -1077.8049864043      2.54E-02
    2   -1073.2689144674      3.06E-03
    3   -1072.7458646744      4.99E-03
    4   -1073.5793574704      1.20E-03
    5   -1073.6296678811      3.47E-04
    6   -1073.6331942335      1.29E-04
    7   -1073.6337476111      2.91E-05
    8   -1073.6337761299      8.86E-06
    9   -1073.6337791020      2.27E-06
   10   -1073.6337792384      1.25E-06
   11   -1073.6337792891      3.17E-07
   12   -1073.6337792919      1.07E-07
   13   -1073.6337792908      2.89E-08
   14   -1073.6337793029      1.13E-08
   15   -1073.6337792978      3.68E-09 Convergence criterion met
 ---------------------------------------
 SCF time:  CPU 2034.06 s  wall 127.77 s
 SCF   energy in the final basis set = -1073.63377930
 Total energy in the final basis set = -1073.63377930
 
 --------------------------------------------------------------
 
                    Orbital Energies (a.u.)
 --------------------------------------------------------------
 
 Alpha MOs
 -- Occupied --
-19.171 -19.167 -19.135 -19.131 -19.128 -19.113 -19.112 -10.304
-10.302 -10.240 -10.237 -10.228 -10.223 -10.219 -10.218 -10.212
-10.212 -10.202 -10.200 -10.174 -10.174  -1.114  -1.108  -1.067
 -1.045  -1.038  -1.025  -1.023  -0.829  -0.802  -0.781  -0.747
 -0.738  -0.723  -0.696  -0.659  -0.651  -0.633  -0.602  -0.577
 -0.558  -0.555  -0.529  -0.513  -0.511  -0.501  -0.491  -0.486
 -0.483  -0.481  -0.479  -0.474  -0.471  -0.461  -0.455  -0.454
 -0.428  -0.423  -0.419  -0.418  -0.411  -0.398  -0.392  -0.389
 -0.368  -0.367  -0.360  -0.355  -0.353  -0.352  -0.342  -0.329
 -0.327  -0.322  -0.313  -0.310  -0.288  -0.277  -0.274  -0.269
 -0.261
 -- Virtual --
 -0.013  -0.010  -0.004  -0.002   0.004   0.010   0.011   0.013
  0.023   0.027   0.028   0.030   0.035   0.038   0.042   0.044
  0.045   0.051   0.053   0.058   0.062   0.064   0.071   0.072
  0.076   0.078   0.087   0.089   0.096   0.097   0.101   0.105
  0.107   0.113   0.113   0.116   0.117   0.120   0.121   0.124
  0.125   0.128   0.133   0.134   0.136   0.138   0.140   0.141
  0.142   0.145   0.147   0.149   0.151   0.156   0.157   0.159
  0.160   0.163   0.166   0.168   0.170   0.173   0.176   0.178
  0.180   0.187   0.189   0.191   0.193   0.196   0.198   0.203
  0.205   0.207   0.209   0.212   0.214   0.220   0.226   0.227
  0.228   0.230   0.233   0.235   0.242   0.251   0.255   0.257
  0.259   0.262   0.264   0.267   0.270   0.276   0.280   0.281
  0.285   0.289   0.293   0.297   0.297   0.299   0.308   0.310
  0.311   0.314   0.315   0.321   0.328   0.331   0.332   0.334
  0.340   0.343   0.345   0.353   0.355   0.362   0.363   0.370
  0.374   0.376   0.376   0.382   0.385   0.389   0.391   0.393
  0.396   0.407   0.411   0.415   0.420   0.430   0.432   0.435
  0.439   0.448   0.451   0.463   0.470   0.473   0.480   0.482
  0.487   0.497   0.503   0.508   0.509   0.517   0.522   0.526
  0.529   0.536   0.546   0.548   0.558   0.563   0.576   0.580
  0.585   0.594   0.596   0.600   0.608   0.613   0.617   0.623
  0.624   0.636   0.647   0.654   0.656   0.660   0.664   0.671
  0.676   0.680   0.682   0.683   0.689   0.691   0.696   0.699
  0.708   0.711   0.718   0.723   0.733   0.739   0.743   0.745
  0.751   0.754   0.758   0.763   0.767   0.768   0.779   0.784
  0.790   0.796   0.801   0.809   0.812   0.823   0.844   0.855
  0.858   0.878   0.887   0.905   0.916   0.929   0.967   0.982
  0.995   1.010   1.030   1.037   1.050   1.060   1.064   1.074
  1.082   1.090   1.094   1.098   1.106   1.112   1.138   1.144
  1.158   1.168   1.178   1.185   1.203   1.206   1.213   1.221
  1.231   1.238   1.251   1.264   1.274   1.283   1.289   1.302
  1.311   1.319   1.324   1.347   1.355   1.360   1.365   1.387
  1.391   1.402   1.408   1.416   1.420   1.432   1.437   1.445
  1.449   1.454   1.466   1.477   1.480   1.491   1.494   1.512
  1.523   1.539   1.545   1.552   1.565   1.568   1.572   1.576
  1.580   1.581   1.583   1.591   1.599   1.604   1.607   1.616
  1.626   1.631   1.641   1.648   1.654   1.658   1.667   1.681
  1.686   1.696   1.706   1.711   1.713   1.717   1.731   1.737
  1.739   1.740   1.751   1.758   1.763   1.779   1.783   1.792
  1.798   1.803   1.813   1.819   1.822   1.836   1.841   1.847
  1.857   1.862   1.873   1.887   1.905   1.916   1.923   1.932
  1.949   1.960   1.964   1.978   2.005   2.010   2.013   2.023
  2.048   2.053   2.074   2.084   2.089   2.104   2.111   2.122
  2.128   2.136   2.146   2.148   2.154   2.164   2.168   2.192
  2.196   2.207   2.215   2.229   2.230   2.251   2.257   2.282
  2.301   2.326   2.354   2.363   2.379   2.385   2.429   2.437
  2.443   2.451   2.457   2.469   2.477   2.504   2.508   2.511
  2.517   2.518   2.521   2.528   2.534   2.542   2.548   2.551
  2.559   2.567   2.577   2.593   2.599   2.607   2.613   2.620
  2.647   2.665   2.677   2.688   2.691   2.704   2.722   2.733
  2.736   2.770   2.778   2.823   2.834   2.841   2.848   2.862
  2.876   2.880   2.887   2.894   2.901   2.909   2.922   2.933
  2.963   2.970   2.978   2.997   3.013   3.031   3.036   3.046
  3.056   3.059   3.067   3.072   3.089   3.105   3.108   3.119
  3.126   3.136   3.156   3.165   3.177   3.182   3.192   3.205
  3.213   3.229   3.247   3.253   3.271   3.276   3.291   3.296
  3.320   3.347   3.385   3.408   3.423   3.426   3.440   3.560
  3.605   3.612   3.676   3.686   3.705   3.748   3.777   3.783
  3.789   3.798   3.809   3.814   3.834   3.846   3.855   3.867
  3.963   3.986   4.044   4.074   4.096   4.098   4.116   4.133
  4.137   4.145   4.160   4.170   4.185   4.191   4.235   4.307
  4.321   4.457   4.508   5.069   5.103   5.126   5.145   5.181
  5.221   5.254   5.299   5.337   5.422   5.425   5.440   5.451
  5.528   5.632   5.648   5.669   5.709   5.748   5.895   5.920
 23.776  23.852  23.856  23.872  23.890  23.913  23.920  23.932
 23.938  23.944  23.951  23.977  23.983  24.042  49.921  49.928
 49.964  49.981  50.015  50.057  50.083
 --------------------------------------------------------------
 
          Ground-State Mulliken Net Atomic Charges

     Atom                 Charge (a.u.)
  ----------------------------------------
      1 C                     0.460462
      2 C                     0.318266
      3 C                    -1.150008
      4 C                    -0.564995
      5 O                     0.103396
      6 O                    -0.091555
      7 O                     0.005787
      8 O                    -0.156260
      9 C                    -0.203145
     10 C                    -0.183272
     11 C                    -0.786783
     12 C                    -0.216022
     13 C                    -0.435925
     14 C                    -0.764906
     15 O                     0.102172
     16 H                     0.313574
     17 H                     0.306746
     18 H                     0.176625
     19 H                     0.159239
     20 H                     0.171068
     21 H                     0.170971
     22 H                     0.171371
     23 H                     0.170381
     24 H                     0.146218
     25 H                     0.200665
     26 H                     0.165757
     27 H                     0.154990
     28 C                     0.031246
     29 C                     0.120405
     30 O                    -0.033740
     31 H                     0.147778
     32 H                     0.229680
     33 C                    -0.229495
     34 H                     0.141634
     35 H                     0.132572
     36 H                     0.141137
     37 O                    -0.022172
     38 H                     0.248823
     39 H                     0.162393
     40 C                    -0.236543
     41 H                     0.145274
     42 H                     0.139812
     43 H                     0.136375
  ----------------------------------------
  Sum of atomic charges =     0.000000

 -----------------------------------------------------------------
                    Cartesian Multipole Moments
 -----------------------------------------------------------------
    Charge (ESU x 10^10)
                 0.0000
    Dipole Moment (Debye)
         X      -1.2671      Y       0.2991      Z      -1.7476
       Tot       2.1792
    Quadrupole Moments (Debye-Ang)
        XX    -109.9562     XY      -2.5491     YY    -111.7307
        XZ      -1.7563     YZ      -3.1938     ZZ    -132.6526
    Octopole Moments (Debye-Ang^2)
       XXX     -18.8356    XXY       7.6945    XYY      -9.6018
       YYY      66.3630    XXZ      19.9105    XYZ       5.6340
       YYZ       2.0292    XZZ      -6.4646    YZZ      -1.0239
       ZZZ      -3.5292
    Hexadecapole Moments (Debye-Ang^3)
      XXXX   -4034.2894   XXXY      41.8833   XXYY   -1131.0148
      XYYY      83.5791   YYYY   -2477.5101   XXXZ     -16.3721
      XXYZ     -69.0771   XYYZ       9.8031   YYYZ     -21.8996
      XXZZ    -877.3762   XYZZ      32.7724   YYZZ    -576.3427
      XZZZ     -19.3209   YZZZ     -11.6067   ZZZZ    -605.5919
 -----------------------------------------------------------------
 Calculating analytic gradient of the SCF energy
 Gradient of SCF Energy
            1           2           3           4           5           6
    1  -0.0000854  -0.0000786   0.0001890   0.0003246  -0.0000067  -0.0001223
    2  -0.0002525   0.0001606   0.0001908  -0.0000398   0.0000111  -0.0001053
    3   0.0002911  -0.0002057  -0.0000591  -0.0000878   0.0000112  -0.0000063
            7           8           9          10          11          12
    1   0.0000198  -0.0002263  -0.0000039   0.0000130  -0.0000015  -0.0000395
    2   0.0000089  -0.0000010  -0.0000133  -0.0000122   0.0000541  -0.0000090
    3  -0.0000003   0.0000788  -0.0000047  -0.0000073  -0.0000419   0.0000272
           13          14          15          16          17          18
    1   0.0000285   0.0000106  -0.0000018   0.0000026  -0.0000109   0.0000022
    2  -0.0000059   0.0000522  -0.0000276   0.0000029  -0.0000052   0.0000015
    3   0.0000211  -0.0000408   0.0000447   0.0000053  -0.0000013  -0.0000059
           19          20          21          22          23          24
    1  -0.0000009  -0.0000073   0.0000054  -0.0000004  -0.0000071  -0.0000008
    2   0.0000012   0.0000013  -0.0000023   0.0000030  -0.0000126  -0.0000011
    3   0.0000001  -0.0000111  -0.0000038  -0.0000049  -0.0000058  -0.0000022
           25          26          27          28          29          30
    1   0.0000056  -0.0000001   0.0000020  -0.0000013   0.0000047  -0.0000226
    2   0.0000005   0.0000028   0.0000017   0.0000093   0.0000278  -0.0000138
    3  -0.0000016  -0.0000014  -0.0000013  -0.0000079  -0.0000233   0.0000087
           31          32          33          34          35          36
    1   0.0000054  -0.0000056   0.0000201  -0.0000061  -0.0000002  -0.0000046
    2  -0.0000063  -0.0000186   0.0000005   0.0000040  -0.0000042  -0.0000089
    3  -0.0000035   0.0000176   0.0000055   0.0000006  -0.0000086   0.0000019
           37          38          39          40          41          42
    1   0.0000182  -0.0000067   0.0000058  -0.0000246   0.0000034   0.0000029
    2  -0.0000229  -0.0000022   0.0000004   0.0000195   0.0000028   0.0000026
    3  -0.0000085   0.0000095   0.0000040   0.0000166   0.0000003   0.0000001
           43
    1   0.0000013
    2   0.0000052
    3   0.0000009
 Max gradient component =       3.246E-04
 RMS gradient           =       6.396E-05
 Gradient time:  CPU 684.27 s  wall 52.80 s
 Geometry Optimization Parameters
   NAtoms,    NIC,     NZ,  NCons,   NDum,   NFix, NCnnct, MaxDiis
       43     325       0       0       0       0       0       0


** GEOMETRY OPTIMIZATION IN DELOCALIZED INTERNAL COORDINATES **
   Searching for a Minimum

   Optimization Cycle:   1

                       Coordinates (Angstroms)
     ATOM                X               Y               Z
      1  C        -0.6460229000   -0.0468082000   -0.7186952400
      2  C         0.9198331300    0.1172210100   -0.6372334600
      3  C        -1.4427402600    1.0942370500   -0.1257892400
      4  C         1.3482569400    1.3224062800    0.1870044000
      5  O        -2.1581531000    1.7238502600   -1.0782877200
      6  O        -1.4640451600    1.4103200500    1.0404208900
      7  O         1.0138310700    2.4497826100   -0.4860231800
      8  O         1.8957978500    1.3340285300    1.2576019200
      9  C         1.2189979500    3.6860284200    0.2211911900
     10  C        -2.9959584200    2.7995255900   -0.6250883200
     11  C        -0.8376445100   -1.4239921300    0.0243128900
     12  C        -0.5159093700   -2.5226777200   -1.0108607400
     13  C         1.0185932900   -2.3361836100   -1.1632802400
     14  C         1.3234313200   -1.2707064600   -0.0691590800
     15  O         0.2912848500   -1.5006142000    0.9035293600
     16  H        -0.9552105600   -0.1421582200   -1.7565385800
     17  H         1.3272981300    0.2707333800   -1.6363572600
     18  H         2.2727979600    3.8153227800    0.4716218700
     19  H        -2.4038785700    3.5599007400   -0.1137070200
     20  H        -0.7548286700   -3.4995782000   -0.5855860800
     21  H        -1.0767737600   -2.4078001500   -1.9383655200
     22  H         1.5597985200   -3.2582809400   -0.9475264500
     23  H         1.3215652900   -2.0001721000   -2.1556926000
     24  H         0.8889693700    4.4674105800   -0.4602060200
     25  H         0.6242291600    3.6924621500    1.1359943300
     26  H        -3.7605269800    2.4220376600    0.0566616400
     27  H        -3.4545912500    3.2088960700   -1.5225386700
     28  C        -2.1081008400   -1.5947047900    0.8293970600
     29  C         2.6876082100   -1.3987205600    0.5785000300
     30  O         3.6446125600   -0.9751621500   -0.3825122500
     31  H         2.8571989800   -2.4490964500    0.8566989200
     32  H         2.7350476400   -0.7782876800    1.4754628000
     33  C         4.9562625000   -0.9072061600    0.1449570900
     34  H         5.6074449000   -0.5537368100   -0.6550885000
     35  H         5.3051417400   -1.8941863400    0.4804714500
     36  H         5.0067821500   -0.2075105400    0.9896423200
     37  O        -3.2013329600   -1.3331711700   -0.0376277900
     38  H        -2.1042371800   -0.8956760700    1.6725410200
     39  H        -2.1569407400   -2.6201933700    1.2218502700
     40  C        -4.4505448700   -1.3606442300    0.6271913900
     41  H        -5.2142592800   -1.1258524000   -0.1146674000
     42  H        -4.4872856100   -0.6166340500    1.4345947800
     43  H        -4.6564765700   -2.3527363900    1.0524679800
   Point Group: c1    Number of degrees of freedom:   123


   Energy is  -1073.633779298


 Attempting to Generate Delocalized Internal Coordinates

122 Hessian modes will be used to form the next step
  Hessian Eigenvalues:
     0.003061    0.006316    0.007123    0.007125    0.007363    0.007498
     0.009789    0.010494    0.010778    0.011120    0.012888    0.013052
     0.013612    0.013612    0.021610    0.022604    0.023583    0.026388
     0.035588    0.036328    0.038190    0.039812    0.044598    0.046542
     0.048492    0.050377    0.053911    0.055962    0.056180    0.056470
     0.057402    0.061759    0.061956    0.063237    0.064923    0.065890
     0.079946    0.086245    0.095186    0.099709    0.100590    0.100637
     0.101278    0.101554    0.104991    0.104991    0.105983    0.106173
     0.109224    0.109738    0.110003    0.120772    0.122992    0.135280
     0.135758    0.150806    0.160000    0.160000    0.160000    0.160000
     0.160000    0.160000    0.160000    0.160000    0.160000    0.160000
     0.160000    0.176541    0.220059    0.220129    0.230019    0.232666
     0.249987    0.250000    0.250000    0.250000    0.250000    0.250000
     0.250000    0.250000    0.250513    0.253433    0.265477    0.276909
     0.302092    0.308013    0.309791    0.310800    0.336730    0.337100
     0.337619    0.337813    0.338074    0.338435    0.339035    0.342142
     0.345924    0.346150    0.346211    0.346776    0.346995    0.347160
     0.347271    0.347344    0.347622    0.347787    0.348163    0.348263
     0.348542    0.350429    0.350662    0.351488    0.397311    0.400281
     0.423332    0.425194    0.431655    0.431656    0.539896    0.555787
     1.006781    1.035545

 Minimum Search - Taking Simple RFO Step
 Searching for Lamda that Minimizes Along All modes
 Value Taken    Lamda =  -0.00001123
 Step Taken.  Stepsize is  0.037853

                             Maximum     Tolerance    Cnvgd?
         Gradient           0.000161      0.000001      NO
         Displacement       0.020924      0.000001      NO
         Energy change     *********      0.000000      NO


 New Cartesian Coordinates Obtained by Inverse Iteration

 Displacement from previous Coordinates is:  0.053882
 Adding empirical dispersion correction 
 ----------------------------------------------------------------
 Doing -D3(op) with
 s6 =   1.00000
 s8 =   0.78311
 a1 =   0.30000
 a2 =   4.25000
 n  =  10.00000
 -D3 energy without 3body term =     -0.0506275827 hartrees
 ----------------------------------------------------------------
             Standard Nuclear Orientation (Angstroms)
    I     Atom           X                Y                Z
 ----------------------------------------------------------------
    1      C      -0.6462887535    -0.0465616877    -0.7191568471
    2      C       0.9195131790     0.1172251131    -0.6367531975
    3      C      -1.4431171299     1.0941320497    -0.1257387832
    4      C       1.3477416613     1.3228678943     0.1869388108
    5      O      -2.1616110948     1.7217008754    -1.0772728501
    6      O      -1.4568145860     1.4158531749     1.0390600279
    7      O       1.0064728947     2.4499073035    -0.4832145624
    8      O       1.9094760406     1.3350408298     1.2501703161
    9      C       1.2171586829     3.6863967843     0.2219807756
   10      C      -2.9961660676     2.7998805803    -0.6239606928
   11      C      -0.8378832656    -1.4238400987     0.0239763659
   12      C      -0.5156703529    -2.5225728805    -1.0110096162
   13      C       1.0188235129    -2.3360519470    -1.1628755889
   14      C       1.3232400803    -1.2706184303    -0.0686138806
   15      O       0.2907061770    -1.5003153323     0.9036307895
   16      H      -0.9555498505    -0.1420649854    -1.7569735788
   17      H       1.3268159601     0.2708977388    -1.6359247146
   18      H       2.2729990145     3.8161385991     0.4634299036
   19      H      -2.4009433407     3.5611611697    -0.1175959884
   20      H      -0.7546206550    -3.4994239731    -0.5856191905
   21      H      -1.0763034358    -2.4078547322    -1.9386729406
   22      H       1.5599485568    -3.2581572567    -0.9469229608
   23      H       1.3222148444    -1.9999206283    -2.1551174713
   24      H       0.8810540050     4.4675173534    -0.4567396696
   25      H       0.6301798386     3.6927727340     1.1418042644
   26      H      -3.7582480671     2.4255385838     0.0622923987
   27      H      -3.4581514035     3.2069219750    -1.5207500547
   28      C      -2.1086114528    -1.5946673937     0.8286122360
   29      C       2.6872135003    -1.3984479417     0.5795215678
   30      O       3.6446927799    -0.9768930017    -0.3819319767
   31      H       2.8561577680    -2.4485034098     0.8592890291
   32      H       2.7348156710    -0.7766565405     1.4755262703
   33      C       4.9561817020    -0.9085811240     0.1458539226
   34      H       5.6079998566    -0.5578828118    -0.6548977615
   35      H       5.3041051008    -1.8949213824     0.4842364433
   36      H       5.0069854417    -0.2066015033     0.9886286944
   37      O      -3.2015840816    -1.3330719918    -0.0387314240
   38      H      -2.1050302215    -0.8957183869     1.6718160316
   39      H      -2.1575701775    -2.6202069621     1.2209091534
   40      C      -4.4510849540    -1.3620671991     0.6254340555
   41      H      -5.2146249728    -1.1271150476    -0.1165577137
   42      H      -4.4887708462    -0.6188543309     1.4335314446
   43      H      -4.6565296091    -2.3547097096     1.0496712030
 ----------------------------------------------------------------
 Nuclear Repulsion Energy =  1977.9913251934 hartrees
 There are       81 alpha and       81 beta electrons
 Applying Cartesian multipole field
    Component          Value
    ---------          -----
     (2,0,0)        1.00000E-12
     (0,2,0)        2.00000E-11
     (0,0,2)       -3.00000E-11
 Nucleus-field energy     =     0.0000000323 hartrees
 Requested basis set is 6-311++G(d,p)
 There are 236 shells and 616 basis functions
 A cutoff of  1.0D-11 yielded  21141 shell pairs
 There are    145904 function pairs (    155219 Cartesian)
 Smallest overlap matrix eigenvalue = 2.46E-07

 Q-Chem warning in module /fs/scratch/osu6415/qchem-kaunlao-vdw/stvman/mkSTV.C, line 281:

 Overlap eigenvalue is smaller than square root of threshold

 Linear dependence detected in AO basis
 Number of orthogonalized atomic orbitals = 614
 Maximum deviation from orthogonality = 1.829E-10
 Guess MOs from SCF MO coefficient file
 Reading MOs from coefficient file
 Reading MOs from coefficient file
 A restricted hybrid HF-DFT SCF calculation will be
 performed using Pulay DIIS extrapolation
 Exchange:     0.2000 Hartree-Fock + 0.0800 Slater + 0.7200 B88
 Correlation:  0.1900 VWN1RPA + 0.8100 LYP
 Using SG-1 standard quadrature grid
 Dispersion:   Grimme D3
 SCF converges when DIIS error is below 1.0E-08
 Geometry optimization detected.  Setting ReadMinima to 0
 Setting SaveMinima to 0
 using 20 threads for integral computing
 -------------------------------------------------------
 OpenMP Integral computing Module                
 Release: version 1.0, May 2013, Q-Chem Inc. Pittsburgh 
 -------------------------------------------------------
 -------------------------------------------------------
 OpenMP BLAS3 based DFT computing Module                
 Release: version 1.0, May 2013, Q-Chem Inc. Pittsburgh 
 -------------------------------------------------------
 ---------------------------------------
  Cycle       Energy         DIIS Error
 ---------------------------------------
    1   -1073.6336127549      1.07E-04
    2   -1073.6337773400      6.26E-06
    3   -1073.6337799060      5.34E-06
    4   -1073.6337805379      3.33E-06
    5   -1073.6337808830      9.71E-07
    6   -1073.6337809080      5.10E-07
    7   -1073.6337809182      1.30E-07
    8   -1073.6337809200      4.18E-08
    9   -1073.6337809202      1.74E-08
   10   -1073.6337809283      6.95E-09 Convergence criterion met
 ---------------------------------------
 SCF time:  CPU 1311.52 s  wall 83.74 s
 SCF   energy in the final basis set = -1073.63378093
 Total energy in the final basis set = -1073.63378093
 
 --------------------------------------------------------------
 
                    Orbital Energies (a.u.)
 --------------------------------------------------------------
 
 Alpha MOs
 -- Occupied --
-19.171 -19.167 -19.135 -19.131 -19.128 -19.113 -19.112 -10.304
-10.302 -10.240 -10.237 -10.228 -10.223 -10.220 -10.218 -10.212
-10.212 -10.202 -10.200 -10.174 -10.174  -1.114  -1.108  -1.067
 -1.045  -1.038  -1.025  -1.023  -0.829  -0.802  -0.781  -0.747
 -0.738  -0.722  -0.696  -0.659  -0.651  -0.633  -0.601  -0.577
 -0.558  -0.555  -0.529  -0.513  -0.511  -0.501  -0.491  -0.486
 -0.483  -0.481  -0.479  -0.474  -0.471  -0.461  -0.455  -0.454
 -0.427  -0.423  -0.419  -0.418  -0.411  -0.398  -0.392  -0.389
 -0.368  -0.367  -0.360  -0.355  -0.353  -0.352  -0.342  -0.329
 -0.327  -0.322  -0.312  -0.310  -0.288  -0.277  -0.274  -0.269
 -0.261
 -- Virtual --
 -0.013  -0.010  -0.004  -0.002   0.004   0.010   0.011   0.013
  0.023   0.027   0.028   0.030   0.035   0.038   0.042   0.044
  0.045   0.051   0.053   0.058   0.062   0.064   0.071   0.072
  0.076   0.078   0.087   0.089   0.096   0.097   0.101   0.105
  0.107   0.113   0.113   0.116   0.116   0.120   0.121   0.124
  0.125   0.128   0.133   0.134   0.136   0.138   0.140   0.141
  0.142   0.145   0.147   0.149   0.151   0.156   0.157   0.159
  0.160   0.163   0.166   0.168   0.170   0.173   0.176   0.178
  0.180   0.187   0.189   0.191   0.193   0.196   0.198   0.203
  0.205   0.207   0.209   0.212   0.214   0.220   0.226   0.227
  0.228   0.230   0.233   0.235   0.242   0.251   0.255   0.257
  0.259   0.262   0.264   0.267   0.270   0.276   0.280   0.281
  0.285   0.289   0.293   0.297   0.297   0.299   0.308   0.310
  0.311   0.314   0.315   0.321   0.328   0.331   0.332   0.334
  0.340   0.343   0.344   0.353   0.355   0.361   0.363   0.370
  0.374   0.376   0.376   0.382   0.385   0.390   0.391   0.393
  0.396   0.407   0.411   0.415   0.420   0.430   0.432   0.435
  0.439   0.447   0.450   0.463   0.470   0.473   0.480   0.482
  0.487   0.497   0.503   0.508   0.509   0.517   0.522   0.526
  0.529   0.536   0.546   0.548   0.558   0.563   0.577   0.580
  0.585   0.594   0.596   0.600   0.609   0.613   0.616   0.623
  0.624   0.636   0.647   0.655   0.656   0.660   0.664   0.671
  0.676   0.680   0.682   0.683   0.689   0.691   0.696   0.699
  0.708   0.711   0.718   0.723   0.733   0.739   0.743   0.745
  0.751   0.754   0.758   0.763   0.767   0.769   0.779   0.784
  0.790   0.796   0.801   0.809   0.812   0.823   0.844   0.855
  0.857   0.879   0.887   0.905   0.915   0.929   0.966   0.981
  0.994   1.010   1.030   1.037   1.050   1.060   1.064   1.075
  1.083   1.090   1.093   1.098   1.106   1.112   1.139   1.143
  1.158   1.168   1.178   1.185   1.204   1.207   1.214   1.221
  1.231   1.238   1.251   1.264   1.274   1.283   1.290   1.302
  1.311   1.319   1.324   1.347   1.355   1.360   1.364   1.387
  1.391   1.402   1.408   1.416   1.421   1.432   1.437   1.445
  1.449   1.454   1.466   1.478   1.480   1.491   1.493   1.512
  1.523   1.539   1.545   1.552   1.566   1.568   1.572   1.576
  1.580   1.581   1.583   1.592   1.599   1.604   1.607   1.616
  1.625   1.631   1.641   1.648   1.653   1.658   1.667   1.681
  1.686   1.696   1.706   1.711   1.713   1.717   1.731   1.737
  1.739   1.740   1.751   1.758   1.763   1.778   1.783   1.792
  1.798   1.803   1.813   1.819   1.822   1.836   1.841   1.846
  1.857   1.863   1.873   1.887   1.905   1.917   1.924   1.932
  1.949   1.960   1.964   1.978   2.005   2.010   2.013   2.022
  2.048   2.053   2.074   2.084   2.090   2.104   2.111   2.121
  2.128   2.136   2.146   2.148   2.154   2.164   2.169   2.192
  2.196   2.207   2.215   2.229   2.230   2.251   2.257   2.282
  2.301   2.326   2.354   2.363   2.379   2.385   2.429   2.437
  2.443   2.451   2.457   2.469   2.476   2.504   2.508   2.511
  2.517   2.519   2.521   2.528   2.534   2.542   2.548   2.551
  2.559   2.567   2.577   2.593   2.599   2.607   2.613   2.620
  2.647   2.664   2.677   2.689   2.691   2.704   2.722   2.733
  2.736   2.769   2.777   2.824   2.834   2.841   2.848   2.862
  2.876   2.880   2.888   2.895   2.901   2.909   2.923   2.934
  2.963   2.970   2.978   2.997   3.013   3.030   3.036   3.046
  3.056   3.059   3.068   3.072   3.089   3.105   3.108   3.119
  3.126   3.136   3.156   3.165   3.177   3.182   3.192   3.205
  3.213   3.230   3.247   3.253   3.271   3.276   3.291   3.296
  3.320   3.346   3.385   3.409   3.422   3.426   3.440   3.560
  3.605   3.612   3.676   3.687   3.704   3.748   3.777   3.783
  3.789   3.798   3.809   3.815   3.834   3.846   3.855   3.867
  3.963   3.986   4.044   4.074   4.096   4.098   4.116   4.133
  4.137   4.145   4.159   4.170   4.185   4.192   4.235   4.307
  4.321   4.456   4.508   5.069   5.103   5.127   5.145   5.181
  5.221   5.253   5.299   5.337   5.422   5.426   5.440   5.451
  5.528   5.632   5.648   5.669   5.709   5.748   5.895   5.920
 23.776  23.852  23.856  23.872  23.890  23.913  23.920  23.932
 23.938  23.944  23.951  23.976  23.983  24.042  49.921  49.928
 49.964  49.981  50.015  50.057  50.083
 --------------------------------------------------------------
 
          Ground-State Mulliken Net Atomic Charges

     Atom                 Charge (a.u.)
  ----------------------------------------
      1 C                     0.456567
      2 C                     0.316372
      3 C                    -1.138643
      4 C                    -0.567077
      5 O                     0.102570
      6 O                    -0.092757
      7 O                     0.003130
      8 O                    -0.157522
      9 C                    -0.203773
     10 C                    -0.182808
     11 C                    -0.790253
     12 C                    -0.217846
     13 C                    -0.433194
     14 C                    -0.757318
     15 O                     0.102235
     16 H                     0.313518
     17 H                     0.306257
     18 H                     0.176585
     19 H                     0.159077
     20 H                     0.170929
     21 H                     0.170965
     22 H                     0.171558
     23 H                     0.170508
     24 H                     0.146041
     25 H                     0.200603
     26 H                     0.165985
     27 H                     0.155042
     28 C                     0.035552
     29 C                     0.114906
     30 O                    -0.034041
     31 H                     0.147660
     32 H                     0.229892
     33 C                    -0.229601
     34 H                     0.141524
     35 H                     0.132465
     36 H                     0.141227
     37 O                    -0.022176
     38 H                     0.248133
     39 H                     0.162791
     40 C                    -0.236565
     41 H                     0.145419
     42 H                     0.139692
     43 H                     0.136375
  ----------------------------------------
  Sum of atomic charges =     0.000000

 -----------------------------------------------------------------
                    Cartesian Multipole Moments
 -----------------------------------------------------------------
    Charge (ESU x 10^10)
                 0.0000
    Dipole Moment (Debye)
         X      -1.2936      Y       0.2944      Z      -1.7401
       Tot       2.1882
    Quadrupole Moments (Debye-Ang)
        XX    -110.0319     XY      -2.5490     YY    -111.7502
        XZ      -1.7988     YZ      -3.2031     ZZ    -132.5968
    Octopole Moments (Debye-Ang^2)
       XXX     -19.3612    XXY       7.5905    XYY      -9.7202
       YYY      66.2933    XXZ      19.8781    XYZ       5.5584
       YYZ       2.0102    XZZ      -6.4440    YZZ      -0.9571
       ZZZ      -3.4115
    Hexadecapole Moments (Debye-Ang^3)
      XXXX   -4036.2954   XXXY      41.9448   XXYY   -1131.4710
      XYYY      83.7859   YYYY   -2478.4968   XXXZ     -17.5507
      XXYZ     -69.3005   XYYZ       9.5099   YYYZ     -22.2172
      XXZZ    -877.3687   XYZZ      32.8225   YYZZ    -576.2608
      XZZZ     -20.0079   YZZZ     -11.6857   ZZZZ    -604.3680
 -----------------------------------------------------------------
 Calculating analytic gradient of the SCF energy
 Gradient of SCF Energy
            1           2           3           4           5           6
    1   0.0001005   0.0003924  -0.0005107  -0.0007955   0.0001713   0.0002168
    2   0.0000515   0.0000466  -0.0004390  -0.0001313   0.0001807   0.0002487
    3   0.0001596  -0.0003283   0.0001679   0.0005175  -0.0000850  -0.0001069
            7           8           9          10          11          12
    1   0.0001914   0.0002568   0.0000125   0.0000176   0.0000256  -0.0000103
    2   0.0000072  -0.0000750   0.0000228   0.0000126   0.0000865   0.0000106
    3  -0.0001664  -0.0001546   0.0000021  -0.0000088   0.0000412  -0.0000066
           13          14          15          16          17          18
    1   0.0000091  -0.0000043   0.0000303   0.0000093  -0.0001003  -0.0000030
    2  -0.0000038  -0.0000309  -0.0000187   0.0000079  -0.0000474   0.0000134
    3   0.0000050   0.0000092  -0.0000119  -0.0000129  -0.0000272   0.0000033
           19          20          21          22          23          24
    1  -0.0000133  -0.0000061   0.0000022  -0.0000046  -0.0000072   0.0000056
    2   0.0000110   0.0000074  -0.0000032  -0.0000040  -0.0000034  -0.0000036
    3   0.0000029   0.0000008  -0.0000058   0.0000018  -0.0000055  -0.0000063
           25          26          27          28          29          30
    1   0.0000150   0.0000079   0.0000040  -0.0000063  -0.0000269   0.0000018
    2  -0.0000224  -0.0000125   0.0000072   0.0000032   0.0000585   0.0000232
    3   0.0000097  -0.0000004  -0.0000007   0.0000524  -0.0000535   0.0000051
           31          32          33          34          35          36
    1   0.0000135  -0.0000088   0.0000218  -0.0000028   0.0000003   0.0000008
    2   0.0000193   0.0000220  -0.0000151   0.0000014   0.0000028  -0.0000068
    3   0.0000177   0.0000555  -0.0000141   0.0000022  -0.0000027   0.0000086
           37          38          39          40          41          42
    1  -0.0000047  -0.0000064   0.0000059  -0.0000033  -0.0000022   0.0000062
    2  -0.0000207  -0.0000225  -0.0000116   0.0000238   0.0000003   0.0000015
    3  -0.0000286  -0.0000326  -0.0000176   0.0000166  -0.0000015  -0.0000014
           43
    1  -0.0000015
    2   0.0000021
    3   0.0000003
 Max gradient component =       7.955E-04
 RMS gradient           =       1.276E-04
 Gradient time:  CPU 685.55 s  wall 52.98 s
 Geometry Optimization Parameters
   NAtoms,    NIC,     NZ,  NCons,   NDum,   NFix, NCnnct, MaxDiis
       43     325       0       0       0       0       0       0

 Cartesian Hessian Update
 Hessian Updated using BFGS Update


** GEOMETRY OPTIMIZATION IN DELOCALIZED INTERNAL COORDINATES **
   Searching for a Minimum

   Optimization Cycle:   2

                       Coordinates (Angstroms)
     ATOM                X               Y               Z
      1  C        -0.6462887535   -0.0465616877   -0.7191568471
      2  C         0.9195131790    0.1172251131   -0.6367531975
      3  C        -1.4431171299    1.0941320497   -0.1257387832
      4  C         1.3477416613    1.3228678943    0.1869388108
      5  O        -2.1616110948    1.7217008754   -1.0772728501
      6  O        -1.4568145860    1.4158531749    1.0390600279
      7  O         1.0064728947    2.4499073035   -0.4832145624
      8  O         1.9094760406    1.3350408298    1.2501703161
      9  C         1.2171586829    3.6863967843    0.2219807756
     10  C        -2.9961660676    2.7998805803   -0.6239606928
     11  C        -0.8378832656   -1.4238400987    0.0239763659
     12  C        -0.5156703529   -2.5225728805   -1.0110096162
     13  C         1.0188235129   -2.3360519470   -1.1628755889
     14  C         1.3232400803   -1.2706184303   -0.0686138806
     15  O         0.2907061770   -1.5003153323    0.9036307895
     16  H        -0.9555498505   -0.1420649854   -1.7569735788
     17  H         1.3268159601    0.2708977388   -1.6359247146
     18  H         2.2729990145    3.8161385991    0.4634299036
     19  H        -2.4009433407    3.5611611697   -0.1175959884
     20  H        -0.7546206550   -3.4994239731   -0.5856191905
     21  H        -1.0763034358   -2.4078547322   -1.9386729406
     22  H         1.5599485568   -3.2581572567   -0.9469229608
     23  H         1.3222148444   -1.9999206283   -2.1551174713
     24  H         0.8810540050    4.4675173534   -0.4567396696
     25  H         0.6301798386    3.6927727340    1.1418042644
     26  H        -3.7582480671    2.4255385838    0.0622923987
     27  H        -3.4581514035    3.2069219750   -1.5207500547
     28  C        -2.1086114528   -1.5946673937    0.8286122360
     29  C         2.6872135003   -1.3984479417    0.5795215678
     30  O         3.6446927799   -0.9768930017   -0.3819319767
     31  H         2.8561577680   -2.4485034098    0.8592890291
     32  H         2.7348156710   -0.7766565405    1.4755262703
     33  C         4.9561817020   -0.9085811240    0.1458539226
     34  H         5.6079998566   -0.5578828118   -0.6548977615
     35  H         5.3041051008   -1.8949213824    0.4842364433
     36  H         5.0069854417   -0.2066015033    0.9886286944
     37  O        -3.2015840816   -1.3330719918   -0.0387314240
     38  H        -2.1050302215   -0.8957183869    1.6718160316
     39  H        -2.1575701775   -2.6202069621    1.2209091534
     40  C        -4.4510849540   -1.3620671991    0.6254340555
     41  H        -5.2146249728   -1.1271150476   -0.1165577137
     42  H        -4.4887708462   -0.6188543309    1.4335314446
     43  H        -4.6565296091   -2.3547097096    1.0496712030
   Point Group: c1    Number of degrees of freedom:   123


   Energy is  -1073.633780928

 Hessian Updated using BFGS Update

107 Hessian modes will be used to form the next step
  Hessian Eigenvalues:
     0.002972    0.003451    0.007039    0.007134    0.007276    0.007364
     0.010322    0.010496    0.010777    0.012875    0.013004    0.013570
     0.021603    0.022589    0.023559    0.026303    0.029884    0.035482
     0.037913    0.038565    0.041362    0.044601    0.046247    0.049484
     0.050727    0.053927    0.055964    0.056265    0.056528    0.057589
     0.061761    0.061964    0.064187    0.065477    0.066944    0.082016
     0.086455    0.095394    0.099865    0.100591    0.100639    0.101280
     0.101582    0.104991    0.104991    0.105987    0.106174    0.109229
     0.109741    0.110563    0.121004    0.124421    0.135309    0.135758
     0.151054    0.159987    0.160243    0.176534    0.220049    0.220128
     0.231307    0.234961    0.249975    0.249991    0.250493    0.252677
     0.253475    0.265905    0.276906    0.302927    0.308013    0.309791
     0.310950    0.336923    0.337134    0.337620    0.337814    0.338074
     0.338435    0.339037    0.342261    0.345922    0.346150    0.346381
     0.346777    0.346995    0.347160    0.347272    0.347344    0.347622
     0.347788    0.348163    0.348265    0.348586    0.350429    0.350662
     0.351499    0.397363    0.400277    0.423388    0.425211    0.431620
     0.431667    0.539978    0.555983    1.006697    1.035463

 Minimum Search - Taking Simple RFO Step
 Searching for Lamda that Minimizes Along All modes
 Value Taken    Lamda =  -0.00001375
 Step Taken.  Stepsize is  0.036262

                             Maximum     Tolerance    Cnvgd?
         Gradient           0.000271      0.000001      NO
         Displacement       0.012834      0.000001      NO
         Energy change     -0.000002      0.000000      NO


 New Cartesian Coordinates Obtained by Inverse Iteration

 Displacement from previous Coordinates is:  0.111868
 Adding empirical dispersion correction 
 ----------------------------------------------------------------
 Doing -D3(op) with
 s6 =   1.00000
 s8 =   0.78311
 a1 =   0.30000
 a2 =   4.25000
 n  =  10.00000
 -D3 energy without 3body term =     -0.0506575398 hartrees
 ----------------------------------------------------------------
             Standard Nuclear Orientation (Angstroms)
    I     Atom           X                Y                Z
 ----------------------------------------------------------------
    1      C      -0.6421910635    -0.0436752088    -0.7210604055
    2      C       0.9239309433     0.1173920828    -0.6379618136
    3      C      -1.4374957077     1.0973466064    -0.1263634203
    4      C       1.3548566296     1.3246954768     0.1821206077
    5      O      -2.1662257782     1.7180522232    -1.0745730448
    6      O      -1.4493014670     1.4185368915     1.0386291301
    7      O       0.9996714202     2.4503956928    -0.4829946879
    8      O       1.9230334615     1.3392180414     1.2419153744
    9      C       1.2075397557     3.6871842774     0.2225076600
   10      C      -3.0043728333     2.7921960606    -0.6182650577
   11      C      -0.8360361625    -1.4205160688     0.0226188384
   12      C      -0.5145516321    -2.5204331571    -1.0113015432
   13      C       1.0202561635    -2.3362616584    -1.1619343627
   14      C       1.3253788342    -1.2705331613    -0.0681565738
   15      O       0.2916543028    -1.4977647067     0.9033254374
   16      H      -0.9520346247    -0.1388878920    -1.7587303519
   17      H       1.3314646116     0.2688026761    -1.6374075249
   18      H       2.2643324804     3.8234767011     0.4560652035
   19      H      -2.4102932474     3.5585030837    -0.1181759300
   20      H      -0.7551893814    -3.4966191619    -0.5853063155
   21      H      -1.0743394170    -2.4055997458    -1.9394564826
   22      H       1.5598246433    -3.2590213230    -0.9448622501
   23      H       1.3250936598    -2.0011836010    -2.1540845742
   24      H       0.8611246725     4.4670945660    -0.4524091799
   25      H       0.6275477241     3.6883760637     1.1467730280
   26      H      -3.7592752914     2.4150421426     0.0743527903
   27      H      -3.4751695894     3.1939091739    -1.5128703130
   28      C      -2.1075374747    -1.5889576235     0.8265412246
   29      C       2.6886664236    -1.4004772368     0.5810068441
   30      O       3.6477794284    -0.9840164239    -0.3810454857
   31      H       2.8545464286    -2.4503497446     0.8633017502
   32      H       2.7375645221    -0.7766144824     1.4754335951
   33      C       4.9589873663    -0.9171305347     0.1475553036
   34      H       5.6125003213    -0.5717767585    -0.6541436091
   35      H       5.3038246873    -1.9029812543     0.4905128396
   36      H       5.0110860113    -0.2116382275     0.9873108715
   37      O      -3.1996097293    -1.3261958865    -0.0415776682
   38      H      -2.1033901520    -0.8895119677     1.6693696904
   39      H      -2.1583214812    -2.6141756160     1.2194261239
   40      C      -4.4497043377    -1.3549866172     0.6214352551
   41      H      -5.2124694811    -1.1191310712    -0.1210673657
   42      H      -4.4877749719    -0.6123031200     1.4300077038
   43      H      -4.6560587182    -2.3478074406     1.0448209287
 ----------------------------------------------------------------
 Nuclear Repulsion Energy =  1978.1981620365 hartrees
 There are       81 alpha and       81 beta electrons
 Applying Cartesian multipole field
    Component          Value
    ---------          -----
     (2,0,0)        1.00000E-12
     (0,2,0)        2.00000E-11
     (0,0,2)       -3.00000E-11
 Nucleus-field energy     =     0.0000000323 hartrees
 Requested basis set is 6-311++G(d,p)
 There are 236 shells and 616 basis functions
 A cutoff of  1.0D-11 yielded  21149 shell pairs
 There are    145972 function pairs (    155288 Cartesian)
 Smallest overlap matrix eigenvalue = 2.47E-07

 Q-Chem warning in module /fs/scratch/osu6415/qchem-kaunlao-vdw/stvman/mkSTV.C, line 281:

 Overlap eigenvalue is smaller than square root of threshold

 Linear dependence detected in AO basis
 Number of orthogonalized atomic orbitals = 614
 Maximum deviation from orthogonality = 2.205E-10
 Guess MOs from SCF MO coefficient file
 Reading MOs from coefficient file
 Reading MOs from coefficient file
 A restricted hybrid HF-DFT SCF calculation will be
 performed using Pulay DIIS extrapolation
 Exchange:     0.2000 Hartree-Fock + 0.0800 Slater + 0.7200 B88
 Correlation:  0.1900 VWN1RPA + 0.8100 LYP
 Using SG-1 standard quadrature grid
 Dispersion:   Grimme D3
 SCF converges when DIIS error is below 1.0E-08
 Geometry optimization detected.  Setting ReadMinima to 0
 Setting SaveMinima to 0
 using 20 threads for integral computing
 -------------------------------------------------------
 OpenMP Integral computing Module                
 Release: version 1.0, May 2013, Q-Chem Inc. Pittsburgh 
 -------------------------------------------------------
 -------------------------------------------------------
 OpenMP BLAS3 based DFT computing Module                
 Release: version 1.0, May 2013, Q-Chem Inc. Pittsburgh 
 -------------------------------------------------------
 ---------------------------------------
  Cycle       Energy         DIIS Error
 ---------------------------------------
    1   -1073.6330622071      1.13E-04
    2   -1073.6337678742      1.07E-05
    3   -1073.6337646280      1.63E-05
    4   -1073.6337738197      4.04E-06
    5   -1073.6337742412      1.80E-06
    6   -1073.6337743475      5.85E-07
    7   -1073.6337743591      2.15E-07
    8   -1073.6337743589      5.63E-08
    9   -1073.6337743645      2.45E-08
   10   -1073.6337743731      7.69E-09 Convergence criterion met
 ---------------------------------------
 SCF time:  CPU 1339.16 s  wall 85.56 s
 SCF   energy in the final basis set = -1073.63377437
 Total energy in the final basis set = -1073.63377437
 
 --------------------------------------------------------------
 
                    Orbital Energies (a.u.)
 --------------------------------------------------------------
 
 Alpha MOs
 -- Occupied --
-19.171 -19.167 -19.135 -19.131 -19.128 -19.112 -19.112 -10.303
-10.302 -10.240 -10.237 -10.228 -10.223 -10.220 -10.218 -10.212
-10.211 -10.202 -10.200 -10.174 -10.174  -1.114  -1.108  -1.067
 -1.045  -1.038  -1.025  -1.023  -0.829  -0.802  -0.781  -0.747
 -0.738  -0.722  -0.696  -0.659  -0.651  -0.633  -0.601  -0.577
 -0.558  -0.555  -0.529  -0.513  -0.511  -0.501  -0.491  -0.486
 -0.483  -0.481  -0.479  -0.474  -0.471  -0.461  -0.455  -0.454
 -0.427  -0.423  -0.419  -0.418  -0.411  -0.398  -0.392  -0.389
 -0.368  -0.367  -0.360  -0.355  -0.353  -0.352  -0.342  -0.329
 -0.327  -0.322  -0.312  -0.310  -0.288  -0.277  -0.274  -0.269
 -0.261
 -- Virtual --
 -0.013  -0.010  -0.004  -0.002   0.004   0.010   0.011   0.013
  0.022   0.027   0.028   0.030   0.035   0.038   0.042   0.044
  0.045   0.051   0.053   0.058   0.062   0.064   0.071   0.072
  0.076   0.077   0.087   0.089   0.096   0.097   0.101   0.105
  0.107   0.112   0.113   0.116   0.116   0.120   0.121   0.124
  0.125   0.128   0.133   0.134   0.136   0.138   0.140   0.141
  0.143   0.145   0.147   0.149   0.151   0.156   0.157   0.159
  0.160   0.163   0.166   0.168   0.170   0.173   0.176   0.178
  0.180   0.187   0.189   0.191   0.193   0.195   0.198   0.203
  0.205   0.207   0.209   0.212   0.214   0.219   0.226   0.227
  0.228   0.230   0.233   0.235   0.242   0.251   0.255   0.257
  0.259   0.262   0.264   0.267   0.270   0.276   0.280   0.281
  0.285   0.289   0.293   0.297   0.297   0.299   0.308   0.310
  0.311   0.314   0.315   0.321   0.328   0.331   0.333   0.334
  0.340   0.343   0.344   0.353   0.355   0.362   0.363   0.370
  0.374   0.376   0.377   0.382   0.385   0.389   0.391   0.393
  0.396   0.407   0.411   0.415   0.419   0.430   0.431   0.435
  0.439   0.447   0.450   0.463   0.470   0.473   0.480   0.482
  0.487   0.498   0.503   0.508   0.509   0.517   0.522   0.526
  0.529   0.537   0.546   0.549   0.558   0.563   0.577   0.580
  0.586   0.594   0.596   0.600   0.609   0.613   0.616   0.623
  0.625   0.636   0.647   0.655   0.656   0.660   0.664   0.671
  0.676   0.681   0.682   0.683   0.689   0.690   0.696   0.699
  0.709   0.711   0.718   0.724   0.734   0.739   0.743   0.745
  0.750   0.754   0.758   0.764   0.767   0.769   0.779   0.784
  0.790   0.796   0.802   0.808   0.812   0.823   0.844   0.855
  0.857   0.878   0.886   0.905   0.915   0.930   0.967   0.981
  0.994   1.010   1.030   1.036   1.050   1.061   1.064   1.075
  1.083   1.090   1.093   1.098   1.106   1.113   1.139   1.142
  1.158   1.168   1.178   1.185   1.204   1.207   1.213   1.221
  1.231   1.237   1.250   1.264   1.273   1.283   1.290   1.302
  1.310   1.319   1.324   1.347   1.354   1.359   1.364   1.387
  1.391   1.403   1.409   1.416   1.422   1.432   1.437   1.445
  1.449   1.454   1.466   1.478   1.480   1.492   1.493   1.512
  1.524   1.539   1.545   1.552   1.566   1.568   1.572   1.576
  1.580   1.581   1.583   1.592   1.598   1.604   1.607   1.616
  1.626   1.631   1.641   1.648   1.654   1.658   1.667   1.680
  1.686   1.696   1.706   1.712   1.713   1.717   1.731   1.737
  1.739   1.740   1.752   1.758   1.763   1.778   1.783   1.792
  1.798   1.803   1.813   1.819   1.822   1.836   1.841   1.846
  1.857   1.862   1.873   1.887   1.905   1.916   1.923   1.932
  1.949   1.959   1.965   1.978   2.005   2.010   2.014   2.022
  2.048   2.053   2.074   2.084   2.090   2.104   2.111   2.121
  2.128   2.137   2.145   2.148   2.154   2.164   2.169   2.192
  2.196   2.207   2.215   2.229   2.230   2.251   2.257   2.282
  2.301   2.326   2.354   2.363   2.379   2.385   2.429   2.437
  2.443   2.451   2.458   2.469   2.476   2.504   2.509   2.511
  2.517   2.519   2.521   2.528   2.534   2.542   2.548   2.551
  2.559   2.567   2.577   2.594   2.599   2.607   2.613   2.620
  2.647   2.664   2.678   2.689   2.691   2.704   2.722   2.732
  2.736   2.769   2.778   2.824   2.834   2.841   2.848   2.862
  2.876   2.880   2.888   2.895   2.901   2.909   2.924   2.934
  2.963   2.970   2.978   2.997   3.013   3.030   3.035   3.047
  3.056   3.059   3.068   3.073   3.089   3.105   3.109   3.119
  3.127   3.136   3.156   3.165   3.177   3.182   3.192   3.205
  3.213   3.230   3.248   3.253   3.271   3.276   3.291   3.297
  3.319   3.345   3.385   3.409   3.422   3.426   3.440   3.560
  3.605   3.612   3.676   3.687   3.704   3.749   3.777   3.783
  3.789   3.798   3.809   3.815   3.834   3.846   3.855   3.867
  3.963   3.985   4.043   4.074   4.096   4.097   4.116   4.133
  4.136   4.145   4.159   4.170   4.185   4.192   4.236   4.307
  4.321   4.456   4.508   5.070   5.103   5.127   5.146   5.182
  5.221   5.252   5.299   5.337   5.422   5.426   5.441   5.451
  5.528   5.632   5.647   5.669   5.709   5.748   5.894   5.920
 23.776  23.852  23.856  23.872  23.890  23.914  23.920  23.932
 23.938  23.944  23.952  23.976  23.983  24.042  49.920  49.928
 49.964  49.981  50.015  50.056  50.083
 --------------------------------------------------------------
 
          Ground-State Mulliken Net Atomic Charges

     Atom                 Charge (a.u.)
  ----------------------------------------
      1 C                     0.452917
      2 C                     0.310524
      3 C                    -1.133162
      4 C                    -0.557536
      5 O                     0.101726
      6 O                    -0.093819
      7 O                     0.000969
      8 O                    -0.159034
      9 C                    -0.202671
     10 C                    -0.182686
     11 C                    -0.791841
     12 C                    -0.218449
     13 C                    -0.432671
     14 C                    -0.758939
     15 O                     0.102667
     16 H                     0.313524
     17 H                     0.304837
     18 H                     0.176808
     19 H                     0.158945
     20 H                     0.170920
     21 H                     0.171029
     22 H                     0.171645
     23 H                     0.170764
     24 H                     0.145972
     25 H                     0.200479
     26 H                     0.166032
     27 H                     0.155274
     28 C                     0.038543
     29 C                     0.114788
     30 O                    -0.034133
     31 H                     0.147753
     32 H                     0.229648
     33 C                    -0.229531
     34 H                     0.141493
     35 H                     0.132401
     36 H                     0.141365
     37 O                    -0.021987
     38 H                     0.248024
     39 H                     0.162765
     40 C                    -0.237165
     41 H                     0.145568
     42 H                     0.139827
     43 H                     0.136418
  ----------------------------------------
  Sum of atomic charges =     0.000000

 -----------------------------------------------------------------
                    Cartesian Multipole Moments
 -----------------------------------------------------------------
    Charge (ESU x 10^10)
                 0.0000
    Dipole Moment (Debye)
         X      -1.3135      Y       0.2881      Z      -1.7328
       Tot       2.1934
    Quadrupole Moments (Debye-Ang)
        XX    -110.0805     XY      -2.5997     YY    -111.7969
        XZ      -1.8340     YZ      -3.1963     ZZ    -132.5548
    Octopole Moments (Debye-Ang^2)
       XXX     -20.2031    XXY       7.4444    XYY      -9.9485
       YYY      65.9335    XXZ      19.8584    XYZ       5.3666
       YYZ       2.1288    XZZ      -6.5250    YZZ      -1.0033
       ZZZ      -3.1396
    Hexadecapole Moments (Debye-Ang^3)
      XXXX   -4040.1794   XXXY      44.0938   XXYY   -1132.1565
      XYYY      87.3350   YYYY   -2476.2714   XXXZ     -18.2202
      XXYZ     -69.6443   XYYZ       9.2356   YYYZ     -22.6857
      XXZZ    -877.7477   XYZZ      33.9987   YYZZ    -575.7295
      XZZZ     -20.6614   YZZZ     -12.2238   ZZZZ    -602.7101
 -----------------------------------------------------------------
 Calculating analytic gradient of the SCF energy
 Gradient of SCF Energy
            1           2           3           4           5           6
    1  -0.0002851   0.0001419   0.0004500   0.0002244  -0.0001368  -0.0000907
    2  -0.0001221  -0.0000142   0.0002543  -0.0000916  -0.0001053  -0.0000224
    3   0.0000622  -0.0000629  -0.0000307  -0.0000391  -0.0000435  -0.0000254
            7           8           9          10          11          12
    1  -0.0002007  -0.0000774  -0.0000267  -0.0000082   0.0001048   0.0000048
    2   0.0000107  -0.0000132   0.0000007   0.0000585   0.0000566  -0.0000199
    3   0.0000237   0.0000439   0.0000005   0.0000015  -0.0000206  -0.0000213
           13          14          15          16          17          18
    1  -0.0000198  -0.0000545   0.0000370  -0.0000211  -0.0001231   0.0000067
    2   0.0000189  -0.0001251  -0.0000070  -0.0000263   0.0000198   0.0000042
    3   0.0000152   0.0000823  -0.0000238  -0.0000237   0.0000527   0.0000055
           19          20          21          22          23          24
    1   0.0000100   0.0000066  -0.0000043  -0.0000028  -0.0000085   0.0000012
    2  -0.0000087  -0.0000039  -0.0000048  -0.0000039   0.0000136  -0.0000007
    3   0.0000015   0.0000072  -0.0000015   0.0000034  -0.0000086   0.0000012
           25          26          27          28          29          30
    1   0.0000343   0.0000023  -0.0000008   0.0000289  -0.0000031   0.0000251
    2  -0.0000014  -0.0000033   0.0000018   0.0000313   0.0000356   0.0000290
    3   0.0000258  -0.0000037   0.0000016   0.0000472  -0.0000184  -0.0000074
           31          32          33          34          35          36
    1   0.0000212  -0.0000093  -0.0000000  -0.0000014   0.0000031  -0.0000008
    2   0.0000178  -0.0000007  -0.0000222  -0.0000009   0.0000030  -0.0000038
    3   0.0000103   0.0000297  -0.0000225   0.0000013   0.0000027   0.0000103
           37          38          39          40          41          42
    1  -0.0000073  -0.0000041  -0.0000016  -0.0000150  -0.0000047   0.0000060
    2   0.0000240   0.0000036  -0.0000026   0.0000223  -0.0000026  -0.0000002
    3  -0.0000447  -0.0000270  -0.0000190   0.0000234   0.0000015  -0.0000072
           43
    1  -0.0000006
    2   0.0000011
    3  -0.0000036
 Max gradient component =       4.500E-04
 RMS gradient           =       6.983E-05
 Gradient time:  CPU 684.38 s  wall 54.13 s
 Geometry Optimization Parameters
   NAtoms,    NIC,     NZ,  NCons,   NDum,   NFix, NCnnct, MaxDiis
       43     325       0       0       0       0       0       0

 Cartesian Hessian Update
 Hessian Updated using BFGS Update


** GEOMETRY OPTIMIZATION IN DELOCALIZED INTERNAL COORDINATES **
   Searching for a Minimum

   Optimization Cycle:   3

                       Coordinates (Angstroms)
     ATOM                X               Y               Z
      1  C        -0.6421910635   -0.0436752088   -0.7210604055
      2  C         0.9239309433    0.1173920828   -0.6379618136
      3  C        -1.4374957077    1.0973466064   -0.1263634203
      4  C         1.3548566296    1.3246954768    0.1821206077
      5  O        -2.1662257782    1.7180522232   -1.0745730448
      6  O        -1.4493014670    1.4185368915    1.0386291301
      7  O         0.9996714202    2.4503956928   -0.4829946879
      8  O         1.9230334615    1.3392180414    1.2419153744
      9  C         1.2075397557    3.6871842774    0.2225076600
     10  C        -3.0043728333    2.7921960606   -0.6182650577
     11  C        -0.8360361625   -1.4205160688    0.0226188384
     12  C        -0.5145516321   -2.5204331571   -1.0113015432
     13  C         1.0202561635   -2.3362616584   -1.1619343627
     14  C         1.3253788342   -1.2705331613   -0.0681565738
     15  O         0.2916543028   -1.4977647067    0.9033254374
     16  H        -0.9520346247   -0.1388878920   -1.7587303519
     17  H         1.3314646116    0.2688026761   -1.6374075249
     18  H         2.2643324804    3.8234767011    0.4560652035
     19  H        -2.4102932474    3.5585030837   -0.1181759300
     20  H        -0.7551893814   -3.4966191619   -0.5853063155
     21  H        -1.0743394170   -2.4055997458   -1.9394564826
     22  H         1.5598246433   -3.2590213230   -0.9448622501
     23  H         1.3250936598   -2.0011836010   -2.1540845742
     24  H         0.8611246725    4.4670945660   -0.4524091799
     25  H         0.6275477241    3.6883760637    1.1467730280
     26  H        -3.7592752914    2.4150421426    0.0743527903
     27  H        -3.4751695894    3.1939091739   -1.5128703130
     28  C        -2.1075374747   -1.5889576235    0.8265412246
     29  C         2.6886664236   -1.4004772368    0.5810068441
     30  O         3.6477794284   -0.9840164239   -0.3810454857
     31  H         2.8545464286   -2.4503497446    0.8633017502
     32  H         2.7375645221   -0.7766144824    1.4754335951
     33  C         4.9589873663   -0.9171305347    0.1475553036
     34  H         5.6125003213   -0.5717767585   -0.6541436091
     35  H         5.3038246873   -1.9029812543    0.4905128396
     36  H         5.0110860113   -0.2116382275    0.9873108715
     37  O        -3.1996097293   -1.3261958865   -0.0415776682
     38  H        -2.1033901520   -0.8895119677    1.6693696904
     39  H        -2.1583214812   -2.6141756160    1.2194261239
     40  C        -4.4497043377   -1.3549866172    0.6214352551
     41  H        -5.2124694811   -1.1191310712   -0.1210673657
     42  H        -4.4877749719   -0.6123031200    1.4300077038
     43  H        -4.6560587182   -2.3478074406    1.0448209287
   Point Group: c1    Number of degrees of freedom:   123


   Energy is  -1073.633774373

 Hessian Updated using BFGS Update

111 Hessian modes will be used to form the next step
  Hessian Eigenvalues:
     0.002696    0.004762    0.007020    0.007150    0.007360    0.007464
     0.010430    0.010488    0.010776    0.012851    0.012978    0.013551
     0.013612    0.021607    0.022564    0.023584    0.026356    0.034981
     0.036173    0.038050    0.038919    0.044105    0.044473    0.045489
     0.050248    0.051634    0.053952    0.056027    0.056301    0.056499
     0.057527    0.061695    0.061971    0.062484    0.064678    0.065840
     0.079852    0.086524    0.095066    0.100456    0.100592    0.100640
     0.101283    0.101573    0.104991    0.104992    0.105982    0.106198
     0.109221    0.109738    0.109973    0.121606    0.123256    0.135282
     0.135757    0.151363    0.159964    0.160006    0.160395    0.176802
     0.220071    0.220129    0.231183    0.233138    0.249285    0.249992
     0.250000    0.250015    0.250492    0.250568    0.253687    0.265118
     0.276929    0.301985    0.308061    0.309837    0.311073    0.336949
     0.337102    0.337618    0.337816    0.338074    0.338436    0.339036
     0.342140    0.345924    0.346150    0.346156    0.346776    0.346995
     0.347163    0.347271    0.347347    0.347622    0.347787    0.348162
     0.348456    0.348679    0.350429    0.350662    0.351522    0.397321
     0.400329    0.423353    0.425244    0.431607    0.431683    0.539869
     0.555760    1.006590    1.035461

 Minimum Search - Taking Simple RFO Step
 Searching for Lamda that Minimizes Along All modes
 Value Taken    Lamda =  -0.00000969
 Step Taken.  Stepsize is  0.029976

                             Maximum     Tolerance    Cnvgd?
         Gradient           0.000221      0.000001      NO
         Displacement       0.010632      0.000001      NO
         Energy change      0.000007      0.000000      NO


 New Cartesian Coordinates Obtained by Inverse Iteration

 Displacement from previous Coordinates is:  0.149391
 Adding empirical dispersion correction 
 ----------------------------------------------------------------
 Doing -D3(op) with
 s6 =   1.00000
 s8 =   0.78311
 a1 =   0.30000
 a2 =   4.25000
 n  =  10.00000
 -D3 energy without 3body term =     -0.0506120698 hartrees
 ----------------------------------------------------------------
             Standard Nuclear Orientation (Angstroms)
    I     Atom           X                Y                Z
 ----------------------------------------------------------------
    1      C      -0.6441226446    -0.0417423546    -0.7192693815
    2      C       0.9223275658     0.1186125918    -0.6374770845
    3      C      -1.4396307880     1.0962727364    -0.1190970848
    4      C       1.3560743457     1.3278268114     0.1785064541
    5      O      -2.1690848083     1.7210930755    -1.0639531198
    6      O      -1.4522681233     1.4107084382     1.0477455818
    7      O       1.0107863908     2.4518755399    -0.4945016174
    8      O       1.9223191168     1.3449221483     1.2392992702
    9      C       1.2235294703     3.6915554412     0.2043816868
   10      C      -3.0090129386     2.7913437692    -0.6019035779
   11      C      -0.8378803696    -1.4206100844     0.0209211487
   12      C      -0.5141441884    -2.5184706233    -1.0144739868
   13      C       1.0210105148    -2.3345712977    -1.1613144705
   14      C       1.3236047098    -1.2690594462    -0.0666660006
   15      O       0.2885846736    -1.4977756041     0.9031222127
   16      H      -0.9551337326    -0.1335850355    -1.7568576325
   17      H       1.3298395031     0.2675244196    -1.6374173463
   18      H       2.2799277389     3.8217427586     0.4431222822
   19      H      -2.4162164684     3.5559970666    -0.0977737809
   20      H      -0.7559499812    -3.4954192078    -0.5908982628
   21      H      -1.0718668330    -2.4017742327    -1.9436335745
   22      H       1.5599283026    -3.2574471894    -0.9431358667
   23      H       1.3283500035    -1.9993541618    -2.1526315661
   24      H       0.8865775528     4.4696056616    -0.4774403904
   25      H       0.6381395141     3.7027967091     1.1251613764
   26      H      -3.7633107571     2.4093145381     0.0886993891
   27      H      -3.4804640865     3.1970118493    -1.4943772887
   28      C      -2.1100472902    -1.5920265409     0.8232294085
   29      C       2.6859264730    -1.3991956063     0.5843972298
   30      O       3.6464283703    -0.9837086521    -0.3766399757
   31      H       2.8508696462    -2.4490753612     0.8672847951
   32      H       2.7339529571    -0.7749293596     1.4785277267
   33      C       4.9568004969    -0.9161193239     0.1539227342
   34      H       5.6116175070    -0.5721587289    -0.6473143214
   35      H       5.3009510917    -1.9014793454     0.4989915962
   36      H       5.0076748419    -0.2092579135     0.9925888429
   37      O      -3.2016497131    -1.3296686325    -0.0455370708
   38      H      -2.1077630967    -0.8939380863     1.6672398741
   39      H      -2.1597445221    -2.6178915975     1.2145637057
   40      C      -4.4524564935    -1.3624722593     0.6159148440
   41      H      -5.2147939799    -1.1265161989    -0.1269912122
   42      H      -4.4930570927    -0.6216508201     1.4260844765
   43      H      -4.6573009290    -2.3566338207     1.0368822169
 ----------------------------------------------------------------
 Nuclear Repulsion Energy =  1977.6528865488 hartrees
 There are       81 alpha and       81 beta electrons
 Applying Cartesian multipole field
    Component          Value
    ---------          -----
     (2,0,0)        1.00000E-12
     (0,2,0)        2.00000E-11
     (0,0,2)       -3.00000E-11
 Nucleus-field energy     =     0.0000000324 hartrees
 Requested basis set is 6-311++G(d,p)
 There are 236 shells and 616 basis functions
 A cutoff of  1.0D-11 yielded  21142 shell pairs
 There are    145977 function pairs (    155304 Cartesian)
 Smallest overlap matrix eigenvalue = 2.46E-07

 Q-Chem warning in module /fs/scratch/osu6415/qchem-kaunlao-vdw/stvman/mkSTV.C, line 281:

 Overlap eigenvalue is smaller than square root of threshold

 Linear dependence detected in AO basis
 Number of orthogonalized atomic orbitals = 614
 Maximum deviation from orthogonality = 2.099E-10
 Guess MOs from SCF MO coefficient file
 Reading MOs from coefficient file
 Reading MOs from coefficient file
 A restricted hybrid HF-DFT SCF calculation will be
 performed using Pulay DIIS extrapolation
 Exchange:     0.2000 Hartree-Fock + 0.0800 Slater + 0.7200 B88
 Correlation:  0.1900 VWN1RPA + 0.8100 LYP
 Using SG-1 standard quadrature grid
 Dispersion:   Grimme D3
 SCF converges when DIIS error is below 1.0E-08
 Geometry optimization detected.  Setting ReadMinima to 0
 Setting SaveMinima to 0
 using 20 threads for integral computing
 -------------------------------------------------------
 OpenMP Integral computing Module                
 Release: version 1.0, May 2013, Q-Chem Inc. Pittsburgh 
 -------------------------------------------------------
 -------------------------------------------------------
 OpenMP BLAS3 based DFT computing Module                
 Release: version 1.0, May 2013, Q-Chem Inc. Pittsburgh 
 -------------------------------------------------------
 ---------------------------------------
  Cycle       Energy         DIIS Error
 ---------------------------------------
    1   -1073.6322383894      1.14E-04
    2   -1073.6337598783      1.77E-05
    3   -1073.6337283265      3.62E-05
    4   -1073.6337728092      4.10E-06
    5   -1073.6337733486      1.70E-06
    6   -1073.6337734425      6.29E-07
[...]
    -0.01651752     -0.00546213     -0.06012663
    -0.20058614     -0.07236533      0.51373938
     0.00571432      0.00080374      0.00122658
     0.00249061      0.00294723      0.00205854
     0.04803202      0.19379769     -0.07834826
    -0.25570238      0.05793593     -0.43633021
     0.19788830     -0.34092368      0.08080477
    -0.12772017     -0.13769110      0.41883111
    -0.00074572      0.00159217     -0.00151971
    -0.00104373      0.00046345      0.00186304
     0.00369171      0.00194139     -0.00350714
    -0.00008411     -0.00008654      0.00003098
     0.00007163     -0.00085337      0.00002671
     0.00004133      0.00191340      0.00064360
     0.00010420     -0.00004216      0.00007080
     0.00299365     -0.01356517      0.00426060
    -0.00103188     -0.01030941     -0.01272091
    -0.00033116     -0.00004555      0.00021216
     0.00251762      0.00138571     -0.00333861
     0.00092599     -0.00164088      0.00076740
     0.00010115      0.00039352      0.00055979
     0.00004605     -0.00001670     -0.00005602
    -0.00056281      0.00374605      0.00398726
     0.00111708      0.00804794     -0.00359963
    -0.00015889      0.00004467     -0.00000492
     0.00115237     -0.00032490      0.00120639
     0.00017440     -0.00093263     -0.00114058
     0.00028634      0.00065455     -0.00031787
vibration 116
     0.00001882     -0.00001517      0.00003599
     0.00008991      0.00004287     -0.00018000
    -0.00002257      0.00003483     -0.00000275
    -0.00005089      0.00009161     -0.00011639
     0.00001355     -0.00001554      0.00000779
     0.00000688     -0.00000882     -0.00000179
     0.00000556     -0.00005688      0.00003151
     0.00005118     -0.00005299      0.00005463
    -0.00039460     -0.00004542      0.00028624
    -0.00020309     -0.00016464      0.00008712
    -0.00002283     -0.00000764     -0.00001449
     0.00017189     -0.00044998      0.00064398
     0.00018123     -0.00024377      0.00006870
    -0.00010408     -0.00001228      0.00002660
     0.00003212      0.00000159      0.00001756
    -0.00008118     -0.00002623     -0.00039822
    -0.00072545     -0.00024468      0.00208863
     0.00275180      0.00025450      0.00058067
     0.00088571      0.00107088      0.00075639
     0.00123773      0.00485501     -0.00206895
    -0.00313450      0.00070670     -0.00539716
    -0.00165807      0.00281775     -0.00078994
     0.00012249     -0.00004599     -0.00005741
    -0.00024868      0.00039669     -0.00034103
     0.00221699      0.00001366     -0.00364413
     0.00163618      0.00085167     -0.00154168
    -0.00015905      0.00006894     -0.00024177
    -0.00002262     -0.00001101     -0.00000272
    -0.00077949     -0.00174547     -0.00103144
     0.00047072      0.00005390     -0.00004663
    -0.00214257      0.00392740     -0.00121437
    -0.00093769      0.01387178      0.01970512
     0.04302755      0.02561888     -0.07491502
    -0.56941675     -0.30253593      0.71608911
     0.05173680     -0.14044360      0.03135626
     0.00960417      0.14064243      0.13841573
     0.00002353     -0.00000138     -0.00000045
    -0.00002947      0.00003479      0.00002786
     0.00001042      0.00013339     -0.00005899
     0.00070411     -0.00027327      0.00098599
    -0.00908083      0.00284882     -0.00906658
     0.00015060     -0.00197215     -0.00182211
     0.00053341      0.00233897     -0.00074406
vibration 117
     0.00002067      0.00001935      0.00008305
     0.00002068     -0.00000729     -0.00006063
    -0.00009407      0.00006789     -0.00014698
    -0.00000445      0.00005223     -0.00000903
     0.00004272     -0.00005414      0.00005426
    -0.00000458     -0.00003339      0.00007176
     0.00000225     -0.00002688      0.00000694
     0.00000014     -0.00001299      0.00000325
     0.00027426     -0.00000581      0.00002548
     0.00536005      0.00487044     -0.00069857
     0.00012126      0.00001157      0.00001292
     0.00006740     -0.00036792      0.00045215
     0.00016216     -0.00053071      0.00041873
     0.00001603      0.00000060     -0.00001859
    -0.00003581     -0.00000458      0.00001911
    -0.00036954     -0.00006259     -0.00096765
    -0.00033349     -0.00011614      0.00074992
    -0.00261776     -0.00031822     -0.00058636
    -0.03134838     -0.03895467     -0.02696969
     0.00097456      0.00372553     -0.00166524
    -0.00226743      0.00043653     -0.00373589
    -0.00315133      0.00528534     -0.00129452
     0.00108289      0.00114449     -0.00352638
    -0.00020973      0.00047727     -0.00044845
    -0.00043501     -0.00002959      0.00069094
    -0.03457477     -0.01846209      0.03278647
     0.00224404     -0.00018581      0.00220841
     0.00078482     -0.00052729      0.00014937
     0.00000280     -0.00004490     -0.00002634
    -0.00000926     -0.00000177      0.00000013
    -0.00007465      0.00019283     -0.00006123
    -0.00000636      0.00033798      0.00044758
     0.00061317      0.00035274     -0.00101766
    -0.00792694     -0.00420506      0.00994929
     0.00064087     -0.00175008      0.00035526
     0.00012011      0.00180383      0.00173498
    -0.00049050     -0.00000122      0.00000880
     0.00184603      0.00331822      0.00391620
     0.00153150      0.00129058     -0.00068428
    -0.05255883      0.01934751     -0.07013490
     0.66573064     -0.20870624      0.66355881
    -0.00993867      0.13265401      0.11999652
    -0.03470653     -0.15242841      0.04597393
vibration 118
     0.00007156     -0.00005382      0.00091393
    -0.00026443     -0.00004419      0.00062439
     0.00007213      0.00016226     -0.00013485
     0.00003797     -0.00014035      0.00004940
     0.00032117      0.00016358     -0.00004644
     0.00006630      0.00013604     -0.00000438
    -0.00000286      0.00006078     -0.00003361
    -0.00001190      0.00003367     -0.00003264
    -0.00427554     -0.00011073      0.00106820
    -0.06942340     -0.06259137      0.01291423
     0.00000592      0.00000583     -0.00002540
    -0.00029187      0.00046899     -0.00081117
    -0.00007638      0.00028593     -0.00022353
    -0.00001959     -0.00000518      0.00001999
     0.00002835      0.00000513     -0.00000512
    -0.00298148     -0.00106838     -0.01022856
     0.00292555      0.00099211     -0.00733536
     0.03544514      0.00395085      0.00806039
     0.39283196      0.48522950      0.33584728
    -0.00118382     -0.00471594      0.00190999
     0.00457346     -0.00101185      0.00778748
     0.00163629     -0.00271496      0.00066026
    -0.00064934     -0.00067958      0.00196341
     0.00082233     -0.00290420      0.00285500
     0.01449355      0.00043564     -0.02317252
     0.46584114      0.24713751     -0.44586340
    -0.03719097      0.00727897     -0.04182803
     0.00001230      0.00020844      0.00005418
    -0.00000169     -0.00003664     -0.00001094
     0.00000249      0.00000490     -0.00000194
    -0.00004670      0.00033118     -0.00006892
     0.00004124      0.00008676      0.00020226
    -0.00007687     -0.00008127      0.00013072
     0.00110016      0.00056267     -0.00137483
    -0.00017244      0.00050481     -0.00014037
    -0.00000317     -0.00011938     -0.00006027
     0.00000398     -0.00001694      0.00001658
     0.00014389     -0.00088796     -0.00110893
     0.00010180     -0.00156749      0.00057994
    -0.00409255      0.00184784     -0.00533859
     0.05202311     -0.01591894      0.05179144
    -0.00071925      0.00845651      0.00686776
    -0.00293327     -0.01411301      0.00445655
vibration 119
     0.01136892      0.00392059      0.03967656
    -0.00101565     -0.00037481      0.00201725
     0.00072013     -0.00054678      0.00096345
    -0.00032512     -0.00028646     -0.00022393
    -0.00007269      0.00004460     -0.00015086
    -0.00005617      0.00000623     -0.00025375
     0.00001760      0.00005743      0.00001256
     0.00008077      0.00002288      0.00011716
     0.00075228      0.00002193     -0.00038853
     0.00086120      0.00105516     -0.00023092
    -0.00041197      0.00124341     -0.00062831
    -0.01712256      0.03154734     -0.05111386
    -0.00578151      0.03738397     -0.03770906
     0.00022887      0.00109955     -0.00046942
    -0.00004212     -0.00016073      0.00029663
    -0.13560179     -0.04690458     -0.46761380
     0.01058741      0.00145506     -0.02389570
    -0.00542004     -0.00050690     -0.00127325
    -0.00670256     -0.00862421     -0.00581485
    -0.08193037     -0.32130174      0.13336905
     0.28195010     -0.06221062      0.47388266
     0.19008456     -0.32387128      0.07638903
    -0.11746090     -0.12381833      0.37281432
     0.00008988      0.00023651     -0.00016773
    -0.00361868     -0.00006973      0.00577310
    -0.00536488     -0.00296881      0.00528438
     0.00121180     -0.00066140      0.00211965
     0.00014215      0.00145069     -0.00006116
    -0.00015868      0.00123492      0.00009332
     0.00002761     -0.00002145      0.00001715
     0.00344698     -0.01265602      0.00398250
    -0.00070894     -0.00409999     -0.00476589
     0.00026833      0.00025744     -0.00051635
    -0.00405090     -0.00213055      0.00499372
     0.00082299     -0.00182702      0.00054892
     0.00007749      0.00089889      0.00085412
    -0.00001397     -0.00000228      0.00002464
     0.00065352     -0.00460083     -0.00532002
    -0.00237337     -0.01450922      0.00626608
    -0.00031025      0.00016377     -0.00046272
     0.00420756     -0.00136545      0.00415323
    -0.00011028      0.00104007      0.00101256
    -0.00045290     -0.00141841      0.00047050
vibration 120
     0.00003077     -0.00004817     -0.00002571
    -0.00024269     -0.00003067      0.00018431
     0.00000080      0.00014460      0.00014098
     0.00006295      0.00009940     -0.00027075
    -0.00000883     -0.00003498     -0.00000975
     0.00000157     -0.00007681     -0.00006490
     0.00032515     -0.00009360     -0.00012988
     0.00016463      0.00007406      0.00002916
    -0.08750457     -0.00743701      0.03626505
     0.00300637      0.00302627     -0.00101236
    -0.00002431      0.00004138     -0.00003502
    -0.00021759      0.00039829     -0.00064700
    -0.00008149      0.00032370     -0.00026944
    -0.00000700      0.00001756      0.00000426
     0.00002084     -0.00000648      0.00000462
    -0.00001986     -0.00007955      0.00002729
     0.00061628      0.00032070     -0.00083703
     0.69514608      0.07208534      0.16061615
    -0.01696995     -0.02143580     -0.01487592
    -0.00100122     -0.00414046      0.00169349
     0.00359733     -0.00076831      0.00606627
     0.00180871     -0.00305942      0.00073463
    -0.00080673     -0.00080959      0.00242709
    -0.02105784      0.00918344     -0.00271312
     0.36090373      0.00649146     -0.58624552
    -0.02221766     -0.01187704      0.02091613
     0.00378962     -0.00233527      0.00606962
     0.00000256      0.00009598      0.00002336
    -0.00001691     -0.00005782     -0.00002228
     0.00001351      0.00000886     -0.00000567
     0.00001694      0.00031760     -0.00006800
     0.00003719      0.00028083      0.00043078
    -0.00021504     -0.00020133      0.00032654
     0.00286083      0.00144760     -0.00357362
    -0.00033728      0.00107261     -0.00027258
    -0.00001127     -0.00021525     -0.00002857
    -0.00000337     -0.00000719      0.00000000
     0.00003918     -0.00037534     -0.00055044
    -0.00008743     -0.00077705      0.00028076
     0.00005833      0.00002388      0.00005648
    -0.00058716      0.00019714     -0.00058748
     0.00001622     -0.00019118     -0.00021573
    -0.00004955     -0.00026038      0.00012157
vibration 121
    -0.01952691     -0.00691292     -0.06797358
     0.00733701      0.00263479     -0.01752216
    -0.00106835      0.00070342     -0.00175933
     0.00025483      0.00035212     -0.00021728
     0.00010335     -0.00004256      0.00030330
     0.00002348      0.00008980      0.00066972
    -0.00000559     -0.00007539      0.00004229
     0.00009058     -0.00001923      0.00014063
     0.00041464     -0.00015438      0.00001684
     0.00003099     -0.00065498      0.00020750
    -0.00090283      0.00032719     -0.00063342
    -0.01194951      0.01715990     -0.03208683
    -0.00132580      0.01551854     -0.01769520
     0.00072991      0.00017195     -0.00043504
     0.00020918     -0.00026161      0.00069909
     0.23450956      0.07710138      0.80391065
    -0.08508104     -0.02945981      0.21310221
    -0.00295859     -0.00027966     -0.00064557
     0.00379083      0.00543417      0.00349585
    -0.04275495     -0.17046688      0.07228157
     0.18477720     -0.04061336      0.31268231
     0.07434513     -0.12577690      0.02987466
    -0.05728874     -0.05994250      0.18117454
    -0.00066113      0.00148480     -0.00151011
    -0.00131880      0.00019158      0.00239675
    -0.00049752      0.00003111      0.00020989
    -0.00217933      0.00171056     -0.00438355
    -0.00019266      0.00006091     -0.00045862
    -0.00004004      0.00018576     -0.00035967
     0.00000469     -0.00002293      0.00003455
     0.00083777     -0.00383350      0.00121328
     0.00014182      0.00155393      0.00277332
     0.00012710      0.00011334     -0.00027383
    -0.00214003     -0.00109627      0.00256981
     0.00049489     -0.00104323      0.00031244
     0.00013401      0.00067812      0.00066852
    -0.00000645      0.00000265      0.00009670
     0.00001178      0.00167514      0.00318449
    -0.00032926     -0.00331124      0.00183533
    -0.00014635      0.00013172     -0.00042063
     0.00322026     -0.00094854      0.00301864
    -0.00035858      0.00160175      0.00167598
    -0.00070127     -0.00235015      0.00095443
vibration 122
     0.00004397      0.00001008      0.00015168
    -0.00003530      0.00002381     -0.00006175
     0.00010267     -0.00006855      0.00016294
     0.00047542      0.00066115      0.00096410
    -0.00003739      0.00006238     -0.00005149
    -0.00003207     -0.00000401     -0.00007027
    -0.00017688      0.00016463     -0.00025647
    -0.00024040     -0.00018061     -0.00046992
     0.03446486     -0.04974608      0.07281154
    -0.00068198     -0.00037362     -0.00062388
     0.00000841      0.00000380      0.00001134
     0.00003966     -0.00001460      0.00006873
    -0.00000621     -0.00001566      0.00002825
     0.00001173      0.00002458      0.00001155
    -0.00001349     -0.00000713     -0.00000740
    -0.00061264     -0.00024748     -0.00192626
     0.00000776     -0.00027973     -0.00030736
    -0.30824681     -0.04163491     -0.05047535
     0.00417784      0.00554486      0.00393260
     0.00001315      0.00006164     -0.00001390
    -0.00049343      0.00010353     -0.00083687
    -0.00005340      0.00006897     -0.00001327
     0.00008841      0.00010655     -0.00027959
    -0.28073156      0.63173169     -0.56383539
     0.18018370     -0.00535727     -0.25164027
     0.00134920      0.00090112     -0.00134851
     0.00241175     -0.00226489      0.00494753
     0.00001184      0.00000265      0.00001169
    -0.00000186      0.00010703      0.00006438
     0.00000701     -0.00000748     -0.00000558
     0.00012304     -0.00074974      0.00010424
    -0.00015061     -0.00041570     -0.00087574
    -0.00006034      0.00003657      0.00008726
     0.00055840      0.00030545     -0.00069725
     0.00010642     -0.00034217      0.00012126
    -0.00004873     -0.00034518     -0.00043325
    -0.00001065      0.00000170     -0.00000223
     0.00000943     -0.00006156     -0.00008220
    -0.00001819      0.00001912     -0.00000890
     0.00004427     -0.00002489      0.00003446
    -0.00048968      0.00013541     -0.00047812
     0.00000375      0.00002914      0.00007618
     0.00001177      0.00010474     -0.00002182
vibration 123
    -0.00003646     -0.00001276     -0.00010066
     0.00002339      0.00000915     -0.00005753
     0.00047109     -0.00071398     -0.00092073
     0.00002238     -0.00001782     -0.00000996
     0.00011222     -0.00008404      0.00033290
    -0.00011997      0.00026451      0.00045867
    -0.00001339     -0.00000482      0.00000705
    -0.00000820      0.00000395      0.00000188
     0.00019410      0.00040836     -0.00076791
    -0.03224805      0.01694893     -0.08702784
     0.00000544     -0.00001578     -0.00000113
    -0.00003629      0.00000722     -0.00005681
     0.00002177     -0.00000524     -0.00002629
     0.00000764     -0.00001042     -0.00000232
    -0.00000676      0.00000963      0.00000798
     0.00039064      0.00044884      0.00207449
    -0.00032724     -0.00006191      0.00072350
    -0.00115653     -0.00002077     -0.00033434
     0.18370636      0.23245574      0.13364053
    -0.00001545      0.00003304      0.00000610
     0.00038733     -0.00009962      0.00067444
    -0.00013540      0.00024479     -0.00005783
    -0.00013016     -0.00015672      0.00042051
     0.00217796     -0.00465173      0.00405534
    -0.00321547      0.00006753      0.00536583
    -0.19202656     -0.09955846      0.15340142
     0.38690111     -0.32927919      0.74626984
    -0.00000954     -0.00010947     -0.00005539
     0.00000849     -0.00002026     -0.00000862
    -0.00000855      0.00000021      0.00000384
    -0.00005213      0.00019303     -0.00003427
     0.00002724      0.00006975      0.00014494
     0.00003237      0.00000053     -0.00002695
    -0.00029138     -0.00015581      0.00035830
    -0.00003790      0.00010111     -0.00004428
     0.00000371      0.00004749      0.00004479
     0.00001256      0.00000895      0.00001136
    -0.00002870      0.00049472      0.00085534
     0.00007161      0.00065125     -0.00015644
    -0.00014879     -0.00005628     -0.00021004
     0.00163038     -0.00051337      0.00158560
    -0.00006756      0.00081208      0.00097731
     0.00005239      0.00031366     -0.00010033
[INT]
    0.346997
    0.576129
    0.868746
    0.590739
    3.974128
    0.468413
    1.303053
    3.150395
    8.736256
    0.476687
    2.889896
    0.928265
    1.913401
    0.135809
    0.900741
    3.279247
    1.884151
    0.621227
    4.799259
    2.313571
    0.812784
    6.744541
    3.842874
   11.498518
    2.127419
   10.321647
    5.986101
    4.473099
    7.018801
   10.346090
    5.984614
   17.358979
    5.982113
    1.752585
    1.502802
    9.058086
    2.089254
    2.441726
    0.590673
   15.959427
    3.280244
    8.256199
    6.693577
    8.339015
   15.366357
   68.048270
   11.734013
    4.104548
    7.731831
   10.285759
    8.892671
   14.745694
   32.390753
   52.021645
   17.268944
    5.559128
  355.142945
   29.406184
    6.959897
   17.225505
   13.690805
    7.846180
   49.250226
   35.891101
  184.094999
   53.218441
    9.479460
    3.080080
   10.810056
   85.168573
  322.282942
    9.812996
    3.899637
   32.740989
    3.810108
   11.783485
   14.600588
    2.353625
    4.795017
  110.941627
   59.751216
    8.572492
    3.438544
   13.413815
   24.828803
    2.749857
    1.871302
    0.438009
   10.493412
    7.492137
    9.249114
    7.934721
    0.658325
   15.873208
   11.621110
    8.751091
   11.297547
   13.410015
   13.146643
   94.364986
  284.820893
   67.141792
   58.684666
   82.170363
   66.463198
   51.072641
   48.460961
   30.124237
   39.295846
   11.213615
   28.802834
   31.380312
    6.834185
    3.149509
    4.441829
   28.203138
   23.090148
   24.040935
   19.709169
   15.480506
   16.126759
   13.662203
   15.094656

======= END OF MOLDEN-FORMATTED INPUT FILE =======


        *************************************************************
        *                                                           *
        *  Thank you very much for using Q-Chem.  Have a nice day.  *
        *                                                           *
        *************************************************************


