r0168.ten.osc.edu 10.25.155
Q-Chem Developer Version! Running on 10.25.155.*
                  Welcome to Q-Chem
     A Quantum Leap Into The Future Of Chemistry


 Q-Chem 5.0, Q-Chem, Inc., Pleasanton, CA (2017)

 Yihan Shao,  Zhengting Gan,  E. Epifanovsky,  A. T. B. Gilbert,  M. Wormit,  
 J. Kussmann,  A. W. Lange,  A. Behn,  Jia Deng,  Xintian Feng,  D. Ghosh,  
 M. Goldey,  P. R. Horn,  L. D. Jacobson,  I. Kaliman,  T. Kus,  A. Landau,  
 Jie Liu,  E. I. Proynov,  R. M. Richard,  R. P. Steele,  E. J. Sundstrom,  
 H. L. Woodcock III,  P. M. Zimmerman,  D. Zuev,  B. Albrecht,  E. Alguire,  
 S. A. Baeppler,  Z. Benda,  Y. A. Bernard,  E. J. Berquist,  K. B. Bravaya,  
 D. Casanova,  Chun-Min Chang,  Yunqing Chen,  A. Chien,  K. D. Closser,  
 M. P. Coons,  S. Dasgupta,  M. Diedenhofen,  Hainam Do,  R. G. Edgar,  
 Po-Tung Fang,  S. Fatehi,  Qingguo Feng,  Qinghui Ge,  A. Ghysels,  
 J. Gomes,  J. Gonthier,  A. Gunina,  M. W. D. Hanson-Heine,  
 P. H. P. Harbach,  A. W. Hauser,  J. E. Herr,  E. G. Hohenstein,  
 Z. C. Holden,  Kerwin Hui,  T.-C. Jagau,  Hyunjun Ji,  B. Kaduk,  
 K. Khistyaev,  Jaehoon Kim,  P. Klunzinger,  K. Koh,  D. Kosenkov,  
 T. Kowalczyk,  C. M. Krauter,  A. Kunitsa,  Ka Un Lao,  A. Laurent,  
 K. V. Lawler,  Joonho Lee,  D. Lefrancois,  S. Lehtola,  D. S. Levine,  
 Yi-Pei Li,  You-Sheng Lin,  Fenglai Liu,  E. Livshits,  A. Luenser,  
 P. Manohar,  E. Mansoor,  S. F. Manzer,  Shan-Ping Mao,  Yuezhi Mao,  
 N. Mardirossian,  A. V. Marenich,  L. A. Martinez-Martinez,  S. A. Maurer,  
 N. J. Mayhall,  S. C. McKenzie,  J.-M. Mewes,  A. F. Morrison,  K. Nanda,  
 T. S. Nguyen-Beck,  R. Olivares-Amaya,  J. A. Parkhill,  T. M. Perrine,  
 F. Plasser,  S. Prager,  A. Prociuk,  D. R. Rehn,  F. Rob,  M. Schneider,  
 N. Sergueev,  S. M. Sharada,  S. Sharma,  D. W. Small,  T. Stauch,  
 T. Stein,  Yu-Chuan Su,  A. J. W. Thom,  T. Tsuchimochi,  L. Vogt,  
 O. Vydrov,  M. A. Watson,  J. Wenzel,  M. de Wergifosse,  T. A. Wesolowski,  
 A. White,  J. Witte,  A. Yamada,  Jun Yang,  K. Yao,  S. Yeganeh,  
 S. R. Yost,  Zhi-Qiang You,  A. Zech,  Igor Ying Zhang,  Xing Zhang,  
 Yan Zhao,  Ying Zhu,  B. R. Brooks,  G. K. L. Chan,  C. J. Cramer,  
 M. S. Gordon,  W. J. Hehre,  A. Klamt,  M. W. Schmidt,  C. D. Sherrill,  
 D. G. Truhlar,  A. Aspuru-Guzik,  R. Baer,  A. T. Bell,  N. A. Besley,  
 Jeng-Da Chai,  A. Dreuw,  B. D. Dunietz,  T. R. Furlani,  Chao-Ping Hsu,  
 Yousung Jung,  Jing Kong,  D. S. Lambrecht,  WanZhen Liang,  C. Ochsenfeld,  
 V. A. Rassolov,  L. V. Slipchenko,  J. E. Subotnik,  T. Van Voorhis,  
 J. M. Herbert,  A. I. Krylov,  P. M. W. Gill,  M. Head-Gordon

 Contributors to earlier versions of Q-Chem not listed above: 
 R. D. Adamson,  B. Austin,  J. Baker,  G. J. O. Beran,  K. Brandhorst,  
 S. T. Brown,  E. F. C. Byrd,  A. K. Chakraborty,  C.-L. Cheng,  
 Siu Hung Chien,  D. M. Chipman,  D. L. Crittenden,  H. Dachsel,  
 R. A. DiStasio Jr.,  R. J. Doerksen,  A. D. Dutoi,  L. Fusti-Molnar,  
 W. A. Goddard III,  A. Golubeva-Zadorozhnaya,  S. R. Gwaltney,  G. Hawkins,  
 A. Heyden,  S. Hirata,  G. Kedziora,  F. J. Keil,  C. Kelley,  Jihan Kim,  
 R. A. King,  R. Z. Khaliullin,  P. P. Korambath,  W. Kurlancheek,  
 A. M. Lee,  M. S. Lee,  S. V. Levchenko,  Ching Yeh Lin,  D. Liotard,  
 R. C. Lochan,  I. Lotan,  P. E. Maslen,  N. Nair,  D. P. O'Neill,  
 D. Neuhauser,  E. Neuscamman,  C. M. Oana,  R. Olson,  B. Peters,  
 R. Peverati,  P. A. Pieniazek,  Y. M. Rhee,  J. Ritchie,  M. A. Rohrdanz,  
 E. Rosta,  N. J. Russ,  H. F. Schaefer III,  N. E. Schultz,  N. Shenvi,  
 A. C. Simmonett,  A. Sodt,  D. Stuck,  K. S. Thanthiriwatte,  V. Vanovschi,  
 Tao Wang,  A. Warshel,  C. F. Williams,  Q. Wu,  X. Xu,  W. Zhang

 Please cite Q-Chem as follows:
 Y. Shao et al., Mol. Phys. 113, 184-215 (2015)
 DOI: 10.1080/00268976.2014.952696

 Q-Chem 5.0.1 for Intel X86 EM64T Linux

 Parts of Q-Chem use Armadillo 5.200.1 (Boston Tea Smuggler).
 http://arma.sourceforge.net/

 Q-Chem begins on Tue Oct 24 10:21:21 2017  

Host: r0168.ten.osc.edu
0

     Scratch files written to /tmp/pbstmp.1324400/01//
Processing $rem in /users/PAS0291/osu6415/.qchemrc.
molden_format             true

Checking the input file for inconsistencies... 	...done.

--------------------------------------------------------------
User input:
--------------------------------------------------------------
$molecule
0 1
C -0.70951056 -0.10899219 -0.68496667
C 0.83638900 0.21113072 -0.65377814
C -1.67482224 0.97610532 -0.23393834
C 1.34072833 1.47384339 0.04043119
O -1.98969910 1.75535191 -1.29518265
O -2.16124054 1.12484907 0.85848375
O 0.37032789 2.34371123 0.35244016
O 2.50995159 1.70311101 0.24226579
C 0.77410021 3.56413091 0.99773164
C -2.88151191 2.84749206 -1.02727800
C -0.76505007 -1.45721993 0.11843442
C -0.34824387 -2.57401018 -0.86342816
C 1.15902743 -2.26688416 -1.04113589
C 1.37631392 -1.11969576 -0.01424090
O 0.37851548 -1.37630420 0.98722784
H -0.98489720 -0.30133999 -1.72095687
H 1.21915555 0.30609208 -1.67209171
H 1.41159885 4.15112362 0.33489566
H -2.43156735 3.53823290 -0.31163639
H -0.50360622 -3.54619040 -0.39140729
H -0.92375532 -2.55126980 -1.78860192
H 1.78131969 -3.12209598 -0.77595655
H 1.43374321 -1.96457357 -2.05149590
H -0.15167865 4.09219220 1.21443625
H 1.31376996 3.34488700 1.91944878
H -3.82728346 2.48088661 -0.62536729
H -3.03745991 3.33961812 -1.98506981
C -2.00970624 -1.75363404 0.92846863
C 2.75424909 -1.13596288 0.61539478
O 3.69832449 -1.03836212 -0.43648373
H 2.87013802 -2.08810017 1.15441447
H 2.87620072 -0.31892580 1.33033159
C 4.98668715 -0.65244390 0.00571735
H 5.62770232 -0.61199024 -0.87547088
H 5.40363909 -1.38133059 0.71564600
H 4.95526268 0.33692548 0.47705367
O -3.10362662 -1.74443744 0.02230439
H -2.14123453 -0.99971974 1.70748995
H -1.90378929 -2.74241362 1.39768795
C -4.35904288 -1.78281236 0.67461617
H -5.12495155 -1.77342593 -0.10160170
H -4.49026317 -0.90912072 1.32599925
H -4.47080027 -2.69626937 1.27565646
$end

$rem
sym_ignore      true
jobtype         opt
method          b3lyp
basis           6-311++G(d,p)
dft_d           d3_op
mem_total       62000
MEM_STATIC      4000
ao2mo_disk      350000
max_scf_cycles  200
geom_opt_max_cycles 1000
geom_opt_tol_displacement 1
GEOM_OPT_TOL_GRADIENT       1
GEOM_OPT_TOL_ENERGY         1
$end

--------------------------------------------------------------
 Adding empirical dispersion correction 
 ----------------------------------------------------------------
 Doing -D3(op) with
 s6 =   1.00000
 s8 =   0.78311
 a1 =   0.30000
 a2 =   4.25000
 n  =  10.00000
 -D3 energy without 3body term =     -0.0501638870 hartrees
 ----------------------------------------------------------------
             Standard Nuclear Orientation (Angstroms)
    I     Atom           X                Y                Z
 ----------------------------------------------------------------
    1      C      -0.7095105600    -0.1089921900    -0.6849666700
    2      C       0.8363890000     0.2111307200    -0.6537781400
    3      C      -1.6748222400     0.9761053200    -0.2339383400
    4      C       1.3407283300     1.4738433900     0.0404311900
    5      O      -1.9896991000     1.7553519100    -1.2951826500
    6      O      -2.1612405400     1.1248490700     0.8584837500
    7      O       0.3703278900     2.3437112300     0.3524401600
    8      O       2.5099515900     1.7031110100     0.2422657900
    9      C       0.7741002100     3.5641309100     0.9977316400
   10      C      -2.8815119100     2.8474920600    -1.0272780000
   11      C      -0.7650500700    -1.4572199300     0.1184344200
   12      C      -0.3482438700    -2.5740101800    -0.8634281600
   13      C       1.1590274300    -2.2668841600    -1.0411358900
   14      C       1.3763139200    -1.1196957600    -0.0142409000
   15      O       0.3785154800    -1.3763042000     0.9872278400
   16      H      -0.9848972000    -0.3013399900    -1.7209568700
   17      H       1.2191555500     0.3060920800    -1.6720917100
   18      H       1.4115988500     4.1511236200     0.3348956600
   19      H      -2.4315673500     3.5382329000    -0.3116363900
   20      H      -0.5036062200    -3.5461904000    -0.3914072900
   21      H      -0.9237553200    -2.5512698000    -1.7886019200
   22      H       1.7813196900    -3.1220959800    -0.7759565500
   23      H       1.4337432100    -1.9645735700    -2.0514959000
   24      H      -0.1516786500     4.0921922000     1.2144362500
   25      H       1.3137699600     3.3448870000     1.9194487800
   26      H      -3.8272834600     2.4808866100    -0.6253672900
   27      H      -3.0374599100     3.3396181200    -1.9850698100
   28      C      -2.0097062400    -1.7536340400     0.9284686300
   29      C       2.7542490900    -1.1359628800     0.6153947800
   30      O       3.6983244900    -1.0383621200    -0.4364837300
   31      H       2.8701380200    -2.0881001700     1.1544144700
   32      H       2.8762007200    -0.3189258000     1.3303315900
   33      C       4.9866871500    -0.6524439000     0.0057173500
   34      H       5.6277023200    -0.6119902400    -0.8754708800
   35      H       5.4036390900    -1.3813305900     0.7156460000
   36      H       4.9552626800     0.3369254800     0.4770536700
   37      O      -3.1036266200    -1.7444374400     0.0223043900
   38      H      -2.1412345300    -0.9997197400     1.7074899500
   39      H      -1.9037892900    -2.7424136200     1.3976879500
   40      C      -4.3590428800    -1.7828123600     0.6746161700
   41      H      -5.1249515500    -1.7734259300    -0.1016017000
   42      H      -4.4902631700    -0.9091207200     1.3259992500
   43      H      -4.4708002700    -2.6962693700     1.2756564600
 ----------------------------------------------------------------
 Nuclear Repulsion Energy =  1970.1814546685 hartrees
 There are       81 alpha and       81 beta electrons
 Requested basis set is 6-311++G(d,p)
 There are 236 shells and 616 basis functions

 Total QAlloc Memory Limit  62000 MB
 Mega-Array Size      3911 MB
 MEM_STATIC part      4000 MB
 A cutoff of  1.0D-11 yielded  21089 shell pairs
 There are    145175 function pairs (    154334 Cartesian)
 
 -------------------------------------------------------
 OpenMP Integral Computing Module                       
 Release: version 1.0, May 2013, Q-Chem Inc. Pittsburgh 
 -------------------------------------------------------
 Integral Job Info:
 Integral job number is                      11
 Integral operator is                         1
 short-range coefficients                     0
 long-range coefficients              100000000
 Omega coefficients                           0
 if combine SR and LR in K                    0
 Integral screening is                        0
 Integral computing path is                   2
 max size of driver memory is            800000
 size of driver memory is                593474
 size of scratch memory is              2361544
 max col of scratch BK array               1296
 max len of scratch array in speh3          155
 max len of scratch index in speh4           18
 max int batch size is                      520
 min int batch size is                       52
 fixed nKL is                                52
 max L of basis functions is                  2
 order of int derivative is                   0
 number of shells is                        236
 number of basis is                         637
 number of cartesian basis is               637
 number of contracted shell pairs         21089
 number of primitive shell pairs          45443
 maxK2 (contraction) of shell pair           36
 max number of K2 of shell pair               1
 max number of CS2 of shell pair           4153
 max number of PS2 of shell pair           6798
 mem total for path MDJ                  254792
 -------------------------------------------------------
 Smallest overlap matrix eigenvalue = 2.78E-07

 Q-Chem warning in module /fs/scratch/osu6415/qchem-kaunlao-vdw/stvman/mkSTV.C, line 281:

 Overlap eigenvalue is smaller than square root of threshold

 Linear dependence detected in AO basis
 Number of orthogonalized atomic orbitals = 614
 Maximum deviation from orthogonality = 2.086E-10

 Scale SEOQF with 1.000000e-02/1.000000e-01/1.000000e-01

 Standard Electronic Orientation quadrupole field applied
 Nucleus-field energy     =     0.0000000326 hartrees
 Guess from superposition of atomic densities
 Warning:  Energy on first SCF cycle will be non-variational
 A restricted hybrid HF-DFT SCF calculation will be
 performed using Pulay DIIS extrapolation
 Exchange:     0.2000 Hartree-Fock + 0.0800 Slater + 0.7200 B88
 Correlation:  0.1900 VWN1RPA + 0.8100 LYP
 Using SG-1 standard quadrature grid
 Dispersion:   Grimme D3
 SCF converges when DIIS error is below 1.0E-08
 using 20 threads for integral computing
 -------------------------------------------------------
 OpenMP Integral computing Module                
 Release: version 1.0, May 2013, Q-Chem Inc. Pittsburgh 
 -------------------------------------------------------
 -------------------------------------------------------
 OpenMP BLAS3 based DFT computing Module                
 Release: version 1.0, May 2013, Q-Chem Inc. Pittsburgh 
 -------------------------------------------------------
 ---------------------------------------
  Cycle       Energy         DIIS Error
 ---------------------------------------
    1   -1077.7957324852      2.54E-02
    2   -1073.2573617071      3.08E-03
    3   -1072.7225727873      5.04E-03
    4   -1073.5730858082      1.19E-03
    5   -1073.6224135482      3.38E-04
    6   -1073.6257501500      1.26E-04
    7   -1073.6262803468      2.78E-05
    8   -1073.6263062292      8.55E-06
    9   -1073.6263089949      2.36E-06
   10   -1073.6263091398      1.35E-06
   11   -1073.6263091997      2.80E-07
   12   -1073.6263092024      8.90E-08
   13   -1073.6263092020      2.60E-08
   14   -1073.6263092083      1.12E-08
   15   -1073.6263092068      4.20E-09 Convergence criterion met
 ---------------------------------------
 SCF time:  CPU 2019.88 s  wall 128.55 s
 SCF   energy in the final basis set = -1073.62630921
 Total energy in the final basis set = -1073.62630921
 
 --------------------------------------------------------------
 
                    Orbital Energies (a.u.)
 --------------------------------------------------------------
 
 Alpha MOs
 -- Occupied --
-19.178 -19.167 -19.133 -19.129 -19.123 -19.117 -19.109 -10.311
-10.303 -10.241 -10.237 -10.233 -10.226 -10.215 -10.213 -10.212
-10.209 -10.206 -10.200 -10.172 -10.171  -1.122  -1.108  -1.067
 -1.039  -1.035  -1.030  -1.022  -0.828  -0.800  -0.781  -0.749
 -0.734  -0.727  -0.693  -0.660  -0.647  -0.632  -0.601  -0.578
 -0.566  -0.554  -0.529  -0.518  -0.508  -0.500  -0.490  -0.489
 -0.482  -0.481  -0.479  -0.474  -0.471  -0.461  -0.454  -0.451
 -0.429  -0.422  -0.420  -0.416  -0.409  -0.399  -0.396  -0.385
 -0.372  -0.367  -0.359  -0.354  -0.351  -0.350  -0.339  -0.327
 -0.326  -0.323  -0.317  -0.306  -0.287  -0.280  -0.274  -0.262
 -0.259
 -- Virtual --
 -0.016  -0.009  -0.005  -0.000   0.003   0.007   0.011   0.015
  0.023   0.026   0.027   0.031   0.038   0.039   0.043   0.043
  0.046   0.048   0.053   0.062   0.064   0.064   0.065   0.075
  0.078   0.080   0.083   0.090   0.096   0.098   0.101   0.104
  0.109   0.111   0.112   0.115   0.118   0.120   0.121   0.124
  0.127   0.129   0.132   0.133   0.134   0.137   0.138   0.141
  0.142   0.147   0.147   0.149   0.152   0.155   0.158   0.161
  0.163   0.164   0.166   0.167   0.169   0.173   0.174   0.176
  0.180   0.182   0.185   0.187   0.189   0.192   0.201   0.202
  0.203   0.206   0.210   0.211   0.216   0.219   0.221   0.227
  0.228   0.233   0.234   0.241   0.243   0.250   0.254   0.256
  0.262   0.266   0.266   0.271   0.272   0.275   0.279   0.281
  0.284   0.286   0.290   0.298   0.303   0.304   0.306   0.307
  0.311   0.317   0.318   0.323   0.327   0.330   0.334   0.338
  0.342   0.347   0.348   0.353   0.355   0.360   0.364   0.367
  0.367   0.370   0.374   0.381   0.383   0.385   0.389   0.391
  0.398   0.400   0.405   0.408   0.414   0.423   0.428   0.434
  0.439   0.440   0.450   0.454   0.466   0.469   0.472   0.478
  0.484   0.487   0.492   0.493   0.508   0.515   0.515   0.520
  0.528   0.534   0.548   0.557   0.559   0.568   0.571   0.576
  0.579   0.589   0.598   0.600   0.608   0.613   0.618   0.627
  0.635   0.640   0.643   0.651   0.653   0.657   0.669   0.672
  0.675   0.681   0.684   0.689   0.695   0.696   0.703   0.710
  0.711   0.712   0.719   0.724   0.732   0.735   0.739   0.744
  0.749   0.753   0.758   0.762   0.764   0.773   0.778   0.781
  0.785   0.796   0.801   0.809   0.817   0.835   0.843   0.852
  0.857   0.875   0.879   0.907   0.914   0.933   0.970   0.979
  0.998   1.007   1.018   1.031   1.047   1.054   1.057   1.073
  1.076   1.082   1.089   1.098   1.103   1.114   1.126   1.131
  1.148   1.159   1.165   1.184   1.199   1.203   1.209   1.214
  1.232   1.235   1.256   1.265   1.273   1.286   1.293   1.308
  1.311   1.322   1.336   1.346   1.348   1.361   1.370   1.377
  1.378   1.396   1.417   1.419   1.425   1.438   1.444   1.447
  1.449   1.463   1.465   1.471   1.479   1.489   1.495   1.516
  1.521   1.536   1.542   1.557   1.563   1.567   1.567   1.576
  1.582   1.584   1.591   1.595   1.602   1.606   1.616   1.626
  1.630   1.638   1.649   1.653   1.660   1.662   1.670   1.675
  1.680   1.683   1.695   1.712   1.715   1.720   1.729   1.735
  1.739   1.746   1.752   1.757   1.758   1.770   1.778   1.792
  1.799   1.803   1.811   1.811   1.830   1.830   1.847   1.850
  1.859   1.862   1.874   1.889   1.895   1.912   1.925   1.934
  1.946   1.949   1.973   1.979   1.987   1.995   2.008   2.019
  2.047   2.054   2.059   2.072   2.093   2.100   2.117   2.120
  2.123   2.133   2.142   2.146   2.151   2.155   2.175   2.195
  2.199   2.206   2.228   2.235   2.244   2.260   2.278   2.298
  2.304   2.314   2.348   2.365   2.381   2.390   2.425   2.428
  2.449   2.457   2.459   2.467   2.488   2.497   2.509   2.513
  2.515   2.525   2.529   2.534   2.535   2.546   2.550   2.553
  2.565   2.570   2.574   2.584   2.590   2.599   2.605   2.616
  2.648   2.666   2.677   2.686   2.689   2.692   2.704   2.732
  2.745   2.760   2.794   2.812   2.826   2.843   2.858   2.863
  2.870   2.877   2.892   2.898   2.921   2.926   2.926   2.947
  2.964   2.976   2.982   2.990   3.005   3.017   3.030   3.039
  3.049   3.054   3.067   3.070   3.091   3.100   3.104   3.122
  3.132   3.139   3.142   3.172   3.180   3.188   3.209   3.215
  3.224   3.232   3.240   3.254   3.260   3.274   3.294   3.306
  3.335   3.346   3.371   3.390   3.410   3.415   3.442   3.555
  3.601   3.623   3.671   3.683   3.698   3.767   3.778   3.785
  3.789   3.795   3.814   3.823   3.835   3.850   3.860   3.882
  3.948   3.965   4.015   4.078   4.090   4.103   4.117   4.138
  4.143   4.149   4.152   4.174   4.191   4.196   4.269   4.291
  4.340   4.455   4.518   5.040   5.088   5.109   5.141   5.153
  5.208   5.242   5.294   5.318   5.425   5.436   5.457   5.475
  5.522   5.622   5.655   5.665   5.714   5.754   5.905   5.930
 23.764  23.838  23.852  23.862  23.897  23.900  23.909  23.936
 23.942  23.946  23.950  23.971  23.985  24.034  49.920  49.943
 49.968  49.985  50.014  50.045  50.061
 --------------------------------------------------------------
 
          Ground-State Mulliken Net Atomic Charges

     Atom                 Charge (a.u.)
  ----------------------------------------
      1 C                     0.322421
      2 C                     0.124712
      3 C                    -0.996627
      4 C                    -0.481319
      5 O                     0.090401
      6 O                    -0.129461
      7 O                    -0.070519
      8 O                    -0.212292
      9 C                    -0.204725
     10 C                    -0.145446
     11 C                    -0.791030
     12 C                    -0.272213
     13 C                    -0.383900
     14 C                    -0.433795
     15 O                     0.081723
     16 H                     0.317129
     17 H                     0.245607
     18 H                     0.189168
     19 H                     0.156406
     20 H                     0.177644
     21 H                     0.173748
     22 H                     0.186641
     23 H                     0.186667
     24 H                     0.153657
     25 H                     0.185847
     26 H                     0.169159
     27 H                     0.151189
     28 C                     0.135966
     29 C                     0.008287
     30 O                    -0.023838
     31 H                     0.159401
     32 H                     0.204978
     33 C                    -0.250349
     34 H                     0.138168
     35 H                     0.125986
     36 H                     0.157626
     37 O                    -0.025513
     38 H                     0.245523
     39 H                     0.147239
     40 C                    -0.226428
     41 H                     0.139927
     42 H                     0.139947
     43 H                     0.132286
  ----------------------------------------
  Sum of atomic charges =     0.000000

 -----------------------------------------------------------------
                    Cartesian Multipole Moments
 -----------------------------------------------------------------
    Charge (ESU x 10^10)
                 0.0000
    Dipole Moment (Debye)
         X      -1.1273      Y       1.1798      Z      -0.5598
       Tot       1.7251
    Quadrupole Moments (Debye-Ang)
        XX    -120.5643     XY      -2.8282     YY    -113.0131
        XZ       2.8528     YZ      -1.0959     ZZ    -126.7862
    Octopole Moments (Debye-Ang^2)
       XXX     -25.2560    XXY      -0.6911    XYY     -18.9932
       YYY      74.3786    XXZ      11.8434    XYZ      12.7042
       YYZ      10.1148    XZZ       2.5053    YZZ      12.7848
       ZZZ      -1.7591
    Hexadecapole Moments (Debye-Ang^3)
      XXXX   -4225.6353   XXXY      -2.4871   XXYY   -1203.0278
      XYYY       0.3062   YYYY   -2530.0430   XXXZ      17.8186
      XXYZ     -75.5460   XYYZ      20.0614   YYYZ      -1.1360
      XXZZ    -872.7787   XYZZ      25.9748   YYZZ    -548.0859
      XZZZ       0.3255   YZZZ       2.0010   ZZZZ    -613.5737
 -----------------------------------------------------------------
 Calculating analytic gradient of the SCF energy
 Gradient of SCF Energy
            1           2           3           4           5           6
    1  -0.0000889  -0.0000736   0.0005546  -0.0000183   0.0000195  -0.0004059
    2  -0.0003958   0.0001208   0.0004842   0.0001285   0.0000054  -0.0002978
    3   0.0005139  -0.0004962   0.0000404  -0.0001943  -0.0000083  -0.0001382
            7           8           9          10          11          12
    1   0.0000093   0.0000079  -0.0000089  -0.0000109   0.0000027   0.0000476
    2  -0.0000115  -0.0000924   0.0000104  -0.0000113  -0.0000041  -0.0000049
    3   0.0000119   0.0001930  -0.0000113  -0.0000189   0.0000372  -0.0000007
           13          14          15          16          17          18
    1  -0.0000306  -0.0000284   0.0000015  -0.0000226   0.0000294  -0.0000028
    2  -0.0000027   0.0000205   0.0000295  -0.0000139   0.0000339  -0.0000006
    3  -0.0000051   0.0000491  -0.0000027   0.0000026   0.0000110   0.0000013
           19          20          21          22          23          24
    1  -0.0000043   0.0000058   0.0000035   0.0000020   0.0000242  -0.0000108
    2  -0.0000018  -0.0000072   0.0000065  -0.0000004  -0.0000049   0.0000034
    3  -0.0000137  -0.0000003   0.0000043   0.0000271   0.0000093  -0.0000101
           25          26          27          28          29          30
    1  -0.0000184  -0.0000023  -0.0000032  -0.0000134   0.0000132   0.0000147
    2   0.0000048  -0.0000083  -0.0000098  -0.0000122   0.0000092  -0.0000033
    3   0.0000049  -0.0000099  -0.0000132  -0.0000070   0.0000057   0.0000048
           31          32          33          34          35          36
    1   0.0000004  -0.0000020  -0.0000091   0.0000051   0.0000023  -0.0000018
    2   0.0000048   0.0000012   0.0000250   0.0000085   0.0000114   0.0000088
    3  -0.0000017   0.0000092   0.0000142   0.0000170   0.0000172   0.0000134
           37          38          39          40          41          42
    1  -0.0000020   0.0000056  -0.0000031   0.0000132   0.0000019  -0.0000040
    2   0.0000097  -0.0000025  -0.0000034  -0.0000143  -0.0000101  -0.0000062
    3  -0.0000017  -0.0000019  -0.0000089  -0.0000150  -0.0000109  -0.0000108
           43
    1   0.0000005
    2  -0.0000070
    3  -0.0000069
 Max gradient component =       5.546E-04
 RMS gradient           =       1.125E-04
 Gradient time:  CPU 678.44 s  wall 53.63 s
 Geometry Optimization Parameters
   NAtoms,    NIC,     NZ,  NCons,   NDum,   NFix, NCnnct, MaxDiis
       43     325       0       0       0       0       0       0


** GEOMETRY OPTIMIZATION IN DELOCALIZED INTERNAL COORDINATES **
   Searching for a Minimum

   Optimization Cycle:   1

                       Coordinates (Angstroms)
     ATOM                X               Y               Z
      1  C        -0.7095105600   -0.1089921900   -0.6849666700
      2  C         0.8363890000    0.2111307200   -0.6537781400
      3  C        -1.6748222400    0.9761053200   -0.2339383400
      4  C         1.3407283300    1.4738433900    0.0404311900
      5  O        -1.9896991000    1.7553519100   -1.2951826500
      6  O        -2.1612405400    1.1248490700    0.8584837500
      7  O         0.3703278900    2.3437112300    0.3524401600
      8  O         2.5099515900    1.7031110100    0.2422657900
      9  C         0.7741002100    3.5641309100    0.9977316400
     10  C        -2.8815119100    2.8474920600   -1.0272780000
     11  C        -0.7650500700   -1.4572199300    0.1184344200
     12  C        -0.3482438700   -2.5740101800   -0.8634281600
     13  C         1.1590274300   -2.2668841600   -1.0411358900
     14  C         1.3763139200   -1.1196957600   -0.0142409000
     15  O         0.3785154800   -1.3763042000    0.9872278400
     16  H        -0.9848972000   -0.3013399900   -1.7209568700
     17  H         1.2191555500    0.3060920800   -1.6720917100
     18  H         1.4115988500    4.1511236200    0.3348956600
     19  H        -2.4315673500    3.5382329000   -0.3116363900
     20  H        -0.5036062200   -3.5461904000   -0.3914072900
     21  H        -0.9237553200   -2.5512698000   -1.7886019200
     22  H         1.7813196900   -3.1220959800   -0.7759565500
     23  H         1.4337432100   -1.9645735700   -2.0514959000
     24  H        -0.1516786500    4.0921922000    1.2144362500
     25  H         1.3137699600    3.3448870000    1.9194487800
     26  H        -3.8272834600    2.4808866100   -0.6253672900
     27  H        -3.0374599100    3.3396181200   -1.9850698100
     28  C        -2.0097062400   -1.7536340400    0.9284686300
     29  C         2.7542490900   -1.1359628800    0.6153947800
     30  O         3.6983244900   -1.0383621200   -0.4364837300
     31  H         2.8701380200   -2.0881001700    1.1544144700
     32  H         2.8762007200   -0.3189258000    1.3303315900
     33  C         4.9866871500   -0.6524439000    0.0057173500
     34  H         5.6277023200   -0.6119902400   -0.8754708800
     35  H         5.4036390900   -1.3813305900    0.7156460000
     36  H         4.9552626800    0.3369254800    0.4770536700
     37  O        -3.1036266200   -1.7444374400    0.0223043900
     38  H        -2.1412345300   -0.9997197400    1.7074899500
     39  H        -1.9037892900   -2.7424136200    1.3976879500
     40  C        -4.3590428800   -1.7828123600    0.6746161700
     41  H        -5.1249515500   -1.7734259300   -0.1016017000
     42  H        -4.4902631700   -0.9091207200    1.3259992500
     43  H        -4.4708002700   -2.6962693700    1.2756564600
   Point Group: c1    Number of degrees of freedom:   123


   Energy is  -1073.626309207


 Attempting to Generate Delocalized Internal Coordinates

123 Hessian modes will be used to form the next step
  Hessian Eigenvalues:
     0.003126    0.005651    0.006434    0.007186    0.007190    0.007284
     0.010050    0.010153    0.010572    0.010986    0.012931    0.013426
     0.013562    0.013622    0.021765    0.023265    0.023577    0.025213
     0.033890    0.035697    0.037178    0.038659    0.044017    0.044758
     0.048941    0.050793    0.054559    0.055433    0.056610    0.056639
     0.057206    0.061887    0.062068    0.063043    0.065399    0.066197
     0.081129    0.085824    0.095238    0.100701    0.100724    0.101365
     0.101418    0.103496    0.105113    0.105385    0.105970    0.106309
     0.109145    0.109826    0.110177    0.121425    0.124793    0.135224
     0.135754    0.153479    0.160000    0.160000    0.160000    0.160000
     0.160000    0.160000    0.160000    0.160000    0.160000    0.160000
     0.160000    0.160000    0.177882    0.219830    0.220101    0.231362
     0.231932    0.249718    0.249796    0.250000    0.250000    0.250000
     0.250000    0.250000    0.250000    0.253280    0.254314    0.258528
     0.277347    0.297329    0.302942    0.308472    0.309196    0.334040
     0.336551    0.337262    0.337289    0.337757    0.339423    0.340883
     0.345253    0.345767    0.345775    0.345811    0.346029    0.346218
     0.346902    0.346955    0.347534    0.347634    0.347674    0.347717
     0.348345    0.348351    0.349183    0.350379    0.350913    0.398123
     0.402475    0.423820    0.429497    0.431066    0.431772    0.542333
     0.571969    1.006829    1.023324

 Minimum Search - Taking Simple RFO Step
 Searching for Lamda that Minimizes Along All modes
 Value Taken    Lamda =  -0.00004320
 Step Taken.  Stepsize is  0.075777

                             Maximum     Tolerance    Cnvgd?
         Gradient           0.000320      0.000001      NO
         Displacement       0.046828      0.000001      NO
         Energy change     *********      0.000000      NO


 New Cartesian Coordinates Obtained by Inverse Iteration

 Displacement from previous Coordinates is:  0.113419
 Adding empirical dispersion correction 
 ----------------------------------------------------------------
 Doing -D3(op) with
 s6 =   1.00000
 s8 =   0.78311
 a1 =   0.30000
 a2 =   4.25000
 n  =  10.00000
 -D3 energy without 3body term =     -0.0501643257 hartrees
 ----------------------------------------------------------------
             Standard Nuclear Orientation (Angstroms)
    I     Atom           X                Y                Z
 ----------------------------------------------------------------
    1      C      -0.7096985592    -0.1089080537    -0.6863115644
    2      C       0.8363760582     0.2106410150    -0.6533467159
    3      C      -1.6743202996     0.9757897253    -0.2329336230
    4      C       1.3405296128     1.4739835563     0.0397556820
    5      O      -2.0025231577     1.7472510340    -1.2958230196
    6      O      -2.1335363482     1.1433098589     0.8685025884
    7      O       0.3688763470     2.3402322351     0.3579312088
    8      O       2.5106512916     1.7113105711     0.2264202236
    9      C       0.7726246623     3.5642673929     0.9963410972
   10      C      -2.8841550355     2.8464564945    -1.0231830934
   11      C      -0.7652379602    -1.4573530463     0.1170003540
   12      C      -0.3476782114    -2.5741645544    -0.8645339120
   13      C       1.1597421425    -2.2669299729    -1.0412381129
   14      C       1.3762375225    -1.1200858054    -0.0138202613
   15      O       0.3776240906    -1.3767792575     0.9867467992
   16      H      -0.9857839136    -0.3012628346    -1.7221083335
   17      H       1.2190078722     0.3053428360    -1.6717279750
   18      H       1.4004966961     4.1529528601     0.3258595304
   19      H      -2.4192144807     3.5408152038    -0.3207554988
   20      H      -0.5032447486    -3.5462981489    -0.3924960815
   21      H      -0.9225244565    -2.5516423784    -1.7901244715
   22      H       1.7820427960    -3.1221750890    -0.7762035432
   23      H       1.4348318144    -1.9641131489    -2.0513439013
   24      H      -0.1537124169     4.0880558792     1.2208909899
   25      H       1.3224825707     3.3500538917     1.9132018672
   26      H      -3.8253333105     2.4884287883    -0.6031692872
   27      H      -3.0527358624     3.3312321883    -1.9825833762
   28      C      -2.0103698475    -1.7539792761     0.9262156587
   29      C       2.7535419309    -1.1363416817     0.6171639049
   30      O       3.6986879827    -1.0392579394    -0.4337835866
   31      H       2.8687271284    -2.0883281485     1.1566141151
   32      H       2.8749093954    -0.3191183290     1.3319974218
   33      C       4.9869463406    -0.6544691282     0.0097143678
   34      H       5.6288166976    -0.6143379842    -0.8708641715
   35      H       5.4026329294    -1.3838420321     0.7198842101
   36      H       4.9558679587     0.3348285891     0.4812293380
   37      O      -3.1035787281    -1.7457762502     0.0191769561
   38      H      -2.1429083528    -0.9997378467     1.7047487826
   39      H      -1.9043436671    -2.7424633978     1.3960395783
   40      C      -4.3595268685    -1.7838199793     0.6705034684
   41      H      -5.1247941381    -1.7751966808    -0.1063546994
   42      H      -4.4914087848    -0.9096107388     1.3210557598
   43      H      -4.4716209726    -2.6968018666     1.2721986760
 ----------------------------------------------------------------
 Nuclear Repulsion Energy =  1970.1366954430 hartrees
 There are       81 alpha and       81 beta electrons
 Applying Cartesian multipole field
    Component          Value
    ---------          -----
     (2,0,0)        1.00000E-12
     (0,2,0)        2.00000E-11
     (0,0,2)       -3.00000E-11
 Nucleus-field energy     =     0.0000000327 hartrees
 Requested basis set is 6-311++G(d,p)
 There are 236 shells and 616 basis functions
 A cutoff of  1.0D-11 yielded  21091 shell pairs
 There are    145217 function pairs (    154390 Cartesian)
 Smallest overlap matrix eigenvalue = 2.77E-07

 Q-Chem warning in module /fs/scratch/osu6415/qchem-kaunlao-vdw/stvman/mkSTV.C, line 281:

 Overlap eigenvalue is smaller than square root of threshold

 Linear dependence detected in AO basis
 Number of orthogonalized atomic orbitals = 614
 Maximum deviation from orthogonality = 2.058E-10
 Guess MOs from SCF MO coefficient file
 Reading MOs from coefficient file
 Reading MOs from coefficient file
 A restricted hybrid HF-DFT SCF calculation will be
 performed using Pulay DIIS extrapolation
 Exchange:     0.2000 Hartree-Fock + 0.0800 Slater + 0.7200 B88
 Correlation:  0.1900 VWN1RPA + 0.8100 LYP
 Using SG-1 standard quadrature grid
 Dispersion:   Grimme D3
 SCF converges when DIIS error is below 1.0E-08
 Geometry optimization detected.  Setting ReadMinima to 0
 Setting SaveMinima to 0
 using 20 threads for integral computing
 -------------------------------------------------------
 OpenMP Integral computing Module                
 Release: version 1.0, May 2013, Q-Chem Inc. Pittsburgh 
 -------------------------------------------------------
 -------------------------------------------------------
 OpenMP BLAS3 based DFT computing Module                
 Release: version 1.0, May 2013, Q-Chem Inc. Pittsburgh 
 -------------------------------------------------------
 ---------------------------------------
  Cycle       Energy         DIIS Error
 ---------------------------------------
    1   -1073.6242541613      2.21E-04
    2   -1073.6262601311      1.89E-05
    3   -1073.6262543467      2.83E-05
    4   -1073.6262817359      7.48E-06
    5   -1073.6262833496      2.82E-06
    6   -1073.6262836325      8.33E-07
    7   -1073.6262836545      3.93E-07
    8   -1073.6262836594      8.69E-08
    9   -1073.6262836613      3.97E-08
   10   -1073.6262836639      1.73E-08
   11   -1073.6262836471      5.26E-09 Convergence criterion met
 ---------------------------------------
 SCF time:  CPU 1447.87 s  wall 92.66 s
 SCF   energy in the final basis set = -1073.62628365
 Total energy in the final basis set = -1073.62628365
 
 --------------------------------------------------------------
 
                    Orbital Energies (a.u.)
 --------------------------------------------------------------
 
 Alpha MOs
 -- Occupied --
-19.177 -19.167 -19.133 -19.129 -19.123 -19.116 -19.109 -10.311
-10.303 -10.241 -10.237 -10.232 -10.226 -10.215 -10.213 -10.212
-10.209 -10.206 -10.200 -10.172 -10.171  -1.122  -1.108  -1.067
 -1.040  -1.035  -1.029  -1.022  -0.828  -0.801  -0.781  -0.748
 -0.735  -0.727  -0.694  -0.660  -0.648  -0.633  -0.601  -0.578
 -0.566  -0.554  -0.529  -0.517  -0.508  -0.500  -0.489  -0.489
 -0.482  -0.481  -0.479  -0.475  -0.471  -0.461  -0.454  -0.451
 -0.429  -0.422  -0.420  -0.416  -0.409  -0.399  -0.396  -0.385
 -0.372  -0.367  -0.359  -0.355  -0.351  -0.350  -0.339  -0.327
 -0.326  -0.322  -0.317  -0.306  -0.287  -0.280  -0.274  -0.263
 -0.259
 -- Virtual --
 -0.016  -0.009  -0.005  -0.000   0.003   0.007   0.011   0.015
  0.023   0.026   0.027   0.031   0.038   0.039   0.043   0.043
  0.046   0.048   0.053   0.062   0.064   0.064   0.065   0.075
  0.078   0.080   0.083   0.090   0.096   0.098   0.101   0.104
  0.109   0.111   0.112   0.115   0.118   0.120   0.122   0.124
  0.127   0.129   0.131   0.133   0.134   0.137   0.138   0.141
  0.142   0.147   0.147   0.150   0.152   0.155   0.158   0.161
  0.163   0.164   0.166   0.167   0.169   0.173   0.174   0.176
  0.180   0.182   0.185   0.187   0.189   0.192   0.201   0.202
  0.203   0.206   0.210   0.211   0.216   0.219   0.221   0.227
  0.228   0.233   0.234   0.240   0.242   0.249   0.254   0.256
  0.262   0.266   0.266   0.271   0.271   0.275   0.279   0.281
  0.284   0.286   0.290   0.297   0.303   0.304   0.306   0.307
  0.311   0.317   0.318   0.323   0.326   0.330   0.334   0.338
  0.343   0.347   0.349   0.354   0.355   0.360   0.365   0.367
  0.368   0.370   0.374   0.381   0.383   0.385   0.389   0.391
  0.398   0.401   0.405   0.408   0.415   0.423   0.428   0.434
  0.439   0.440   0.450   0.454   0.466   0.469   0.472   0.479
  0.483   0.487   0.492   0.494   0.509   0.515   0.515   0.519
  0.528   0.534   0.548   0.558   0.559   0.568   0.571   0.576
  0.579   0.589   0.597   0.600   0.608   0.613   0.618   0.627
  0.635   0.640   0.644   0.651   0.653   0.657   0.669   0.672
  0.675   0.681   0.683   0.689   0.695   0.696   0.703   0.709
  0.711   0.712   0.719   0.724   0.732   0.735   0.739   0.744
  0.749   0.753   0.758   0.762   0.764   0.773   0.778   0.781
  0.785   0.796   0.801   0.809   0.817   0.835   0.844   0.852
  0.857   0.875   0.879   0.906   0.914   0.933   0.971   0.978
  0.998   1.008   1.018   1.031   1.049   1.054   1.057   1.072
  1.076   1.082   1.088   1.097   1.103   1.113   1.127   1.131
  1.148   1.160   1.165   1.184   1.200   1.203   1.210   1.214
  1.231   1.235   1.257   1.264   1.272   1.286   1.292   1.308
  1.311   1.323   1.336   1.346   1.349   1.361   1.369   1.377
  1.378   1.396   1.414   1.419   1.426   1.438   1.444   1.447
  1.450   1.462   1.463   1.471   1.479   1.489   1.497   1.514
  1.521   1.536   1.541   1.557   1.564   1.566   1.567   1.576
  1.582   1.584   1.591   1.595   1.601   1.606   1.616   1.626
  1.629   1.639   1.650   1.654   1.659   1.663   1.670   1.674
  1.681   1.683   1.695   1.712   1.717   1.720   1.729   1.736
  1.739   1.747   1.752   1.757   1.759   1.770   1.777   1.792
  1.798   1.803   1.811   1.812   1.830   1.830   1.847   1.850
  1.860   1.862   1.874   1.890   1.894   1.910   1.926   1.935
  1.946   1.949   1.972   1.980   1.987   1.995   2.007   2.020
  2.047   2.054   2.059   2.074   2.093   2.099   2.117   2.121
  2.124   2.132   2.142   2.146   2.150   2.155   2.175   2.196
  2.199   2.205   2.227   2.235   2.243   2.260   2.278   2.298
  2.304   2.314   2.348   2.364   2.379   2.391   2.425   2.428
  2.448   2.457   2.459   2.467   2.488   2.498   2.509   2.513
  2.515   2.525   2.528   2.535   2.535   2.545   2.550   2.553
  2.565   2.569   2.573   2.585   2.590   2.599   2.605   2.616
  2.649   2.666   2.677   2.685   2.689   2.692   2.705   2.732
  2.745   2.760   2.795   2.811   2.825   2.843   2.858   2.864
  2.870   2.877   2.892   2.898   2.920   2.926   2.927   2.948
  2.965   2.976   2.981   2.989   3.005   3.018   3.031   3.039
  3.050   3.054   3.066   3.070   3.091   3.100   3.103   3.122
  3.132   3.140   3.143   3.172   3.180   3.187   3.208   3.214
  3.224   3.232   3.239   3.254   3.260   3.274   3.294   3.305
  3.334   3.346   3.372   3.390   3.411   3.415   3.442   3.555
  3.602   3.624   3.671   3.683   3.699   3.768   3.778   3.785
  3.789   3.795   3.814   3.822   3.835   3.849   3.859   3.882
  3.948   3.965   4.016   4.078   4.089   4.102   4.116   4.138
  4.143   4.149   4.153   4.173   4.191   4.195   4.269   4.291
  4.340   4.455   4.518   5.040   5.089   5.109   5.138   5.152
  5.210   5.241   5.293   5.318   5.425   5.435   5.458   5.477
  5.522   5.622   5.655   5.665   5.713   5.753   5.904   5.931
 23.763  23.839  23.854  23.862  23.898  23.899  23.908  23.936
 23.942  23.946  23.950  23.971  23.985  24.034  49.921  49.943
 49.968  49.985  50.014  50.045  50.062
 --------------------------------------------------------------
 
          Ground-State Mulliken Net Atomic Charges

     Atom                 Charge (a.u.)
  ----------------------------------------
      1 C                     0.322329
      2 C                     0.142932
      3 C                    -0.997275
      4 C                    -0.495961
      5 O                     0.091937
      6 O                    -0.128420
      7 O                    -0.071258
      8 O                    -0.211665
      9 C                    -0.206369
     10 C                    -0.142808
     11 C                    -0.805502
     12 C                    -0.269228
     13 C                    -0.385858
     14 C                    -0.431074
     15 O                     0.081723
     16 H                     0.316709
     17 H                     0.245658
     18 H                     0.189076
     19 H                     0.154869
     20 H                     0.177399
     21 H                     0.173889
     22 H                     0.186854
     23 H                     0.186549
     24 H                     0.154559
     25 H                     0.185600
     26 H                     0.169066
     27 H                     0.151371
     28 C                     0.140958
     29 C                     0.005376
     30 O                    -0.023682
     31 H                     0.159394
     32 H                     0.205129
     33 C                    -0.250886
     34 H                     0.138303
     35 H                     0.125984
     36 H                     0.157547
     37 O                    -0.023827
     38 H                     0.246373
     39 H                     0.147978
     40 C                    -0.226241
     41 H                     0.140087
     42 H                     0.139811
     43 H                     0.132593
  ----------------------------------------
  Sum of atomic charges =     0.000000

 -----------------------------------------------------------------
                    Cartesian Multipole Moments
 -----------------------------------------------------------------
    Charge (ESU x 10^10)
                 0.0000
    Dipole Moment (Debye)
         X      -1.1662      Y       1.1334      Z      -0.5496
       Tot       1.7166
    Quadrupole Moments (Debye-Ang)
        XX    -120.3767     XY      -2.8675     YY    -113.0691
        XZ       2.8736     YZ      -1.1432     ZZ    -126.8383
    Octopole Moments (Debye-Ang^2)
       XXX     -26.1523    XXY      -1.0176    XYY     -19.2687
       YYY      73.9791    XXZ      12.4026    XYZ      12.8745
       YYZ      10.0396    XZZ       2.6697    YZZ      12.6426
       ZZZ      -1.7722
    Hexadecapole Moments (Debye-Ang^3)
      XXXX   -4220.7785   XXXY      -2.9836   XXYY   -1203.1252
      XYYY       0.3228   YYYY   -2532.0033   XXXZ      16.7870
      XXYZ     -75.2898   XYYZ      20.0855   YYYZ      -2.3153
      XXZZ    -872.4879   XYZZ      26.2751   YYZZ    -548.3464
      XZZZ      -0.3648   YZZZ       1.0814   ZZZZ    -613.3815
 -----------------------------------------------------------------
 Calculating analytic gradient of the SCF energy
 Gradient of SCF Energy
            1           2           3           4           5           6
    1   0.0005830   0.0000347  -0.0014571   0.0000718   0.0003954   0.0009601
    2   0.0001393   0.0000858  -0.0009893  -0.0007920   0.0003941   0.0010752
    3   0.0005084  -0.0005660  -0.0008726   0.0010448   0.0001200   0.0002344
            7           8           9          10          11          12
    1  -0.0005403  -0.0001743   0.0000085   0.0000472  -0.0000159   0.0000429
    2  -0.0000342   0.0005075   0.0000927  -0.0000353   0.0001418  -0.0000006
    3  -0.0001436  -0.0004063   0.0000462  -0.0000334   0.0000007  -0.0000012
           13          14          15          16          17          18
    1  -0.0000249   0.0001709   0.0000650  -0.0001974  -0.0000350  -0.0000279
    2   0.0000164   0.0000322   0.0000614   0.0000001  -0.0000345  -0.0000156
    3  -0.0000174   0.0000841  -0.0000029   0.0000149  -0.0000513   0.0000040
           19          20          21          22          23          24
    1  -0.0000079  -0.0000003  -0.0000028   0.0000122   0.0000174   0.0000048
    2   0.0000413   0.0000062  -0.0000006   0.0000133  -0.0000043   0.0000275
    3  -0.0000114  -0.0000014   0.0000040   0.0000239   0.0000024  -0.0000292
           25          26          27          28          29          30
    1  -0.0000160   0.0000032   0.0000084  -0.0000646   0.0000124   0.0000265
    2  -0.0000086  -0.0000083   0.0000030  -0.0000979  -0.0001000   0.0000294
    3   0.0000015  -0.0000089  -0.0000117   0.0001045   0.0002042  -0.0000346
           31          32          33          34          35          36
    1   0.0000027  -0.0000075   0.0000033   0.0000115   0.0000004  -0.0000038
    2  -0.0000382  -0.0001390   0.0000307   0.0000000   0.0000133  -0.0000072
    3  -0.0000381  -0.0000398   0.0000228   0.0000112   0.0000135   0.0000240
           37          38          39          40          41          42
    1   0.0000101  -0.0000023   0.0000135   0.0000523  -0.0000008   0.0000192
    2  -0.0001927  -0.0001432  -0.0000592   0.0000346  -0.0000129  -0.0000044
    3   0.0000141  -0.0001025  -0.0000497   0.0000089  -0.0000165  -0.0000445
           43
    1   0.0000011
    2  -0.0000279
    3  -0.0000094
 Max gradient component =       1.457E-03
 RMS gradient           =       2.796E-04
 Gradient time:  CPU 679.52 s  wall 52.29 s
 Geometry Optimization Parameters
   NAtoms,    NIC,     NZ,  NCons,   NDum,   NFix, NCnnct, MaxDiis
       43     325       0       0       0       0       0       0

 Cartesian Hessian Update
 Hessian Updated using BFGS Update


** GEOMETRY OPTIMIZATION IN DELOCALIZED INTERNAL COORDINATES **
   Searching for a Minimum

   Optimization Cycle:   2

                       Coordinates (Angstroms)
     ATOM                X               Y               Z
      1  C        -0.7096985592   -0.1089080537   -0.6863115644
      2  C         0.8363760582    0.2106410150   -0.6533467159
      3  C        -1.6743202996    0.9757897253   -0.2329336230
      4  C         1.3405296128    1.4739835563    0.0397556820
      5  O        -2.0025231577    1.7472510340   -1.2958230196
      6  O        -2.1335363482    1.1433098589    0.8685025884
      7  O         0.3688763470    2.3402322351    0.3579312088
      8  O         2.5106512916    1.7113105711    0.2264202236
      9  C         0.7726246623    3.5642673929    0.9963410972
     10  C        -2.8841550355    2.8464564945   -1.0231830934
     11  C        -0.7652379602   -1.4573530463    0.1170003540
     12  C        -0.3476782114   -2.5741645544   -0.8645339120
     13  C         1.1597421425   -2.2669299729   -1.0412381129
     14  C         1.3762375225   -1.1200858054   -0.0138202613
     15  O         0.3776240906   -1.3767792575    0.9867467992
     16  H        -0.9857839136   -0.3012628346   -1.7221083335
     17  H         1.2190078722    0.3053428360   -1.6717279750
     18  H         1.4004966961    4.1529528601    0.3258595304
     19  H        -2.4192144807    3.5408152038   -0.3207554988
     20  H        -0.5032447486   -3.5462981489   -0.3924960815
     21  H        -0.9225244565   -2.5516423784   -1.7901244715
     22  H         1.7820427960   -3.1221750890   -0.7762035432
     23  H         1.4348318144   -1.9641131489   -2.0513439013
     24  H        -0.1537124169    4.0880558792    1.2208909899
     25  H         1.3224825707    3.3500538917    1.9132018672
     26  H        -3.8253333105    2.4884287883   -0.6031692872
     27  H        -3.0527358624    3.3312321883   -1.9825833762
     28  C        -2.0103698475   -1.7539792761    0.9262156587
     29  C         2.7535419309   -1.1363416817    0.6171639049
     30  O         3.6986879827   -1.0392579394   -0.4337835866
     31  H         2.8687271284   -2.0883281485    1.1566141151
     32  H         2.8749093954   -0.3191183290    1.3319974218
     33  C         4.9869463406   -0.6544691282    0.0097143678
     34  H         5.6288166976   -0.6143379842   -0.8708641715
     35  H         5.4026329294   -1.3838420321    0.7198842101
     36  H         4.9558679587    0.3348285891    0.4812293380
     37  O        -3.1035787281   -1.7457762502    0.0191769561
     38  H        -2.1429083528   -0.9997378467    1.7047487826
     39  H        -1.9043436671   -2.7424633978    1.3960395783
     40  C        -4.3595268685   -1.7838199793    0.6705034684
     41  H        -5.1247941381   -1.7751966808   -0.1063546994
     42  H        -4.4914087848   -0.9096107388    1.3210557598
     43  H        -4.4716209726   -2.6968018666    1.2721986760
   Point Group: c1    Number of degrees of freedom:   123


   Energy is  -1073.626283647

 Hessian Updated using BFGS Update

109 Hessian modes will be used to form the next step
  Hessian Eigenvalues:
     0.003047    0.004837    0.005787    0.007187    0.007216    0.007301
     0.010116    0.010559    0.010982    0.012926    0.013423    0.013561
     0.013622    0.020296    0.021939    0.023570    0.023633    0.027606
     0.034216    0.036938    0.037303    0.038575    0.043743    0.044960
     0.050671    0.051185    0.054529    0.055457    0.056634    0.056770
     0.057450    0.061896    0.062069    0.063655    0.065432    0.066298
     0.081195    0.087136    0.098306    0.100702    0.100725    0.101368
     0.101419    0.103854    0.105114    0.105387    0.105971    0.106314
     0.109145    0.109826    0.110565    0.123946    0.127209    0.135224
     0.135772    0.159990    0.159999    0.177694    0.196438    0.219830
     0.220101    0.231737    0.234689    0.249734    0.249840    0.249997
     0.252801    0.254241    0.257560    0.277333    0.286932    0.298585
     0.305400    0.308637    0.309368    0.334408    0.336558    0.337262
     0.337311    0.337762    0.339430    0.340885    0.345331    0.345772
     0.345811    0.346028    0.346213    0.346902    0.346939    0.347530
     0.347622    0.347669    0.347716    0.347857    0.348347    0.348353
     0.349229    0.350379    0.350915    0.398232    0.402481    0.423860
     0.429518    0.431067    0.431822    0.542347    0.573594    1.007020
     1.023323

 Minimum Search - Taking Simple RFO Step
 Searching for Lamda that Minimizes Along All modes
 Value Taken    Lamda =  -0.00008512
 Step Taken.  Stepsize is  0.041292

                             Maximum     Tolerance    Cnvgd?
         Gradient           0.002556      0.000001      NO
         Displacement       0.014654      0.000001      NO
         Energy change      0.000026      0.000000      NO


 New Cartesian Coordinates Obtained by Inverse Iteration

 Displacement from previous Coordinates is:  0.206791
 Adding empirical dispersion correction 
 ----------------------------------------------------------------
 Doing -D3(op) with
 s6 =   1.00000
 s8 =   0.78311
 a1 =   0.30000
 a2 =   4.25000
 n  =  10.00000
 -D3 energy without 3body term =     -0.0501171827 hartrees
 ----------------------------------------------------------------
             Standard Nuclear Orientation (Angstroms)
    I     Atom           X                Y                Z
 ----------------------------------------------------------------
    1      C      -0.7073623097    -0.1048203423    -0.6864866703
    2      C       0.8396746042     0.2119469236    -0.6528028385
    3      C      -1.6728010587     0.9765522260    -0.2274396647
    4      C       1.3504566599     1.4748445046     0.0364046937
    5      O      -2.0178099426     1.7405670117    -1.2903670002
    6      O      -2.1359698334     1.1337708104     0.8738570892
    7      O       0.3841125968     2.3466931199     0.3550062995
    8      O       2.5219348080     1.7045817192     0.2241495630
    9      C       0.7953621244     3.5688458368     0.9921401090
   10      C      -2.9142319703     2.8272070796    -1.0155674245
   11      C      -0.7646385686    -1.4546572403     0.1141187658
   12      C      -0.3467411234    -2.5708294182    -0.8680155729
   13      C       1.1615506270    -2.2655153801    -1.0412056258
   14      C       1.3771192880    -1.1193488886    -0.0128237338
   15      O       0.3767483046    -1.3760492735     0.9858936778
   16      H      -0.9837701487    -0.2942810007    -1.7227101022
   17      H       1.2221578385     0.3038255427    -1.6714768465
   18      H       1.4247239547     4.1542232993     0.3201397073
   19      H      -2.4562082186     3.5295863053    -0.3166042363
   20      H      -0.5045575757    -3.5432883338    -0.3973937975
   21      H      -0.9196421952    -2.5464958529    -1.7947618267
   22      H       1.7822499453    -3.1216891879    -0.7754188228
   23      H       1.4390770514    -1.9624231203    -2.0505586809
   24      H      -0.1278983682     4.0972587800     1.2185354503
   25      H       1.3461086399     3.3521976340     1.9078898974
   26      H      -3.8480500577     2.4561757609    -0.5904399315
   27      H      -3.0944702100     3.3076127170    -1.9750466135
   28      C      -2.0112696314    -1.7497785099     0.9215153848
   29      C       2.7533275875    -1.1359539487     0.6204377065
   30      O       3.7002871315    -1.0408924985    -0.4290243511
   31      H       2.8669283619    -2.0872696439     1.1613962900
   32      H       2.8740503490    -0.3177936119     1.3344204112
   33      C       4.9881116503    -0.6565558899     0.0161183407
   34      H       5.6314734086    -0.6181189951    -0.8634403656
   35      H       5.4020176144    -1.3852901708     0.7279837967
   36      H       4.9570419856     0.3334306683     0.4862026448
   37      O      -3.1035570814    -1.7371746461     0.0133773243
   38      H      -2.1428301306    -0.9962382003     1.7010079521
   39      H      -1.9081119020    -2.7391187710     1.3901402014
   40      C      -4.3603305543    -1.7736810329     0.6632677925
   41      H      -5.1247173134    -1.7615230084    -0.1144047763
   42      H      -4.4909094602    -0.9006482439     1.3156757529
   43      H      -4.4752331575    -2.6877261797     1.2627973808
 ----------------------------------------------------------------
 Nuclear Repulsion Energy =  1969.7666838374 hartrees
 There are       81 alpha and       81 beta electrons
 Applying Cartesian multipole field
    Component          Value
    ---------          -----
     (2,0,0)        1.00000E-12
     (0,2,0)        2.00000E-11
     (0,0,2)       -3.00000E-11
 Nucleus-field energy     =     0.0000000326 hartrees
 Requested basis set is 6-311++G(d,p)
 There are 236 shells and 616 basis functions
 A cutoff of  1.0D-11 yielded  21082 shell pairs
 There are    145122 function pairs (    154283 Cartesian)
 Smallest overlap matrix eigenvalue = 2.75E-07

 Q-Chem warning in module /fs/scratch/osu6415/qchem-kaunlao-vdw/stvman/mkSTV.C, line 281:

 Overlap eigenvalue is smaller than square root of threshold

 Linear dependence detected in AO basis
 Number of orthogonalized atomic orbitals = 614
 Maximum deviation from orthogonality = 1.511E-10
 Guess MOs from SCF MO coefficient file
 Reading MOs from coefficient file
 Reading MOs from coefficient file
 A restricted hybrid HF-DFT SCF calculation will be
 performed using Pulay DIIS extrapolation
 Exchange:     0.2000 Hartree-Fock + 0.0800 Slater + 0.7200 B88
 Correlation:  0.1900 VWN1RPA + 0.8100 LYP
 Using SG-1 standard quadrature grid
 Dispersion:   Grimme D3
 SCF converges when DIIS error is below 1.0E-08
 Geometry optimization detected.  Setting ReadMinima to 0
 Setting SaveMinima to 0
 using 20 threads for integral computing
 -------------------------------------------------------
 OpenMP Integral computing Module                
 Release: version 1.0, May 2013, Q-Chem Inc. Pittsburgh 
 -------------------------------------------------------
 -------------------------------------------------------
 OpenMP BLAS3 based DFT computing Module                
 Release: version 1.0, May 2013, Q-Chem Inc. Pittsburgh 
 -------------------------------------------------------
 ---------------------------------------
  Cycle       Energy         DIIS Error
 ---------------------------------------
    1   -1073.6280119570      1.58E-04
    2   -1073.6262868022      2.36E-05
    3   -1073.6262642105      3.68E-05
    4   -1073.6263102740      8.61E-06
    5   -1073.6263124670      2.88E-06
    6   -1073.6263127372      8.52E-07
    7   -1073.6263127588      3.13E-07
    8   -1073.6263127638      9.16E-08
    9   -1073.6263127626      3.97E-08
   10   -1073.6263127643      1.40E-08
   11   -1073.6263127736      5.76E-09 Convergence criterion met
 ---------------------------------------
 SCF time:  CPU 1454.70 s  wall 93.28 s
 SCF   energy in the final basis set = -1073.62631277
 Total energy in the final basis set = -1073.62631277
 
 --------------------------------------------------------------
 
                    Orbital Energies (a.u.)
 --------------------------------------------------------------
 
 Alpha MOs
 -- Occupied --
-19.178 -19.168 -19.133 -19.129 -19.123 -19.116 -19.109 -10.311
-10.303 -10.241 -10.237 -10.232 -10.226 -10.215 -10.213 -10.212
-10.209 -10.206 -10.200 -10.172 -10.171  -1.122  -1.108  -1.067
 -1.039  -1.035  -1.029  -1.022  -0.828  -0.801  -0.781  -0.749
 -0.735  -0.727  -0.693  -0.660  -0.648  -0.632  -0.601  -0.578
 -0.566  -0.554  -0.529  -0.517  -0.508  -0.500  -0.489  -0.489
 -0.482  -0.481  -0.479  -0.475  -0.470  -0.461  -0.454  -0.451
 -0.429  -0.422  -0.420  -0.416  -0.409  -0.399  -0.396  -0.385
 -0.372  -0.367  -0.359  -0.355  -0.351  -0.350  -0.339  -0.327
 -0.326  -0.322  -0.317  -0.306  -0.287  -0.280  -0.274  -0.263
 -0.259
 -- Virtual --
 -0.016  -0.009  -0.005  -0.000   0.003   0.007   0.011   0.015
  0.023   0.026   0.027   0.031   0.038   0.039   0.043   0.043
  0.046   0.048   0.053   0.062   0.064   0.064   0.065   0.075
  0.078   0.080   0.083   0.090   0.096   0.097   0.101   0.105
  0.109   0.111   0.112   0.115   0.118   0.120   0.121   0.124
  0.127   0.129   0.131   0.133   0.134   0.137   0.138   0.141
  0.142   0.146   0.147   0.149   0.152   0.155   0.158   0.161
  0.163   0.164   0.166   0.167   0.169   0.173   0.174   0.176
  0.180   0.182   0.185   0.187   0.189   0.191   0.201   0.202
  0.203   0.206   0.210   0.211   0.215   0.219   0.221   0.227
  0.228   0.233   0.234   0.240   0.243   0.250   0.254   0.256
  0.262   0.266   0.266   0.271   0.271   0.276   0.279   0.281
  0.284   0.286   0.290   0.298   0.303   0.304   0.306   0.307
  0.311   0.317   0.318   0.323   0.327   0.330   0.333   0.338
  0.342   0.346   0.349   0.353   0.355   0.361   0.364   0.367
  0.368   0.371   0.374   0.381   0.383   0.385   0.389   0.391
  0.398   0.400   0.405   0.408   0.415   0.423   0.428   0.435
  0.440   0.440   0.450   0.455   0.466   0.470   0.471   0.478
  0.483   0.487   0.492   0.493   0.509   0.515   0.515   0.520
  0.528   0.535   0.548   0.557   0.559   0.568   0.571   0.576
  0.580   0.589   0.598   0.600   0.608   0.613   0.618   0.626
  0.635   0.639   0.644   0.651   0.653   0.657   0.669   0.672
  0.675   0.681   0.683   0.689   0.695   0.696   0.703   0.709
  0.711   0.712   0.719   0.723   0.732   0.735   0.739   0.744
  0.749   0.753   0.759   0.762   0.763   0.773   0.778   0.781
  0.785   0.795   0.801   0.808   0.816   0.835   0.843   0.852
  0.857   0.875   0.878   0.906   0.914   0.932   0.971   0.978
  0.997   1.009   1.017   1.032   1.049   1.053   1.058   1.072
  1.077   1.082   1.088   1.097   1.103   1.113   1.125   1.130
  1.146   1.159   1.165   1.184   1.200   1.203   1.210   1.214
  1.231   1.235   1.257   1.264   1.272   1.286   1.293   1.307
  1.311   1.324   1.336   1.347   1.348   1.360   1.370   1.377
  1.379   1.397   1.414   1.419   1.424   1.437   1.444   1.447
  1.450   1.462   1.464   1.471   1.478   1.489   1.495   1.515
  1.521   1.536   1.541   1.557   1.563   1.566   1.568   1.576
  1.582   1.584   1.590   1.595   1.602   1.606   1.616   1.626
  1.629   1.639   1.650   1.654   1.659   1.662   1.670   1.675
  1.680   1.683   1.695   1.712   1.716   1.720   1.728   1.736
  1.739   1.746   1.752   1.757   1.758   1.770   1.777   1.793
  1.799   1.804   1.811   1.812   1.830   1.830   1.847   1.850
  1.859   1.862   1.874   1.890   1.893   1.911   1.925   1.935
  1.946   1.948   1.973   1.980   1.987   1.994   2.007   2.020
  2.046   2.054   2.059   2.073   2.093   2.099   2.117   2.121
  2.123   2.133   2.142   2.146   2.151   2.154   2.176   2.195
  2.199   2.205   2.227   2.234   2.243   2.258   2.277   2.298
  2.303   2.314   2.348   2.364   2.380   2.391   2.425   2.428
  2.449   2.456   2.458   2.467   2.488   2.498   2.509   2.512
  2.515   2.525   2.529   2.534   2.535   2.545   2.550   2.553
  2.564   2.569   2.574   2.584   2.590   2.599   2.605   2.616
  2.648   2.665   2.677   2.686   2.689   2.691   2.704   2.731
  2.745   2.760   2.795   2.812   2.826   2.843   2.858   2.864
  2.869   2.877   2.892   2.898   2.921   2.925   2.927   2.948
  2.965   2.976   2.981   2.989   3.005   3.018   3.031   3.039
  3.050   3.053   3.066   3.070   3.090   3.101   3.103   3.122
  3.132   3.140   3.143   3.172   3.180   3.188   3.208   3.215
  3.224   3.232   3.239   3.254   3.260   3.273   3.294   3.305
  3.334   3.346   3.372   3.390   3.410   3.415   3.443   3.554
  3.602   3.623   3.671   3.683   3.698   3.767   3.778   3.786
  3.789   3.795   3.814   3.822   3.835   3.850   3.859   3.882
  3.948   3.965   4.015   4.079   4.089   4.103   4.116   4.138
  4.143   4.149   4.152   4.173   4.190   4.195   4.270   4.291
  4.339   4.456   4.518   5.042   5.087   5.109   5.140   5.153
  5.211   5.241   5.293   5.318   5.425   5.434   5.457   5.474
  5.522   5.621   5.655   5.665   5.713   5.753   5.904   5.930
 23.763  23.838  23.853  23.862  23.898  23.900  23.908  23.936
 23.942  23.946  23.949  23.971  23.985  24.034  49.921  49.940
 49.968  49.985  50.014  50.045  50.061
 --------------------------------------------------------------
 
          Ground-State Mulliken Net Atomic Charges

     Atom                 Charge (a.u.)
  ----------------------------------------
      1 C                     0.323688
      2 C                     0.140320
      3 C                    -1.006743
      4 C                    -0.491193
      5 O                     0.091506
      6 O                    -0.127701
      7 O                    -0.068356
      8 O                    -0.211421
      9 C                    -0.205261
     10 C                    -0.147229
     11 C                    -0.797667
     12 C                    -0.267242
     13 C                    -0.387599
     14 C                    -0.434907
     15 O                     0.082148
     16 H                     0.317333
     17 H                     0.245181
     18 H                     0.188741
     19 H                     0.156005
     20 H                     0.177446
     21 H                     0.173710
     22 H                     0.187015
     23 H                     0.186406
     24 H                     0.154767
     25 H                     0.185704
     26 H                     0.168631
     27 H                     0.150912
     28 C                     0.138668
     29 C                     0.007243
     30 O                    -0.023424
     31 H                     0.159337
     32 H                     0.204879
     33 C                    -0.250974
     34 H                     0.138233
     35 H                     0.125929
     36 H                     0.157641
     37 O                    -0.022919
     38 H                     0.246788
     39 H                     0.147483
     40 C                    -0.225441
     41 H                     0.140025
     42 H                     0.139555
     43 H                     0.132783
  ----------------------------------------
  Sum of atomic charges =     0.000000

 -----------------------------------------------------------------
                    Cartesian Multipole Moments
 -----------------------------------------------------------------
    Charge (ESU x 10^10)
                 0.0000
    Dipole Moment (Debye)
         X      -1.1728      Y       1.1552      Z      -0.5525
       Tot       1.7364
    Quadrupole Moments (Debye-Ang)
        XX    -120.3194     XY      -2.8282     YY    -113.0735
        XZ       2.9117     YZ      -1.0897     ZZ    -126.8677
    Octopole Moments (Debye-Ang^2)
       XXX     -27.3936    XXY      -0.4618    XYY     -18.9963
       YYY      73.9019    XXZ      12.3507    XYZ      12.8638
       YYZ      10.1929    XZZ       2.7205    YZZ      12.5842
       ZZZ      -1.9024
    Hexadecapole Moments (Debye-Ang^3)
      XXXX   -4236.8944   XXXY      -5.1137   XXYY   -1203.4726
      XYYY       2.0033   YYYY   -2522.9989   XXXZ      15.3065
      XXYZ     -75.6916   XYYZ      19.3129   YYYZ      -2.7207
      XXZZ    -874.8413   XYZZ      26.1688   YYZZ    -546.9282
      XZZZ      -2.7698   YZZZ      -0.4681   ZZZZ    -611.4162
 -----------------------------------------------------------------
 Calculating analytic gradient of the SCF energy
 Gradient of SCF Energy
            1           2           3           4           5           6
    1  -0.0003452  -0.0000067   0.0003598   0.0001728  -0.0002594  -0.0001968
    2  -0.0002549   0.0000236   0.0005461  -0.0002943  -0.0002847  -0.0001990
    3   0.0001761  -0.0001833   0.0000661   0.0004174  -0.0001511  -0.0000858
            7           8           9          10          11          12
    1   0.0002624  -0.0000396   0.0000171   0.0000627   0.0000332   0.0000094
    2   0.0001432   0.0001637   0.0000133  -0.0000824   0.0001774  -0.0000445
    3   0.0001269  -0.0001362  -0.0000059  -0.0000464  -0.0001889  -0.0000369
           13          14          15          16          17          18
    1  -0.0000098   0.0000480   0.0000518  -0.0001292  -0.0000307  -0.0000173
    2  -0.0000144   0.0000694   0.0000454  -0.0001228  -0.0000139  -0.0000109
    3   0.0000049   0.0000305   0.0000587  -0.0000621   0.0000249  -0.0000033
           19          20          21          22          23          24
    1  -0.0000059   0.0000153   0.0000029   0.0000215   0.0000007   0.0000019
    2  -0.0000163  -0.0000020  -0.0000080   0.0000088   0.0000128  -0.0000002
    3  -0.0000287   0.0000037   0.0000100   0.0000004  -0.0000021   0.0000080
           25          26          27          28          29          30
    1  -0.0000246  -0.0000089  -0.0000008  -0.0000062  -0.0000137  -0.0000123
    2   0.0000115   0.0000246  -0.0000068   0.0000848   0.0000166   0.0000847
    3   0.0000121  -0.0000136  -0.0000167  -0.0000574   0.0001120  -0.0000378
           31          32          33          34          35          36
    1  -0.0000029  -0.0000200   0.0000192   0.0000074   0.0000001   0.0000022
    2  -0.0000189  -0.0000241   0.0000132   0.0000049   0.0000209   0.0000087
    3  -0.0000189  -0.0000122   0.0000138   0.0000161   0.0000160   0.0000317
           37          38          39          40          41          42
    1   0.0000517  -0.0000573   0.0000307   0.0000099   0.0000012   0.0000001
    2  -0.0001008   0.0000434  -0.0000085   0.0000265  -0.0000122  -0.0000028
    3   0.0000196  -0.0000277   0.0000130   0.0000090  -0.0000095  -0.0000368
           43
    1   0.0000051
    2  -0.0000208
    3  -0.0000097
 Max gradient component =       5.461E-04
 RMS gradient           =       1.109E-04
 Gradient time:  CPU 677.95 s  wall 51.84 s
 Geometry Optimization Parameters
   NAtoms,    NIC,     NZ,  NCons,   NDum,   NFix, NCnnct, MaxDiis
       43     325       0       0       0       0       0       0

 Cartesian Hessian Update
 Hessian Updated using BFGS Update


** GEOMETRY OPTIMIZATION IN DELOCALIZED INTERNAL COORDINATES **
   Searching for a Minimum

   Optimization Cycle:   3

                       Coordinates (Angstroms)
     ATOM                X               Y               Z
      1  C        -0.7073623097   -0.1048203423   -0.6864866703
      2  C         0.8396746042    0.2119469236   -0.6528028385
      3  C        -1.6728010587    0.9765522260   -0.2274396647
      4  C         1.3504566599    1.4748445046    0.0364046937
      5  O        -2.0178099426    1.7405670117   -1.2903670002
      6  O        -2.1359698334    1.1337708104    0.8738570892
      7  O         0.3841125968    2.3466931199    0.3550062995
      8  O         2.5219348080    1.7045817192    0.2241495630
      9  C         0.7953621244    3.5688458368    0.9921401090
     10  C        -2.9142319703    2.8272070796   -1.0155674245
     11  C        -0.7646385686   -1.4546572403    0.1141187658
     12  C        -0.3467411234   -2.5708294182   -0.8680155729
     13  C         1.1615506270   -2.2655153801   -1.0412056258
     14  C         1.3771192880   -1.1193488886   -0.0128237338
     15  O         0.3767483046   -1.3760492735    0.9858936778
     16  H        -0.9837701487   -0.2942810007   -1.7227101022
     17  H         1.2221578385    0.3038255427   -1.6714768465
     18  H         1.4247239547    4.1542232993    0.3201397073
     19  H        -2.4562082186    3.5295863053   -0.3166042363
     20  H        -0.5045575757   -3.5432883338   -0.3973937975
     21  H        -0.9196421952   -2.5464958529   -1.7947618267
     22  H         1.7822499453   -3.1216891879   -0.7754188228
     23  H         1.4390770514   -1.9624231203   -2.0505586809
     24  H        -0.1278983682    4.0972587800    1.2185354503
     25  H         1.3461086399    3.3521976340    1.9078898974
     26  H        -3.8480500577    2.4561757609   -0.5904399315
     27  H        -3.0944702100    3.3076127170   -1.9750466135
     28  C        -2.0112696314   -1.7497785099    0.9215153848
     29  C         2.7533275875   -1.1359539487    0.6204377065
     30  O         3.7002871315   -1.0408924985   -0.4290243511
     31  H         2.8669283619   -2.0872696439    1.1613962900
     32  H         2.8740503490   -0.3177936119    1.3344204112
     33  C         4.9881116503   -0.6565558899    0.0161183407
     34  H         5.6314734086   -0.6181189951   -0.8634403656
     35  H         5.4020176144   -1.3852901708    0.7279837967
     36  H         4.9570419856    0.3334306683    0.4862026448
     37  O        -3.1035570814   -1.7371746461    0.0133773243
     38  H        -2.1428301306   -0.9962382003    1.7010079521
     39  H        -1.9081119020   -2.7391187710    1.3901402014
     40  C        -4.3603305543   -1.7736810329    0.6632677925
     41  H        -5.1247173134   -1.7615230084   -0.1144047763
     42  H        -4.4909094602   -0.9006482439    1.3156757529
     43  H        -4.4752331575   -2.6877261797    1.2627973808
   Point Group: c1    Number of degrees of freedom:   123


   Energy is  -1073.626312774

 Hessian Updated using BFGS Update

111 Hessian modes will be used to form the next step
  Hessian Eigenvalues:
     0.002841    0.005247    0.005647    0.007016    0.007187    0.007274
     0.010129    0.010554    0.010981    0.012925    0.013425    0.013561
     0.013621    0.020637    0.021750    0.023563    0.023797    0.029259
     0.032335    0.035943    0.037150    0.038661    0.043696    0.044959
     0.050755    0.053219    0.054603    0.055571    0.056592    0.056806
     0.057439    0.061874    0.062062    0.062461    0.065371    0.066143
     0.081051    0.086599    0.097820    0.100701    0.100723    0.101365
     0.101419    0.103080    0.105113    0.105383    0.105968    0.106315
     0.109145    0.109825    0.111305    0.123899    0.127066    0.135223
     0.135748    0.159975    0.159993    0.160000    0.177821    0.198109
     0.219847    0.220099    0.231609    0.235701    0.248732    0.249747
     0.249904    0.250000    0.252990    0.254253    0.257355    0.277307
     0.293529    0.302457    0.308395    0.309074    0.332888    0.336548
     0.337258    0.337278    0.337755    0.339287    0.339444    0.340902
     0.345235    0.345764    0.345810    0.346029    0.346213    0.346902
     0.346953    0.347534    0.347634    0.347673    0.347716    0.348343
     0.348350    0.348986    0.350379    0.350912    0.375240    0.398276
     0.402834    0.423822    0.429482    0.431081    0.431818    0.542336
     0.575005    1.006924    1.023331

 Minimum Search - Taking Simple RFO Step
 Searching for Lamda that Minimizes Along All modes
 Value Taken    Lamda =  -0.00005566
 Step Taken.  Stepsize is  0.092122

                             Maximum     Tolerance    Cnvgd?
         Gradient           0.001140      0.000001      NO
         Displacement       0.027077      0.000001      NO
         Energy change     -0.000029      0.000000      NO


 New Cartesian Coordinates Obtained by Inverse Iteration

 Displacement from previous Coordinates is:  0.372615
 Adding empirical dispersion correction 
 ----------------------------------------------------------------
 Doing -D3(op) with
 s6 =   1.00000
 s8 =   0.78311
 a1 =   0.30000
 a2 =   4.25000
 n  =  10.00000
 -D3 energy without 3body term =     -0.0502064635 hartrees
 ----------------------------------------------------------------
             Standard Nuclear Orientation (Angstroms)
    I     Atom           X                Y                Z
 ----------------------------------------------------------------
    1      C      -0.7108344857    -0.1088383612    -0.6859322694
    2      C       0.8362531030     0.2054518765    -0.6580802349
    3      C      -1.6715129041     0.9698511489    -0.2110657122
    4      C       1.3471156542     1.4753983253     0.0169621566
    5      O      -2.0063483489     1.7581110152    -1.2594211965
    6      O      -2.1335451891     1.1122967508     0.8927254035
    7      O       0.3812327806     2.3551003421     0.3146534893
    8      O       2.5174156344     1.6983023401     0.2198428307
    9      C       0.7904585104     3.5828495676     0.9421548402
   10      C      -2.8959483238     2.8454437944    -0.9653651770
   11      C      -0.7667777883    -1.4619927698     0.1094744450
   12      C      -0.3431651094    -2.5752897462    -0.8736093465
   13      C       1.1666140976    -2.2713653162    -1.0363751101
   14      C       1.3746163879    -1.1220283393    -0.0102280626
   15      O       0.3713620448    -1.3808506081     0.9850373944
   16      H      -0.9921198119    -0.2904647394    -1.7220845621
   17      H       1.2169927416     0.2889857874    -1.6781597739
   18      H       1.4293223114     4.1581595142     0.2703878318
   19      H      -2.4359318185     3.5293464497    -0.2495746189
   20      H      -0.5045843954    -3.5488734470    -0.4065388359
   21      H      -0.9102165042    -2.5482936644    -1.8038753087
   22      H       1.7849683772    -3.1270193002    -0.7635352789
   23      H       1.4516815804    -1.9712653138    -2.0445028385
   24      H      -0.1331635873     4.1172779627     1.1524552113
   25      H       1.3305055215     3.3745943953     1.8661767351
   26      H      -3.8342587749     2.4721520531    -0.5522570822
   27      H      -3.0684845781     3.3474289802    -1.9151609678
   28      C      -2.0148441752    -1.7615263305     0.9131340625
   29      C       2.7484737796    -1.1323196960     0.6282650874
   30      O       3.6994437018    -1.0438122956    -0.4180559273
   31      H       2.8613427936    -2.0795362056     1.1764914723
   32      H       2.8653690476    -0.3089413197     1.3370176006
   33      C       4.9847524481    -0.6536968376     0.0292324172
   34      H       5.6316633978    -0.6213520651    -0.8479543497
   35      H       5.3969195765    -1.3758590113     0.7487809910
   36      H       4.9500525861     0.3401075459     0.4909274877
   37      O      -3.1059677556    -1.7414534056     0.0036034177
   38      H      -2.1466780345    -1.0128860035     1.6973242375
   39      H      -1.9132584511    -2.7538473436     1.3756888467
   40      C      -4.3637208621    -1.7835503763     0.6513233252
   41      H      -5.1269534952    -1.7642898552    -0.1273373127
   42      H      -4.4951771095    -0.9164616865     1.3114723513
   43      H      -4.4796608534    -2.7028852623     1.2424696808
 ----------------------------------------------------------------
 Nuclear Repulsion Energy =  1970.5547197282 hartrees
 There are       81 alpha and       81 beta electrons
 Applying Cartesian multipole field
    Component          Value
    ---------          -----
     (2,0,0)        1.00000E-12
     (0,2,0)        2.00000E-11
     (0,0,2)       -3.00000E-11
 Nucleus-field energy     =     0.0000000331 hartrees
 Requested basis set is 6-311++G(d,p)
 There are 236 shells and 616 basis functions
 A cutoff of  1.0D-11 yielded  21095 shell pairs
 There are    145228 function pairs (    154399 Cartesian)
 Smallest overlap matrix eigenvalue = 2.72E-07

 Q-Chem warning in module /fs/scratch/osu6415/qchem-kaunlao-vdw/stvman/mkSTV.C, line 281:

 Overlap eigenvalue is smaller than square root of threshold

 Linear dependence detected in AO basis
 Number of orthogonalized atomic orbitals = 614
 Maximum deviation from orthogonality = 2.286E-10
 Guess MOs from SCF MO coefficient file
 Reading MOs from coefficient file
 Reading MOs from coefficient file
 A restricted hybrid HF-DFT SCF calculation will be
 performed using Pulay DIIS extrapolation
 Exchange:     0.2000 Hartree-Fock + 0.0800 Slater + 0.7200 B88
 Correlation:  0.1900 VWN1RPA + 0.8100 LYP
 Using SG-1 standard quadrature grid
 Dispersion:   Grimme D3
 SCF converges when DIIS error is below 1.0E-08
 Geometry optimization detected.  Setting ReadMinima to 0
 Setting SaveMinima to 0
 using 20 threads for integral computing
 -------------------------------------------------------
 OpenMP Integral computing Module                
 Release: version 1.0, May 2013, Q-Chem Inc. Pittsburgh 
 -------------------------------------------------------
 -------------------------------------------------------
 OpenMP BLAS3 based DFT computing Module                
 Release: version 1.0, May 2013, Q-Chem Inc. Pittsburgh 
 -------------------------------------------------------
 ---------------------------------------
  Cycle       Energy         DIIS Error
 ---------------------------------------
    1   -1073.6238033320      2.86E-04
    2   -1073.6262514814      3.49E-05
    3   -1073.6261919317      5.74E-05
[...]
    -0.01475638     -0.00550791     -0.05761036
    -0.20738116     -0.09899390      0.53082165
     0.00581236      0.00118596      0.00144965
     0.00244739      0.00326580      0.00217154
     0.03549883      0.21002431     -0.08349456
    -0.26622041      0.04026612     -0.44002930
     0.20474753     -0.29980412      0.06407122
    -0.10840180     -0.15152100      0.40479293
    -0.00086121      0.00167166     -0.00160221
    -0.00113133      0.00036803      0.00187447
     0.00379010      0.00224358     -0.00369558
    -0.00006655     -0.00010796      0.00005676
     0.00011042     -0.00086183      0.00004393
    -0.00004105      0.00191330      0.00076324
     0.00010147     -0.00004098      0.00007906
     0.00373175     -0.01244868      0.00403337
    -0.00040565     -0.01083216     -0.01377514
    -0.00032376     -0.00009160      0.00020477
     0.00240751      0.00158830     -0.00329545
     0.00100477     -0.00148245      0.00072391
     0.00004024      0.00050274      0.00070140
     0.00004739     -0.00000935     -0.00005983
    -0.00075133      0.00354727      0.00385083
     0.00065260      0.00847320     -0.00364357
    -0.00015459      0.00003358      0.00000152
     0.00105179     -0.00022421      0.00109149
     0.00021972     -0.00097318     -0.00115605
     0.00026981      0.00071959     -0.00036166
vibration 116
     0.00000662     -0.00001968     -0.00001364
     0.00007754      0.00004592     -0.00014929
    -0.00002425      0.00003348     -0.00000217
    -0.00005535      0.00008770     -0.00011404
     0.00001400     -0.00001415      0.00000737
     0.00000777     -0.00000783     -0.00000247
     0.00000875     -0.00005636      0.00003031
     0.00005414     -0.00004745      0.00005247
    -0.00031744     -0.00006310      0.00024512
    -0.00025091     -0.00023103      0.00009389
    -0.00002139     -0.00001130     -0.00001376
     0.00023708     -0.00047961      0.00071334
     0.00020899     -0.00030444      0.00013901
    -0.00010611     -0.00001467      0.00003017
     0.00003250      0.00000282      0.00001578
     0.00008049      0.00004374      0.00018351
    -0.00058997     -0.00026095      0.00172517
     0.00206433      0.00031392      0.00048650
     0.00114300      0.00156887      0.00104993
     0.00094718      0.00538127     -0.00223693
    -0.00363068      0.00054727     -0.00605032
    -0.00223887      0.00323557     -0.00082149
     0.00034956      0.00028127     -0.00087735
    -0.00023792      0.00037077     -0.00032999
     0.00198049      0.00019167     -0.00308169
     0.00196721      0.00115774     -0.00190217
    -0.00017822      0.00005332     -0.00025355
    -0.00003063     -0.00000709     -0.00000221
    -0.00067281     -0.00153988     -0.00078380
     0.00045110      0.00008128     -0.00005389
    -0.00221409      0.00332498     -0.00103415
    -0.00166946      0.01112699      0.01642464
     0.04139629      0.02912672     -0.07465903
    -0.54810880     -0.35044908      0.70977619
     0.06128073     -0.13534482      0.02992830
    -0.00199091      0.14203987      0.14339481
     0.00002822      0.00000016     -0.00000031
    -0.00004926     -0.00001151     -0.00002439
    -0.00001007      0.00013816     -0.00005742
     0.00126962     -0.00037808      0.00172237
    -0.01619163      0.00400209     -0.01597893
     0.00039923     -0.00345648     -0.00308135
     0.00071323      0.00391207     -0.00127923
vibration 117
     0.00003248      0.00002545      0.00013271
     0.00001219     -0.00000904     -0.00003615
    -0.00009646      0.00006491     -0.00015939
    -0.00000814      0.00005134     -0.00000995
     0.00004798     -0.00004983      0.00005662
    -0.00000654     -0.00003404      0.00007577
     0.00000471     -0.00002704      0.00000654
     0.00000148     -0.00001326      0.00000397
     0.00022686      0.00000561      0.00004943
     0.00479102      0.00480621     -0.00060112
     0.00011880      0.00002323      0.00001470
     0.00008741     -0.00035833      0.00043582
     0.00019890     -0.00051275      0.00039876
     0.00001434      0.00000298     -0.00001711
    -0.00003470     -0.00000647      0.00001903
    -0.00051616     -0.00014252     -0.00154628
    -0.00021617     -0.00009908      0.00045549
    -0.00222073     -0.00041587     -0.00056655
    -0.02726968     -0.03821834     -0.02522913
     0.00068224      0.00374560     -0.00163721
    -0.00221711      0.00026433     -0.00356618
    -0.00344404      0.00491359     -0.00109540
     0.00093754      0.00129270     -0.00348048
    -0.00023616      0.00045230     -0.00042932
    -0.00023439     -0.00004115      0.00037108
    -0.03145775     -0.01886873      0.03058510
     0.00179487      0.00019161      0.00151386
     0.00081790     -0.00059183      0.00007722
    -0.00000193     -0.00005965     -0.00003291
    -0.00000454     -0.00000195     -0.00000010
    -0.00011193      0.00022174     -0.00007150
    -0.00004171      0.00043068      0.00060043
     0.00101854      0.00070285     -0.00178527
    -0.01329762     -0.00849594      0.01720104
     0.00139127     -0.00308263      0.00064652
    -0.00004871      0.00329183      0.00328452
    -0.00048296     -0.00001275      0.00000848
     0.00162091      0.00412662      0.00486104
     0.00141611      0.00177998     -0.00082486
    -0.05344239      0.01538957     -0.07055289
     0.67490515     -0.16672638      0.66543381
    -0.01572606      0.13719769      0.12083744
    -0.02772251     -0.15217598      0.04826682
vibration 118
     0.00004917     -0.00006073      0.00085828
    -0.00025817     -0.00006771      0.00060636
     0.00006434      0.00015640     -0.00011560
     0.00004581     -0.00014094      0.00005076
     0.00030965      0.00017030     -0.00004987
     0.00007691      0.00012246      0.00000035
    -0.00001697      0.00006363     -0.00002964
    -0.00001625      0.00003506     -0.00003368
    -0.00345229     -0.00025964      0.00061265
    -0.06637510     -0.06601524      0.01242135
     0.00000522      0.00000614     -0.00002442
    -0.00033962      0.00046516     -0.00083436
    -0.00009799      0.00030993     -0.00025088
    -0.00001744     -0.00000619      0.00001888
     0.00002935      0.00000742     -0.00000418
    -0.00260356     -0.00117180     -0.00964370
     0.00284204      0.00128370     -0.00712203
     0.02834724      0.00499627      0.00731165
     0.36474653      0.50779245      0.33505191
    -0.00085657     -0.00498063      0.00198067
     0.00484797     -0.00070932      0.00799787
     0.00194274     -0.00274994      0.00060567
    -0.00067606     -0.00091428      0.00234366
     0.00131115     -0.00307166      0.00299359
     0.01124468      0.00134508     -0.01726118
     0.45424877      0.27085974     -0.44597625
    -0.03371809      0.00203038     -0.03515784
    -0.00000035      0.00018644      0.00003866
     0.00000205     -0.00003526     -0.00001374
     0.00000243      0.00000780     -0.00000225
    -0.00006499      0.00033121     -0.00006318
     0.00003807      0.00010499      0.00022646
    -0.00007343     -0.00008525      0.00013447
     0.00109703      0.00068314     -0.00141108
    -0.00021078      0.00050277     -0.00013831
     0.00000736     -0.00012999     -0.00007972
     0.00000674     -0.00002027      0.00001747
     0.00017637     -0.00072443     -0.00090147
     0.00018718     -0.00149269      0.00054707
    -0.00391690      0.00148762     -0.00501266
     0.04942843     -0.01183934      0.04870335
    -0.00096072      0.00785232      0.00605974
    -0.00215055     -0.01339154      0.00446333
vibration 119
    -0.01063738     -0.00453069     -0.03998752
     0.00059339      0.00023267     -0.00104396
    -0.00073625      0.00050825     -0.00100555
     0.00031537      0.00029464      0.00025530
     0.00007435     -0.00003292      0.00015434
     0.00004966     -0.00000629      0.00025779
    -0.00001549     -0.00005637     -0.00001663
    -0.00008648     -0.00002611     -0.00012451
    -0.00037580     -0.00000715      0.00022358
    -0.00081481     -0.00110702      0.00022213
     0.00051959     -0.00118696      0.00058171
     0.01905587     -0.02975453      0.04941689
     0.00872634     -0.03860340      0.03850195
    -0.00017939     -0.00109042      0.00052284
     0.00003610      0.00015821     -0.00030701
     0.12711638      0.05480539      0.47174357
    -0.00600252     -0.00017270      0.01210296
     0.00225009      0.00031348      0.00061489
     0.00626491      0.00910989      0.00585920
     0.05662309      0.32105057     -0.13051647
    -0.28002959      0.04082529     -0.45654948
    -0.21613049      0.31367287     -0.06679223
     0.10850353      0.14827767     -0.39186545
     0.00005524     -0.00035529      0.00024651
     0.00217590      0.00023248     -0.00325577
     0.00524334      0.00325870     -0.00531199
    -0.00120071      0.00054931     -0.00205914
    -0.00006564     -0.00142331      0.00007146
     0.00022527     -0.00133406     -0.00019210
    -0.00002720      0.00002407     -0.00001532
    -0.00455392      0.01275707     -0.00414353
     0.00049804      0.00490007      0.00592150
    -0.00031026     -0.00031270      0.00062784
     0.00468387      0.00297203     -0.00594649
    -0.00104242      0.00193212     -0.00056442
     0.00001040     -0.00116580     -0.00115433
     0.00000819      0.00000318     -0.00001767
    -0.00086441      0.00426011      0.00509430
     0.00145384      0.01444116     -0.00598485
     0.00029219     -0.00013176      0.00041904
    -0.00392892      0.00101171     -0.00383076
     0.00013792     -0.00094373     -0.00089218
     0.00036206      0.00129951     -0.00045150
vibration 120
    -0.00004949     -0.00008314     -0.00033873
    -0.00022569     -0.00004145      0.00014403
    -0.00001259      0.00014977      0.00013026
     0.00005812      0.00007048     -0.00026668
    -0.00000084     -0.00003447     -0.00000977
    -0.00001164     -0.00009358     -0.00005699
     0.00032218     -0.00004679     -0.00010239
     0.00016166      0.00010415      0.00003221
    -0.08792822     -0.01320425      0.03359760
     0.00218556      0.00255011     -0.00093631
    -0.00002778      0.00003532     -0.00003291
    -0.00019558      0.00028799     -0.00049340
    -0.00007632      0.00020625     -0.00015567
    -0.00000720      0.00001200      0.00000672
     0.00002208     -0.00000389      0.00000593
     0.00098671      0.00033498      0.00372695
     0.00041770      0.00029763     -0.00037972
     0.68191044      0.11313365      0.17940944
    -0.01202242     -0.01739614     -0.01151381
    -0.00050747     -0.00318495      0.00127480
     0.00285574     -0.00039385      0.00469083
     0.00134548     -0.00193128      0.00042724
    -0.00042361     -0.00054058      0.00139433
    -0.01817569      0.00131524      0.00261420
     0.37671650      0.04156882     -0.57928856
    -0.01733491     -0.01043151      0.01664331
     0.00371602     -0.00221649      0.00607962
    -0.00000446      0.00008811      0.00002056
    -0.00001276     -0.00006865     -0.00002645
     0.00001249      0.00000893     -0.00000458
    -0.00002795      0.00039385     -0.00007842
     0.00002253      0.00032374      0.00050797
    -0.00016336     -0.00019578      0.00025692
     0.00226900      0.00136734     -0.00290401
    -0.00036409      0.00093436     -0.00023843
     0.00000650     -0.00008778      0.00010608
    -0.00000263     -0.00000670      0.00000093
     0.00005213     -0.00030744     -0.00048279
    -0.00003339     -0.00072462      0.00025131
     0.00003417      0.00003945      0.00002983
    -0.00031538      0.00009753     -0.00031379
     0.00001758     -0.00016436     -0.00019625
    -0.00004942     -0.00034113      0.00015480
vibration 121
    -0.01813205     -0.00788525     -0.06798375
     0.00749863      0.00352643     -0.01808909
    -0.00107617      0.00065024     -0.00181259
     0.00023476      0.00037620     -0.00021599
     0.00010323     -0.00002942      0.00030791
     0.00000198      0.00008051      0.00067021
    -0.00000380     -0.00007704      0.00003801
     0.00009060     -0.00001301      0.00014926
     0.00060849     -0.00010152     -0.00004881
     0.00010767     -0.00060507      0.00018230
    -0.00093875      0.00028360     -0.00061434
    -0.01331742      0.01644481     -0.03193550
    -0.00265507      0.01581237     -0.01740856
     0.00073052      0.00022289     -0.00045754
     0.00021796     -0.00025288      0.00070275
     0.21861149      0.08926559      0.80433623
    -0.08757571     -0.04032798      0.21976226
    -0.00435681     -0.00069049     -0.00110474
     0.00324261      0.00534403      0.00326698
    -0.03011157     -0.17489412      0.07264402
     0.18873514     -0.02760101      0.31063549
     0.08330775     -0.12019460      0.02583767
    -0.05014932     -0.06922876      0.18167447
    -0.00068957      0.00147440     -0.00151190
    -0.00222551     -0.00002597      0.00363509
    -0.00089239     -0.00022304      0.00057603
    -0.00216588      0.00151615     -0.00427736
    -0.00019244      0.00002060     -0.00046617
    -0.00005121      0.00019878     -0.00035947
     0.00000708     -0.00002227      0.00004110
     0.00115292     -0.00379497      0.00125455
     0.00006649      0.00156830      0.00288213
     0.00013121      0.00013944     -0.00028823
    -0.00223421     -0.00137839      0.00277674
     0.00060311     -0.00106520      0.00033054
     0.00007712      0.00072726      0.00072437
    -0.00000850     -0.00000874      0.00010083
    -0.00007801      0.00178253      0.00332291
    -0.00012028     -0.00325852      0.00175098
    -0.00017047      0.00011333     -0.00045243
     0.00347685     -0.00080447      0.00323415
    -0.00043368      0.00168280      0.00170724
    -0.00059488     -0.00238991      0.00099542
vibration 122
     0.00004041      0.00001141      0.00014736
    -0.00003928      0.00002273     -0.00005846
     0.00010506     -0.00006546      0.00016663
     0.00042088      0.00066532      0.00099757
    -0.00004080      0.00006189     -0.00005054
    -0.00003921     -0.00001449     -0.00006822
    -0.00017808      0.00016105     -0.00024876
    -0.00022374     -0.00018343     -0.00048196
     0.03536995     -0.04873232      0.07312803
    -0.00076079     -0.00036254     -0.00091370
     0.00000789      0.00000444      0.00001123
     0.00003885     -0.00001152      0.00006589
    -0.00000549     -0.00001675      0.00002771
     0.00000935      0.00002471      0.00001231
    -0.00001260     -0.00000815     -0.00000800
    -0.00055879     -0.00027777     -0.00187953
     0.00004728     -0.00027016     -0.00035234
    -0.30346546     -0.06064272     -0.05925847
     0.00447866      0.00652932      0.00432475
     0.00000824      0.00006278     -0.00001446
    -0.00048801      0.00006583     -0.00080346
    -0.00005821      0.00006531     -0.00001024
     0.00007535      0.00012159     -0.00028321
    -0.30676501      0.62159416     -0.55653653
     0.19118325      0.01197106     -0.25428332
     0.00065530      0.00059004     -0.00080891
     0.00381283     -0.00310237      0.00743918
     0.00001132      0.00000404      0.00001185
    -0.00000840      0.00010558      0.00006793
     0.00000751     -0.00000721     -0.00000668
     0.00016869     -0.00072865      0.00009201
    -0.00012902     -0.00043662     -0.00090905
    -0.00006466      0.00002728      0.00008992
     0.00056195      0.00036774     -0.00072672
     0.00012212     -0.00031291      0.00011022
    -0.00002132     -0.00034911     -0.00044282
    -0.00001103      0.00000168     -0.00000177
     0.00001475     -0.00005771     -0.00008022
    -0.00001906      0.00001458     -0.00000713
     0.00004467     -0.00002138      0.00003460
    -0.00048816      0.00010361     -0.00047123
     0.00000278      0.00003404      0.00007934
     0.00000620      0.00010422     -0.00002197
vibration 123
    -0.00003195     -0.00001433     -0.00008921
     0.00002280      0.00001195     -0.00005577
     0.00051805     -0.00068818     -0.00091580
     0.00002213     -0.00001967     -0.00001170
     0.00010998     -0.00008163      0.00032658
    -0.00014466      0.00025342      0.00046040
    -0.00001612     -0.00000494      0.00000837
    -0.00000845      0.00000466      0.00000302
     0.00014334      0.00059711     -0.00102170
    -0.03211300      0.01520095     -0.08740293
     0.00000711     -0.00001567     -0.00000151
    -0.00003478      0.00000348     -0.00005306
     0.00002249     -0.00000447     -0.00002444
     0.00000805     -0.00000967     -0.00000192
    -0.00000724      0.00000926      0.00000813
     0.00029879      0.00045416      0.00194500
    -0.00032101     -0.00009403      0.00070233
    -0.00064946      0.00003739     -0.00030854
     0.16792571      0.23943384      0.13088323
    -0.00001513      0.00004137      0.00000324
     0.00037620     -0.00006859      0.00063411
    -0.00016215      0.00024857     -0.00005297
    -0.00010450     -0.00016828      0.00039577
     0.00339570     -0.00649768      0.00576041
    -0.00439275     -0.00036311      0.00662588
    -0.19077294     -0.11150012      0.15665699
     0.39978369     -0.30370556      0.75022627
    -0.00000294     -0.00010630     -0.00005095
     0.00000993     -0.00001957     -0.00000890
    -0.00000834      0.00000031      0.00000436
    -0.00006578      0.00019472     -0.00003259
     0.00002388      0.00007372      0.00015255
     0.00003309      0.00000418     -0.00002745
    -0.00028785     -0.00018392      0.00036565
    -0.00004497      0.00009952     -0.00004269
     0.00000006      0.00005280      0.00005151
     0.00001287      0.00001040      0.00001068
    -0.00005276      0.00044401      0.00080102
     0.00003222      0.00065710     -0.00015509
    -0.00014384     -0.00007764     -0.00021367
     0.00163202     -0.00040300      0.00156436
    -0.00012238      0.00090266      0.00107245
     0.00004066      0.00034484     -0.00011820
[INT]
    0.525005
    0.844290
    0.616691
    0.527101
    3.363876
    0.478356
    0.832972
    1.024238
    8.756754
    3.595851
    2.384981
    1.396618
    1.922399
    0.192966
    0.980459
    2.338569
    0.096246
    3.379607
    3.978975
    4.158023
    0.744569
    6.326710
    3.469321
   11.639736
    2.595688
    8.635447
    5.437348
    8.112132
    4.916015
   11.041112
    5.829187
   17.422718
    5.966870
    1.534708
    1.735467
    9.140140
    1.637478
    2.097694
    0.669872
   17.295106
    2.358119
    8.099878
    6.342529
    7.147858
   16.635506
   66.413225
    7.412349
    7.174855
   10.293408
   12.402766
    8.198775
   13.404165
   28.692788
   54.985001
   15.618997
    6.116289
  358.502109
   25.147322
    6.047935
   39.300258
   11.631398
    5.090752
   36.155248
   30.205058
  119.230795
  145.051522
    2.223550
    5.849907
    1.907768
  107.070016
  268.485550
   14.925125
    5.066833
   24.602893
   11.995999
   11.606996
   17.825362
    2.665543
    5.490605
  117.016529
   64.216896
    8.216970
    2.093275
   12.961836
   26.627104
    1.653060
    1.713890
    8.619305
   10.273657
    7.641852
    7.701231
    1.977796
    3.475151
   12.273659
   10.553676
   11.151193
   10.411094
   13.955066
   13.429220
   95.027195
  283.378555
   71.964505
   54.801848
   80.099192
   67.612437
   50.946720
   48.454672
   32.222438
   37.414668
   10.620484
   28.870966
   31.280788
    6.373155
    3.060730
    4.108769
   28.024849
   23.103408
   23.732667
   19.908741
   15.532929
   16.239272
   13.473812
   15.182595

======= END OF MOLDEN-FORMATTED INPUT FILE =======


        *************************************************************
        *                                                           *
        *  Thank you very much for using Q-Chem.  Have a nice day.  *
        *                                                           *
        *************************************************************


