r0169.ten.osc.edu 10.25.155
Q-Chem Developer Version! Running on 10.25.155.*
                  Welcome to Q-Chem
     A Quantum Leap Into The Future Of Chemistry


 Q-Chem 5.0, Q-Chem, Inc., Pleasanton, CA (2017)

 Yihan Shao,  Zhengting Gan,  E. Epifanovsky,  A. T. B. Gilbert,  M. Wormit,  
 J. Kussmann,  A. W. Lange,  A. Behn,  Jia Deng,  Xintian Feng,  D. Ghosh,  
 M. Goldey,  P. R. Horn,  L. D. Jacobson,  I. Kaliman,  T. Kus,  A. Landau,  
 Jie Liu,  E. I. Proynov,  R. M. Richard,  R. P. Steele,  E. J. Sundstrom,  
 H. L. Woodcock III,  P. M. Zimmerman,  D. Zuev,  B. Albrecht,  E. Alguire,  
 S. A. Baeppler,  Z. Benda,  Y. A. Bernard,  E. J. Berquist,  K. B. Bravaya,  
 D. Casanova,  Chun-Min Chang,  Yunqing Chen,  A. Chien,  K. D. Closser,  
 M. P. Coons,  S. Dasgupta,  M. Diedenhofen,  Hainam Do,  R. G. Edgar,  
 Po-Tung Fang,  S. Fatehi,  Qingguo Feng,  Qinghui Ge,  A. Ghysels,  
 J. Gomes,  J. Gonthier,  A. Gunina,  M. W. D. Hanson-Heine,  
 P. H. P. Harbach,  A. W. Hauser,  J. E. Herr,  E. G. Hohenstein,  
 Z. C. Holden,  Kerwin Hui,  T.-C. Jagau,  Hyunjun Ji,  B. Kaduk,  
 K. Khistyaev,  Jaehoon Kim,  P. Klunzinger,  K. Koh,  D. Kosenkov,  
 T. Kowalczyk,  C. M. Krauter,  A. Kunitsa,  Ka Un Lao,  A. Laurent,  
 K. V. Lawler,  Joonho Lee,  D. Lefrancois,  S. Lehtola,  D. S. Levine,  
 Yi-Pei Li,  You-Sheng Lin,  Fenglai Liu,  E. Livshits,  A. Luenser,  
 P. Manohar,  E. Mansoor,  S. F. Manzer,  Shan-Ping Mao,  Yuezhi Mao,  
 N. Mardirossian,  A. V. Marenich,  L. A. Martinez-Martinez,  S. A. Maurer,  
 N. J. Mayhall,  S. C. McKenzie,  J.-M. Mewes,  A. F. Morrison,  K. Nanda,  
 T. S. Nguyen-Beck,  R. Olivares-Amaya,  J. A. Parkhill,  T. M. Perrine,  
 F. Plasser,  S. Prager,  A. Prociuk,  D. R. Rehn,  F. Rob,  M. Schneider,  
 N. Sergueev,  S. M. Sharada,  S. Sharma,  D. W. Small,  T. Stauch,  
 T. Stein,  Yu-Chuan Su,  A. J. W. Thom,  T. Tsuchimochi,  L. Vogt,  
 O. Vydrov,  M. A. Watson,  J. Wenzel,  M. de Wergifosse,  T. A. Wesolowski,  
 A. White,  J. Witte,  A. Yamada,  Jun Yang,  K. Yao,  S. Yeganeh,  
 S. R. Yost,  Zhi-Qiang You,  A. Zech,  Igor Ying Zhang,  Xing Zhang,  
 Yan Zhao,  Ying Zhu,  B. R. Brooks,  G. K. L. Chan,  C. J. Cramer,  
 M. S. Gordon,  W. J. Hehre,  A. Klamt,  M. W. Schmidt,  C. D. Sherrill,  
 D. G. Truhlar,  A. Aspuru-Guzik,  R. Baer,  A. T. Bell,  N. A. Besley,  
 Jeng-Da Chai,  A. Dreuw,  B. D. Dunietz,  T. R. Furlani,  Chao-Ping Hsu,  
 Yousung Jung,  Jing Kong,  D. S. Lambrecht,  WanZhen Liang,  C. Ochsenfeld,  
 V. A. Rassolov,  L. V. Slipchenko,  J. E. Subotnik,  T. Van Voorhis,  
 J. M. Herbert,  A. I. Krylov,  P. M. W. Gill,  M. Head-Gordon

 Contributors to earlier versions of Q-Chem not listed above: 
 R. D. Adamson,  B. Austin,  J. Baker,  G. J. O. Beran,  K. Brandhorst,  
 S. T. Brown,  E. F. C. Byrd,  A. K. Chakraborty,  C.-L. Cheng,  
 Siu Hung Chien,  D. M. Chipman,  D. L. Crittenden,  H. Dachsel,  
 R. A. DiStasio Jr.,  R. J. Doerksen,  A. D. Dutoi,  L. Fusti-Molnar,  
 W. A. Goddard III,  A. Golubeva-Zadorozhnaya,  S. R. Gwaltney,  G. Hawkins,  
 A. Heyden,  S. Hirata,  G. Kedziora,  F. J. Keil,  C. Kelley,  Jihan Kim,  
 R. A. King,  R. Z. Khaliullin,  P. P. Korambath,  W. Kurlancheek,  
 A. M. Lee,  M. S. Lee,  S. V. Levchenko,  Ching Yeh Lin,  D. Liotard,  
 R. C. Lochan,  I. Lotan,  P. E. Maslen,  N. Nair,  D. P. O'Neill,  
 D. Neuhauser,  E. Neuscamman,  C. M. Oana,  R. Olson,  B. Peters,  
 R. Peverati,  P. A. Pieniazek,  Y. M. Rhee,  J. Ritchie,  M. A. Rohrdanz,  
 E. Rosta,  N. J. Russ,  H. F. Schaefer III,  N. E. Schultz,  N. Shenvi,  
 A. C. Simmonett,  A. Sodt,  D. Stuck,  K. S. Thanthiriwatte,  V. Vanovschi,  
 Tao Wang,  A. Warshel,  C. F. Williams,  Q. Wu,  X. Xu,  W. Zhang

 Please cite Q-Chem as follows:
 Y. Shao et al., Mol. Phys. 113, 184-215 (2015)
 DOI: 10.1080/00268976.2014.952696

 Q-Chem 5.0.1 for Intel X86 EM64T Linux

 Parts of Q-Chem use Armadillo 5.200.1 (Boston Tea Smuggler).
 http://arma.sourceforge.net/

 Q-Chem begins on Tue Oct 24 10:21:15 2017  

Host: r0169.ten.osc.edu
0

     Scratch files written to /tmp/pbstmp.1324401/02//
Processing $rem in /users/PAS0291/osu6415/.qchemrc.
molden_format             true

Checking the input file for inconsistencies... 	...done.

--------------------------------------------------------------
User input:
--------------------------------------------------------------
$molecule
0 1
C -0.82454796 -0.05939355 -0.75225577
C 0.74657278 0.04310929 -0.81795118
C -1.51375367 1.20280123 -0.25796276
C 1.37005506 1.30808322 -0.26195747
O -1.23656119 2.20871707 -1.12282298
O -2.22543740 1.34293145 0.70231778
O 0.87654258 1.62887857 0.95182109
O 2.23332900 1.94312466 -0.81598853
C 1.40039906 2.82045717 1.55976085
C -1.79580007 3.49287667 -0.80041657
C -1.01337065 -1.36831426 0.07686593
C -0.66896216 -2.55484861 -0.86218197
C 0.87868057 -2.46478166 -0.93036246
C 1.15034630 -1.24599579 -0.01547967
O 0.11492075 -1.34815117 0.96900212
H -1.20762462 -0.20449400 -1.76352145
H 1.10458052 -0.02112610 -1.84216222
H 1.22138562 3.68529418 0.91853639
H -1.46056420 3.81673449 0.18633526
H -0.99309221 -3.48809678 -0.39864895
H -1.16216828 -2.47505350 -1.83073307
H 1.35255296 -3.35326501 -0.50921254
H 1.27279628 -2.31973137 -1.93586240
H 0.86711747 2.92167785 2.50225349
H 2.47358445 2.72243255 1.73210793
H -2.88601033 3.44809917 -0.81036520
H -1.43249628 4.16920380 -1.57093513
C -2.29441818 -1.54548796 0.86509515
C 2.50698549 -1.23191774 0.65670713
O 3.48348685 -1.21663714 -0.36691421
H 2.60628374 -2.12862934 1.28557868
H 2.60517535 -0.35402789 1.30887508
C 4.79253903 -0.97552150 0.11256459
H 5.45640662 -0.98459614 -0.75170842
H 5.11168371 -1.75361798 0.82043800
H 4.85952657 0.00397277 0.60485992
O -3.36223162 -1.49893187 -0.06982263
H -2.39304292 -0.75501486 1.61157791
H -2.26730342 -2.52035350 1.37376012
C -4.63266420 -1.42434171 0.54913264
H -5.37669082 -1.38922139 -0.24739233
H -4.71776817 -0.52017722 1.16528791
H -4.82476760 -2.30541998 1.17799743
$end

$rem
sym_ignore      true
jobtype         opt
method          b3lyp
basis           6-311++G(d,p)
dft_d           d3_op
mem_total       62000
MEM_STATIC      4000
ao2mo_disk      350000
max_scf_cycles  200
geom_opt_max_cycles 1000
geom_opt_tol_displacement 1
GEOM_OPT_TOL_GRADIENT       1
GEOM_OPT_TOL_ENERGY         1
$end

--------------------------------------------------------------
 Adding empirical dispersion correction 
 ----------------------------------------------------------------
 Doing -D3(op) with
 s6 =   1.00000
 s8 =   0.78311
 a1 =   0.30000
 a2 =   4.25000
 n  =  10.00000
 -D3 energy without 3body term =     -0.0513135943 hartrees
 ----------------------------------------------------------------
             Standard Nuclear Orientation (Angstroms)
    I     Atom           X                Y                Z
 ----------------------------------------------------------------
    1      C      -0.8245479600    -0.0593935500    -0.7522557700
    2      C       0.7465727800     0.0431092900    -0.8179511800
    3      C      -1.5137536700     1.2028012300    -0.2579627600
    4      C       1.3700550600     1.3080832200    -0.2619574700
    5      O      -1.2365611900     2.2087170700    -1.1228229800
    6      O      -2.2254374000     1.3429314500     0.7023177800
    7      O       0.8765425800     1.6288785700     0.9518210900
    8      O       2.2333290000     1.9431246600    -0.8159885300
    9      C       1.4003990600     2.8204571700     1.5597608500
   10      C      -1.7958000700     3.4928766700    -0.8004165700
   11      C      -1.0133706500    -1.3683142600     0.0768659300
   12      C      -0.6689621600    -2.5548486100    -0.8621819700
   13      C       0.8786805700    -2.4647816600    -0.9303624600
   14      C       1.1503463000    -1.2459957900    -0.0154796700
   15      O       0.1149207500    -1.3481511700     0.9690021200
   16      H      -1.2076246200    -0.2044940000    -1.7635214500
   17      H       1.1045805200    -0.0211261000    -1.8421622200
   18      H       1.2213856200     3.6852941800     0.9185363900
   19      H      -1.4605642000     3.8167344900     0.1863352600
   20      H      -0.9930922100    -3.4880967800    -0.3986489500
   21      H      -1.1621682800    -2.4750535000    -1.8307330700
   22      H       1.3525529600    -3.3532650100    -0.5092125400
   23      H       1.2727962800    -2.3197313700    -1.9358624000
   24      H       0.8671174700     2.9216778500     2.5022534900
   25      H       2.4735844500     2.7224325500     1.7321079300
   26      H      -2.8860103300     3.4480991700    -0.8103652000
   27      H      -1.4324962800     4.1692038000    -1.5709351300
   28      C      -2.2944181800    -1.5454879600     0.8650951500
   29      C       2.5069854900    -1.2319177400     0.6567071300
   30      O       3.4834868500    -1.2166371400    -0.3669142100
   31      H       2.6062837400    -2.1286293400     1.2855786800
   32      H       2.6051753500    -0.3540278900     1.3088750800
   33      C       4.7925390300    -0.9755215000     0.1125645900
   34      H       5.4564066200    -0.9845961400    -0.7517084200
   35      H       5.1116837100    -1.7536179800     0.8204380000
   36      H       4.8595265700     0.0039727700     0.6048599200
   37      O      -3.3622316200    -1.4989318700    -0.0698226300
   38      H      -2.3930429200    -0.7550148600     1.6115779100
   39      H      -2.2673034200    -2.5203535000     1.3737601200
   40      C      -4.6326642000    -1.4243417100     0.5491326400
   41      H      -5.3766908200    -1.3892213900    -0.2473923300
   42      H      -4.7177681700    -0.5201772200     1.1652879100
   43      H      -4.8247676000    -2.3054199800     1.1779974300
 ----------------------------------------------------------------
 Nuclear Repulsion Energy =  1984.5512753086 hartrees
 There are       81 alpha and       81 beta electrons
 Requested basis set is 6-311++G(d,p)
 There are 236 shells and 616 basis functions

 Total QAlloc Memory Limit  62000 MB
 Mega-Array Size      3911 MB
 MEM_STATIC part      4000 MB
 A cutoff of  1.0D-11 yielded  21257 shell pairs
 There are    146345 function pairs (    155633 Cartesian)
 
 -------------------------------------------------------
 OpenMP Integral Computing Module                       
 Release: version 1.0, May 2013, Q-Chem Inc. Pittsburgh 
 -------------------------------------------------------
 Integral Job Info:
 Integral job number is                      11
 Integral operator is                         1
 short-range coefficients                     0
 long-range coefficients              100000000
 Omega coefficients                           0
 if combine SR and LR in K                    0
 Integral screening is                        0
 Integral computing path is                   2
 max size of driver memory is            800000
 size of driver memory is                593474
 size of scratch memory is              2361544
 max col of scratch BK array               1296
 max len of scratch array in speh3          155
 max len of scratch index in speh4           18
 max int batch size is                      520
 min int batch size is                       52
 fixed nKL is                                52
 max L of basis functions is                  2
 order of int derivative is                   0
 number of shells is                        236
 number of basis is                         637
 number of cartesian basis is               637
 number of contracted shell pairs         21257
 number of primitive shell pairs          45738
 maxK2 (contraction) of shell pair           36
 max number of K2 of shell pair               1
 max number of CS2 of shell pair           4161
 max number of PS2 of shell pair           6834
 mem total for path MDJ                  257912
 -------------------------------------------------------
 Smallest overlap matrix eigenvalue = 2.75E-07

 Q-Chem warning in module /fs/scratch/osu6415/qchem-kaunlao-vdw/stvman/mkSTV.C, line 281:

 Overlap eigenvalue is smaller than square root of threshold

 Linear dependence detected in AO basis
 Number of orthogonalized atomic orbitals = 614
 Maximum deviation from orthogonality = 3.178E-10

 Scale SEOQF with 1.000000e-02/1.000000e-01/1.000000e-01

 Standard Electronic Orientation quadrupole field applied
 Nucleus-field energy     =     0.0000000303 hartrees
 Guess from superposition of atomic densities
 Warning:  Energy on first SCF cycle will be non-variational
 A restricted hybrid HF-DFT SCF calculation will be
 performed using Pulay DIIS extrapolation
 Exchange:     0.2000 Hartree-Fock + 0.0800 Slater + 0.7200 B88
 Correlation:  0.1900 VWN1RPA + 0.8100 LYP
 Using SG-1 standard quadrature grid
 Dispersion:   Grimme D3
 SCF converges when DIIS error is below 1.0E-08
 using 20 threads for integral computing
 -------------------------------------------------------
 OpenMP Integral computing Module                
 Release: version 1.0, May 2013, Q-Chem Inc. Pittsburgh 
 -------------------------------------------------------
 -------------------------------------------------------
 OpenMP BLAS3 based DFT computing Module                
 Release: version 1.0, May 2013, Q-Chem Inc. Pittsburgh 
 -------------------------------------------------------
 ---------------------------------------
  Cycle       Energy         DIIS Error
 ---------------------------------------
    1   -1077.8064814583      2.54E-02
    2   -1073.2646951324      3.07E-03
    3   -1072.7419432645      5.01E-03
    4   -1073.5808317300      1.17E-03
    5   -1073.6287491626      3.30E-04
    6   -1073.6319707156      1.22E-04
    7   -1073.6324594642      2.75E-05
    8   -1073.6324838393      9.17E-06
    9   -1073.6324867638      3.14E-06
   10   -1073.6324870422      1.36E-06
   11   -1073.6324871077      2.43E-07
   12   -1073.6324871095      8.11E-08
   13   -1073.6324871097      2.27E-08
   14   -1073.6324871111      9.40E-09 Convergence criterion met
 ---------------------------------------
 SCF time:  CPU 1940.55 s  wall 121.44 s
 SCF   energy in the final basis set = -1073.63248711
 Total energy in the final basis set = -1073.63248711
 
 --------------------------------------------------------------
 
                    Orbital Energies (a.u.)
 --------------------------------------------------------------
 
 Alpha MOs
 -- Occupied --
-19.172 -19.172 -19.133 -19.133 -19.127 -19.116 -19.114 -10.307
-10.304 -10.243 -10.238 -10.230 -10.229 -10.225 -10.216 -10.213
-10.210 -10.204 -10.202 -10.174 -10.173  -1.118  -1.111  -1.068
 -1.046  -1.038  -1.028  -1.026  -0.831  -0.804  -0.783  -0.747
 -0.739  -0.726  -0.697  -0.662  -0.652  -0.635  -0.604  -0.577
 -0.567  -0.558  -0.527  -0.516  -0.515  -0.503  -0.494  -0.487
 -0.484  -0.482  -0.480  -0.473  -0.472  -0.462  -0.456  -0.455
 -0.430  -0.425  -0.423  -0.416  -0.410  -0.402  -0.396  -0.386
 -0.372  -0.370  -0.361  -0.358  -0.354  -0.352  -0.342  -0.331
 -0.328  -0.323  -0.315  -0.314  -0.286  -0.278  -0.277  -0.269
 -0.262
 -- Virtual --
 -0.014  -0.011  -0.004  -0.003   0.004   0.008   0.011   0.014
  0.023   0.025   0.027   0.028   0.036   0.039   0.042   0.044
  0.046   0.050   0.053   0.059   0.060   0.063   0.070   0.073
  0.074   0.080   0.085   0.090   0.097   0.098   0.101   0.107
  0.108   0.109   0.113   0.113   0.115   0.120   0.121   0.123
  0.126   0.129   0.130   0.132   0.133   0.135   0.138   0.138
  0.141   0.145   0.148   0.151   0.152   0.154   0.158   0.159
  0.161   0.163   0.163   0.167   0.172   0.173   0.175   0.177
  0.180   0.183   0.187   0.188   0.193   0.196   0.200   0.202
  0.204   0.206   0.207   0.211   0.212   0.215   0.220   0.225
  0.229   0.234   0.236   0.240   0.245   0.247   0.252   0.255
  0.259   0.262   0.264   0.266   0.268   0.272   0.275   0.280
  0.281   0.287   0.291   0.294   0.297   0.301   0.307   0.310
  0.313   0.315   0.322   0.323   0.326   0.328   0.331   0.336
  0.338   0.343   0.349   0.353   0.355   0.360   0.362   0.365
  0.375   0.376   0.376   0.379   0.383   0.388   0.389   0.394
  0.397   0.403   0.413   0.413   0.420   0.424   0.430   0.435
  0.438   0.443   0.449   0.459   0.461   0.473   0.478   0.481
  0.482   0.489   0.500   0.505   0.514   0.515   0.521   0.531
  0.539   0.545   0.550   0.553   0.560   0.562   0.574   0.577
  0.583   0.594   0.597   0.602   0.606   0.612   0.621   0.623
  0.631   0.639   0.645   0.650   0.654   0.664   0.668   0.670
  0.673   0.675   0.681   0.684   0.690   0.691   0.699   0.707
  0.712   0.715   0.723   0.728   0.732   0.735   0.742   0.744
  0.747   0.751   0.752   0.758   0.761   0.769   0.780   0.785
  0.794   0.799   0.812   0.816   0.825   0.829   0.845   0.855
  0.864   0.875   0.877   0.894   0.924   0.947   0.966   0.982
  0.990   1.008   1.022   1.042   1.045   1.059   1.063   1.067
  1.080   1.088   1.096   1.102   1.117   1.131   1.143   1.149
  1.156   1.175   1.183   1.190   1.199   1.215   1.220   1.229
  1.236   1.249   1.256   1.262   1.272   1.282   1.290   1.302
  1.308   1.318   1.327   1.329   1.347   1.370   1.373   1.376
  1.383   1.397   1.401   1.421   1.425   1.440   1.447   1.451
  1.453   1.461   1.468   1.471   1.476   1.489   1.508   1.522
  1.529   1.542   1.547   1.559   1.563   1.566   1.573   1.576
  1.582   1.585   1.589   1.592   1.595   1.602   1.615   1.619
  1.627   1.629   1.635   1.649   1.652   1.665   1.669   1.679
  1.684   1.691   1.696   1.703   1.720   1.725   1.731   1.735
  1.739   1.744   1.748   1.755   1.765   1.775   1.777   1.784
  1.789   1.798   1.812   1.817   1.823   1.837   1.841   1.856
  1.862   1.869   1.882   1.887   1.903   1.911   1.932   1.937
  1.952   1.955   1.968   1.974   2.008   2.014   2.019   2.036
  2.043   2.048   2.067   2.076   2.091   2.104   2.108   2.117
  2.121   2.131   2.139   2.142   2.155   2.159   2.166   2.184
  2.196   2.203   2.217   2.226   2.245   2.264   2.266   2.288
  2.307   2.318   2.352   2.361   2.385   2.388   2.425   2.440
  2.444   2.453   2.463   2.467   2.486   2.500   2.507   2.509
  2.518   2.522   2.528   2.530   2.533   2.542   2.548   2.552
  2.570   2.581   2.585   2.591   2.599   2.607   2.615   2.619
  2.640   2.660   2.678   2.688   2.703   2.718   2.732   2.743
  2.749   2.765   2.782   2.811   2.822   2.846   2.855   2.860
  2.866   2.880   2.887   2.893   2.905   2.912   2.925   2.952
  2.973   2.974   2.990   2.996   3.009   3.015   3.029   3.037
  3.042   3.053   3.064   3.066   3.069   3.099   3.106   3.124
  3.128   3.147   3.149   3.169   3.172   3.175   3.207   3.215
  3.226   3.242   3.247   3.251   3.262   3.272   3.293   3.298
  3.322   3.359   3.383   3.393   3.398   3.414   3.433   3.549
  3.602   3.611   3.678   3.690   3.731   3.744   3.777   3.784
  3.788   3.791   3.812   3.818   3.825   3.838   3.858   3.863
  3.966   3.989   4.070   4.087   4.089   4.104   4.108   4.136
  4.140   4.144   4.152   4.173   4.182   4.195   4.244   4.294
  4.325   4.461   4.517   5.068   5.122   5.132   5.141   5.189
  5.207   5.244   5.276   5.320   5.423   5.432   5.451   5.453
  5.526   5.633   5.650   5.658   5.714   5.755   5.894   5.916
 23.781  23.846  23.854  23.875  23.895  23.908  23.930  23.934
 23.938  23.945  23.951  23.978  23.979  24.052  49.923  49.949
 49.970  49.987  50.008  50.053  50.062
 --------------------------------------------------------------
 
          Ground-State Mulliken Net Atomic Charges

     Atom                 Charge (a.u.)
  ----------------------------------------
      1 C                     0.387045
      2 C                     0.674085
      3 C                    -0.907087
      4 C                    -0.774326
      5 O                     0.051488
      6 O                    -0.139608
      7 O                     0.015585
      8 O                    -0.096413
      9 C                    -0.179702
     10 C                    -0.178766
     11 C                    -0.937963
     12 C                    -0.312378
     13 C                    -0.393248
     14 C                    -0.877638
     15 O                     0.072685
     16 H                     0.300702
     17 H                     0.295728
     18 H                     0.185779
     19 H                     0.173566
     20 H                     0.175926
     21 H                     0.173576
     22 H                     0.174616
     23 H                     0.177867
     24 H                     0.176029
     25 H                     0.169938
     26 H                     0.171412
     27 H                     0.163545
     28 C                     0.049969
     29 C                     0.178234
     30 O                    -0.014696
     31 H                     0.181289
     32 H                     0.177728
     33 C                    -0.249430
     34 H                     0.147471
     35 H                     0.135488
     36 H                     0.143715
     37 O                    -0.034451
     38 H                     0.221887
     39 H                     0.147234
     40 C                    -0.240387
     41 H                     0.139341
     42 H                     0.142860
     43 H                     0.131302
  ----------------------------------------
  Sum of atomic charges =     0.000000

 -----------------------------------------------------------------
                    Cartesian Multipole Moments
 -----------------------------------------------------------------
    Charge (ESU x 10^10)
                 0.0000
    Dipole Moment (Debye)
         X      -0.2158      Y       0.1983      Z       0.9234
       Tot       0.9688
    Quadrupole Moments (Debye-Ang)
        XX    -119.3495     XY      -3.9468     YY    -115.6453
        XZ       7.9829     YZ       2.8190     ZZ    -126.6975
    Octopole Moments (Debye-Ang^2)
       XXX       3.8935    XXY     -12.5793    XYY     -18.2483
       YYY      63.8687    XXZ      27.5246    XYZ      22.1702
       YYZ      13.7829    XZZ      -0.4099    YZZ      10.7681
       ZZZ       1.0167
    Hexadecapole Moments (Debye-Ang^3)
      XXXX   -3930.9402   XXXY     -32.5848   XXYY   -1182.6110
      XYYY     -71.7784   YYYY   -2521.9105   XXXZ      43.0129
      XXYZ     -33.5459   XYYZ      52.6157   YYYZ     -19.2796
      XXZZ    -842.5649   XYZZ       5.0805   YYZZ    -553.6788
      XZZZ      17.3017   YZZZ      15.1749   ZZZZ    -669.8024
 -----------------------------------------------------------------
 Calculating analytic gradient of the SCF energy
 Gradient of SCF Energy
            1           2           3           4           5           6
    1   0.0001482  -0.0001189  -0.0002086   0.0000626   0.0000306   0.0001203
    2   0.0002077   0.0000060  -0.0001143  -0.0001476  -0.0000234   0.0000565
    3  -0.0003108   0.0002493  -0.0001884   0.0000800   0.0000070   0.0001613
            7           8           9          10          11          12
    1  -0.0000152  -0.0000348   0.0000129  -0.0000403   0.0000088   0.0000718
    2  -0.0000282   0.0001106   0.0000502   0.0000158  -0.0001069   0.0000272
    3  -0.0000058  -0.0000962  -0.0000037   0.0000069   0.0001251  -0.0000840
           13          14          15          16          17          18
    1  -0.0000661   0.0000261  -0.0000256  -0.0000036   0.0000085  -0.0000211
    2  -0.0000202  -0.0000546   0.0000257  -0.0000435   0.0000127   0.0000018
    3  -0.0000554   0.0001754  -0.0000998   0.0000045  -0.0000096  -0.0000052
           19          20          21          22          23          24
    1  -0.0000017   0.0000430  -0.0000235  -0.0000016   0.0000276  -0.0000161
    2  -0.0000033   0.0000038  -0.0000262  -0.0000087   0.0000350   0.0000093
    3  -0.0000185   0.0000603   0.0000190   0.0000135   0.0000199  -0.0000031
           25          26          27          28          29          30
    1  -0.0000162  -0.0000080  -0.0000160   0.0000599   0.0000280   0.0000260
    2   0.0000053  -0.0000153  -0.0000062   0.0000076   0.0000248  -0.0000026
    3   0.0000037  -0.0000169  -0.0000170   0.0000592  -0.0000605   0.0000280
           31          32          33          34          35          36
    1   0.0000035  -0.0000066  -0.0000479   0.0000165   0.0000111   0.0000040
    2   0.0000150   0.0000019   0.0000154   0.0000226   0.0000152   0.0000196
    3   0.0000154   0.0000181   0.0000045   0.0000134   0.0000108   0.0000095
           37          38          39          40          41          42
    1  -0.0000628  -0.0000208   0.0000093   0.0000559  -0.0000089  -0.0000076
    2  -0.0000609   0.0000047   0.0000077   0.0000054  -0.0000155  -0.0000120
    3  -0.0000392  -0.0000341  -0.0000047  -0.0000117  -0.0000063  -0.0000074
           43
    1  -0.0000026
    2  -0.0000180
    3  -0.0000065
 Max gradient component =       3.108E-04
 RMS gradient           =       6.696E-05
 Gradient time:  CPU 694.09 s  wall 55.02 s
 Geometry Optimization Parameters
   NAtoms,    NIC,     NZ,  NCons,   NDum,   NFix, NCnnct, MaxDiis
       43     325       0       0       0       0       0       0


** GEOMETRY OPTIMIZATION IN DELOCALIZED INTERNAL COORDINATES **
   Searching for a Minimum

   Optimization Cycle:   1

                       Coordinates (Angstroms)
     ATOM                X               Y               Z
      1  C        -0.8245479600   -0.0593935500   -0.7522557700
      2  C         0.7465727800    0.0431092900   -0.8179511800
      3  C        -1.5137536700    1.2028012300   -0.2579627600
      4  C         1.3700550600    1.3080832200   -0.2619574700
      5  O        -1.2365611900    2.2087170700   -1.1228229800
      6  O        -2.2254374000    1.3429314500    0.7023177800
      7  O         0.8765425800    1.6288785700    0.9518210900
      8  O         2.2333290000    1.9431246600   -0.8159885300
      9  C         1.4003990600    2.8204571700    1.5597608500
     10  C        -1.7958000700    3.4928766700   -0.8004165700
     11  C        -1.0133706500   -1.3683142600    0.0768659300
     12  C        -0.6689621600   -2.5548486100   -0.8621819700
     13  C         0.8786805700   -2.4647816600   -0.9303624600
     14  C         1.1503463000   -1.2459957900   -0.0154796700
     15  O         0.1149207500   -1.3481511700    0.9690021200
     16  H        -1.2076246200   -0.2044940000   -1.7635214500
     17  H         1.1045805200   -0.0211261000   -1.8421622200
     18  H         1.2213856200    3.6852941800    0.9185363900
     19  H        -1.4605642000    3.8167344900    0.1863352600
     20  H        -0.9930922100   -3.4880967800   -0.3986489500
     21  H        -1.1621682800   -2.4750535000   -1.8307330700
     22  H         1.3525529600   -3.3532650100   -0.5092125400
     23  H         1.2727962800   -2.3197313700   -1.9358624000
     24  H         0.8671174700    2.9216778500    2.5022534900
     25  H         2.4735844500    2.7224325500    1.7321079300
     26  H        -2.8860103300    3.4480991700   -0.8103652000
     27  H        -1.4324962800    4.1692038000   -1.5709351300
     28  C        -2.2944181800   -1.5454879600    0.8650951500
     29  C         2.5069854900   -1.2319177400    0.6567071300
     30  O         3.4834868500   -1.2166371400   -0.3669142100
     31  H         2.6062837400   -2.1286293400    1.2855786800
     32  H         2.6051753500   -0.3540278900    1.3088750800
     33  C         4.7925390300   -0.9755215000    0.1125645900
     34  H         5.4564066200   -0.9845961400   -0.7517084200
     35  H         5.1116837100   -1.7536179800    0.8204380000
     36  H         4.8595265700    0.0039727700    0.6048599200
     37  O        -3.3622316200   -1.4989318700   -0.0698226300
     38  H        -2.3930429200   -0.7550148600    1.6115779100
     39  H        -2.2673034200   -2.5203535000    1.3737601200
     40  C        -4.6326642000   -1.4243417100    0.5491326400
     41  H        -5.3766908200   -1.3892213900   -0.2473923300
     42  H        -4.7177681700   -0.5201772200    1.1652879100
     43  H        -4.8247676000   -2.3054199800    1.1779974300
   Point Group: c1    Number of degrees of freedom:   123


   Energy is  -1073.632487111


 Attempting to Generate Delocalized Internal Coordinates

123 Hessian modes will be used to form the next step
  Hessian Eigenvalues:
     0.002947    0.006443    0.007073    0.007101    0.007258    0.007313
     0.009873    0.010715    0.010801    0.010867    0.012997    0.013640
     0.013688    0.013691    0.021566    0.022396    0.023433    0.025676
     0.035429    0.035962    0.038278    0.039206    0.044665    0.045337
     0.049277    0.050737    0.054829    0.055294    0.055649    0.056615
     0.056673    0.061712    0.061895    0.063360    0.065244    0.065975
     0.080532    0.085654    0.094957    0.100496    0.100667    0.101372
     0.101391    0.101890    0.105125    0.105167    0.105985    0.106046
     0.109120    0.109215    0.109987    0.121428    0.123262    0.135197
     0.135871    0.151874    0.160000    0.160000    0.160000    0.160000
     0.160000    0.160000    0.160000    0.160000    0.160000    0.160000
     0.160000    0.160000    0.177400    0.219576    0.220083    0.232039
     0.233759    0.249899    0.249922    0.250000    0.250000    0.250000
     0.250000    0.250000    0.250000    0.251152    0.254793    0.263274
     0.276544    0.303012    0.307628    0.309003    0.309419    0.335350
     0.336903    0.337107    0.337489    0.337641    0.338714    0.339017
     0.339653    0.346168    0.346424    0.346512    0.346574    0.346623
     0.346660    0.346772    0.346879    0.347512    0.348301    0.348333
     0.348388    0.348499    0.350790    0.350886    0.351759    0.399615
     0.400527    0.424569    0.431982    0.432534    0.432570    0.539207
     0.552409    1.016581    1.031132

 Minimum Search - Taking Simple RFO Step
 Searching for Lamda that Minimizes Along All modes
 Value Taken    Lamda =  -0.00000912
 Step Taken.  Stepsize is  0.034800

                             Maximum     Tolerance    Cnvgd?
         Gradient           0.000116      0.000001      NO
         Displacement       0.014971      0.000001      NO
         Energy change     *********      0.000000      NO


 New Cartesian Coordinates Obtained by Inverse Iteration

 Displacement from previous Coordinates is:  0.051230
 Adding empirical dispersion correction 
 ----------------------------------------------------------------
 Doing -D3(op) with
 s6 =   1.00000
 s8 =   0.78311
 a1 =   0.30000
 a2 =   4.25000
 n  =  10.00000
 -D3 energy without 3body term =     -0.0513200096 hartrees
 ----------------------------------------------------------------
             Standard Nuclear Orientation (Angstroms)
    I     Atom           X                Y                Z
 ----------------------------------------------------------------
    1      C      -0.8250763206    -0.0591445317    -0.7509766280
    2      C       0.7461040695     0.0426753769    -0.8190221462
    3      C      -1.5135009667     1.2030849159    -0.2556755714
    4      C       1.3704469092     1.3078736619    -0.2643867521
    5      O      -1.2323937605     2.2102802765    -1.1177843309
    6      O      -2.2350041134     1.3400838838     0.6976607857
    7      O       0.8751190177     1.6316219587     0.9478654788
    8      O       2.2391466017     1.9377720883    -0.8157130009
    9      C       1.4018449047     2.8217252171     1.5561052153
   10      C      -1.7950865441     3.4933935422    -0.7974068683
   11      C      -1.0136610140    -1.3685909444     0.0767843716
   12      C      -0.6689235358    -2.5542069546    -0.8633960939
   13      C       0.8790122554    -2.4654969588    -0.9293428677
   14      C       1.1500659862    -1.2458308145    -0.0156153207
   15      O       0.1146734324    -1.3484111970     0.9689597532
   16      H      -1.2088141978    -0.2028419689    -1.7621901238
   17      H       1.1032385409    -0.0228166060    -1.8434397124
   18      H       1.2275764110     3.6867120272     0.9137690283
   19      H      -1.4669960174     3.8161723194     0.1920996373
   20      H      -0.9949642280    -3.4879429544    -0.4022167294
   21      H      -1.1602216837    -2.4722413715    -1.8327345328
   22      H       1.3517791215    -3.3537638683    -0.5065175828
   23      H       1.2744707409    -2.3220707339    -1.9345500013
   24      H       0.8666771585     2.9256527819     2.4972289144
   25      H       2.4742583219     2.7199566726     1.7310854078
   26      H      -2.8851625728     3.4475785858    -0.8148612920
   27      H      -1.4271659178     4.1711710812    -1.5644460685
   28      C      -2.2945725021    -1.5468725306     0.8650081490
   29      C       2.5064615123    -1.2308591062     0.6570612972
   30      O       3.4832577712    -1.2161090212    -0.3663041339
   31      H       2.6058092589    -2.1270842018     1.2866171905
   32      H       2.6042482406    -0.3523894909     1.3085109528
   33      C       4.7922090969    -0.9746118608     0.1133543123
   34      H       5.4562781191    -0.9846235048    -0.7507407996
   35      H       5.1110393603    -1.7520271810     0.8221103761
   36      H       4.8590831821     0.0053621232     0.6047020020
   37      O      -3.3625986738    -1.4972823220    -0.0693985784
   38      H      -2.3923769944    -0.7582569537     1.6135887293
   39      H      -2.2678373254    -2.5230196404     1.3712757685
   40      C      -4.6329429363    -1.4249744492     0.5500724102
   41      H      -5.3770861721    -1.3875944341    -0.2462228597
   42      H      -4.7181179975    -0.5227537450     1.1690543854
   43      H      -4.8246217286    -2.3080530470     1.1762453191
 ----------------------------------------------------------------
 Nuclear Repulsion Energy =  1984.6109468420 hartrees
 There are       81 alpha and       81 beta electrons
 Applying Cartesian multipole field
    Component          Value
    ---------          -----
     (2,0,0)        1.00000E-12
     (0,2,0)        2.00000E-11
     (0,0,2)       -3.00000E-11
 Nucleus-field energy     =     0.0000000303 hartrees
 Requested basis set is 6-311++G(d,p)
 There are 236 shells and 616 basis functions
 A cutoff of  1.0D-11 yielded  21256 shell pairs
 There are    146341 function pairs (    155629 Cartesian)
 Smallest overlap matrix eigenvalue = 2.75E-07

 Q-Chem warning in module /fs/scratch/osu6415/qchem-kaunlao-vdw/stvman/mkSTV.C, line 281:

 Overlap eigenvalue is smaller than square root of threshold

 Linear dependence detected in AO basis
 Number of orthogonalized atomic orbitals = 614
 Maximum deviation from orthogonality = 3.201E-10
 Guess MOs from SCF MO coefficient file
 Reading MOs from coefficient file
 Reading MOs from coefficient file
 A restricted hybrid HF-DFT SCF calculation will be
 performed using Pulay DIIS extrapolation
 Exchange:     0.2000 Hartree-Fock + 0.0800 Slater + 0.7200 B88
 Correlation:  0.1900 VWN1RPA + 0.8100 LYP
 Using SG-1 standard quadrature grid
 Dispersion:   Grimme D3
 SCF converges when DIIS error is below 1.0E-08
 Geometry optimization detected.  Setting ReadMinima to 0
 Setting SaveMinima to 0
 using 20 threads for integral computing
 -------------------------------------------------------
 OpenMP Integral computing Module                
 Release: version 1.0, May 2013, Q-Chem Inc. Pittsburgh 
 -------------------------------------------------------
 -------------------------------------------------------
 OpenMP BLAS3 based DFT computing Module                
 Release: version 1.0, May 2013, Q-Chem Inc. Pittsburgh 
 -------------------------------------------------------
 ---------------------------------------
  Cycle       Energy         DIIS Error
 ---------------------------------------
    1   -1073.6335900514      9.00E-05
    2   -1073.6324854202      7.61E-06
    3   -1073.6324863248      8.46E-06
    4   -1073.6324893059      2.31E-06
    5   -1073.6324894321      1.38E-06
    6   -1073.6324894878      4.36E-07
    7   -1073.6324894939      1.98E-07
    8   -1073.6324894971      4.03E-08
    9   -1073.6324894934      1.13E-08
   10   -1073.6324894754      4.89E-09 Convergence criterion met
 ---------------------------------------
 SCF time:  CPU 1334.30 s  wall 84.59 s
 SCF   energy in the final basis set = -1073.63248948
 Total energy in the final basis set = -1073.63248948
 
 --------------------------------------------------------------
 
                    Orbital Energies (a.u.)
 --------------------------------------------------------------
 
 Alpha MOs
 -- Occupied --
-19.172 -19.172 -19.133 -19.133 -19.127 -19.116 -19.114 -10.307
-10.304 -10.243 -10.238 -10.230 -10.229 -10.225 -10.216 -10.213
-10.210 -10.204 -10.202 -10.174 -10.173  -1.118  -1.111  -1.068
 -1.045  -1.038  -1.028  -1.026  -0.831  -0.804  -0.783  -0.747
 -0.739  -0.726  -0.697  -0.662  -0.652  -0.635  -0.604  -0.577
 -0.567  -0.558  -0.527  -0.516  -0.515  -0.503  -0.494  -0.487
 -0.484  -0.482  -0.480  -0.473  -0.472  -0.462  -0.456  -0.455
 -0.430  -0.425  -0.423  -0.416  -0.410  -0.402  -0.396  -0.386
 -0.372  -0.370  -0.361  -0.358  -0.354  -0.352  -0.342  -0.331
 -0.328  -0.323  -0.315  -0.314  -0.286  -0.278  -0.277  -0.269
 -0.262
 -- Virtual --
 -0.014  -0.011  -0.004  -0.003   0.004   0.008   0.011   0.014
  0.023   0.025   0.027   0.028   0.036   0.039   0.042   0.044
  0.046   0.050   0.053   0.059   0.060   0.063   0.070   0.073
  0.074   0.080   0.084   0.090   0.097   0.098   0.101   0.107
  0.108   0.109   0.113   0.113   0.115   0.120   0.121   0.123
  0.126   0.129   0.130   0.132   0.133   0.135   0.138   0.138
  0.141   0.145   0.148   0.151   0.152   0.154   0.158   0.160
  0.161   0.163   0.163   0.167   0.172   0.173   0.175   0.177
  0.180   0.183   0.187   0.188   0.193   0.196   0.200   0.202
  0.204   0.206   0.207   0.211   0.212   0.215   0.220   0.225
  0.229   0.234   0.236   0.240   0.246   0.247   0.252   0.254
  0.259   0.262   0.264   0.266   0.268   0.272   0.275   0.280
  0.281   0.287   0.291   0.294   0.298   0.301   0.307   0.310
  0.313   0.316   0.322   0.323   0.326   0.328   0.331   0.336
  0.337   0.344   0.349   0.353   0.355   0.360   0.362   0.365
  0.375   0.376   0.376   0.379   0.383   0.388   0.389   0.393
  0.397   0.402   0.413   0.413   0.420   0.424   0.430   0.435
  0.439   0.442   0.449   0.459   0.462   0.473   0.478   0.481
  0.482   0.489   0.501   0.505   0.514   0.515   0.521   0.531
  0.539   0.544   0.550   0.554   0.560   0.562   0.574   0.577
  0.583   0.594   0.597   0.602   0.606   0.612   0.620   0.623
  0.631   0.639   0.645   0.650   0.654   0.664   0.668   0.670
  0.673   0.675   0.681   0.684   0.690   0.691   0.699   0.707
  0.712   0.715   0.723   0.728   0.732   0.735   0.742   0.744
  0.747   0.751   0.752   0.758   0.762   0.769   0.780   0.785
  0.794   0.799   0.812   0.816   0.825   0.829   0.845   0.855
  0.864   0.875   0.877   0.894   0.924   0.947   0.966   0.981
  0.990   1.008   1.023   1.041   1.045   1.059   1.063   1.067
  1.080   1.088   1.096   1.102   1.117   1.131   1.143   1.149
  1.156   1.174   1.183   1.190   1.200   1.215   1.219   1.228
  1.236   1.249   1.256   1.262   1.272   1.282   1.290   1.302
  1.308   1.317   1.327   1.328   1.347   1.370   1.373   1.376
  1.384   1.397   1.401   1.421   1.425   1.440   1.447   1.451
  1.453   1.461   1.469   1.471   1.476   1.489   1.508   1.522
  1.529   1.542   1.547   1.559   1.563   1.566   1.573   1.575
  1.582   1.585   1.589   1.592   1.595   1.602   1.615   1.619
  1.627   1.629   1.635   1.649   1.652   1.665   1.668   1.679
  1.684   1.691   1.697   1.704   1.719   1.725   1.731   1.735
  1.740   1.744   1.748   1.755   1.765   1.775   1.777   1.784
  1.789   1.798   1.812   1.817   1.823   1.837   1.841   1.856
  1.862   1.869   1.883   1.887   1.902   1.911   1.932   1.937
  1.953   1.955   1.968   1.975   2.008   2.014   2.019   2.036
  2.042   2.048   2.068   2.076   2.091   2.104   2.108   2.117
  2.121   2.131   2.139   2.143   2.155   2.159   2.167   2.184
  2.196   2.203   2.217   2.226   2.245   2.264   2.266   2.289
  2.307   2.318   2.352   2.361   2.385   2.389   2.425   2.440
  2.444   2.453   2.463   2.467   2.486   2.500   2.507   2.509
  2.518   2.521   2.528   2.530   2.533   2.542   2.548   2.552
  2.570   2.581   2.585   2.591   2.599   2.607   2.615   2.619
  2.639   2.659   2.678   2.688   2.703   2.718   2.732   2.743
  2.749   2.765   2.781   2.811   2.822   2.846   2.855   2.860
  2.866   2.880   2.887   2.893   2.905   2.913   2.925   2.952
  2.973   2.974   2.990   2.995   3.009   3.015   3.029   3.036
  3.042   3.053   3.064   3.065   3.069   3.099   3.106   3.124
  3.128   3.147   3.149   3.169   3.172   3.175   3.207   3.215
  3.226   3.243   3.248   3.251   3.262   3.272   3.293   3.298
  3.322   3.358   3.382   3.393   3.399   3.415   3.433   3.549
  3.603   3.611   3.678   3.690   3.730   3.744   3.777   3.784
  3.788   3.791   3.812   3.818   3.825   3.838   3.858   3.863
  3.966   3.988   4.069   4.087   4.089   4.104   4.108   4.136
  4.140   4.144   4.152   4.173   4.182   4.195   4.244   4.294
  4.325   4.461   4.517   5.068   5.122   5.132   5.142   5.189
  5.207   5.244   5.276   5.321   5.423   5.432   5.451   5.453
  5.526   5.632   5.650   5.658   5.714   5.755   5.894   5.917
 23.781  23.846  23.854  23.875  23.895  23.908  23.930  23.935
 23.938  23.945  23.951  23.978  23.979  24.052  49.922  49.949
 49.970  49.987  50.008  50.053  50.061
 --------------------------------------------------------------
 
          Ground-State Mulliken Net Atomic Charges

     Atom                 Charge (a.u.)
  ----------------------------------------
      1 C                     0.387529
      2 C                     0.672081
      3 C                    -0.906946
      4 C                    -0.771830
      5 O                     0.049749
      6 O                    -0.140123
      7 O                     0.015046
      8 O                    -0.096630
      9 C                    -0.179819
     10 C                    -0.180326
     11 C                    -0.929886
     12 C                    -0.312669
     13 C                    -0.393037
     14 C                    -0.880626
     15 O                     0.072543
     16 H                     0.300744
     17 H                     0.295439
     18 H                     0.186242
     19 H                     0.174017
     20 H                     0.175830
     21 H                     0.173442
     22 H                     0.174753
     23 H                     0.177898
     24 H                     0.175966
     25 H                     0.169850
     26 H                     0.171501
     27 H                     0.163441
     28 C                     0.048314
     29 C                     0.179002
     30 O                    -0.014800
     31 H                     0.181044
     32 H                     0.178246
     33 C                    -0.249554
     34 H                     0.147466
     35 H                     0.135446
     36 H                     0.143865
     37 O                    -0.034875
     38 H                     0.221604
     39 H                     0.147219
     40 C                    -0.240620
     41 H                     0.139358
     42 H                     0.142917
     43 H                     0.131190
  ----------------------------------------
  Sum of atomic charges =     0.000000

 -----------------------------------------------------------------
                    Cartesian Multipole Moments
 -----------------------------------------------------------------
    Charge (ESU x 10^10)
                 0.0000
    Dipole Moment (Debye)
         X      -0.2102      Y       0.2061      Z       0.9239
       Tot       0.9696
    Quadrupole Moments (Debye-Ang)
        XX    -119.4726     XY      -3.9112     YY    -115.5903
        XZ       7.9853     YZ       2.8223     ZZ    -126.6646
    Octopole Moments (Debye-Ang^2)
       XXX       3.9930    XXY     -12.6717    XYY     -18.1956
       YYY      64.0029    XXZ      27.5379    XYZ      22.1375
       YYZ      13.7613    XZZ      -0.4541    YZZ      10.8118
       ZZZ       0.9818
    Hexadecapole Moments (Debye-Ang^3)
      XXXX   -3934.5778   XXXY     -32.7448   XXYY   -1182.9023
      XYYY     -71.6964   YYYY   -2521.2586   XXXZ      43.8317
      XXYZ     -33.5271   XYYZ      52.5812   YYYZ     -19.1804
      XXZZ    -842.5646   XYZZ       4.7946   YYZZ    -553.4545
      XZZZ      17.8166   YZZZ      15.1542   ZZZZ    -668.3922
 -----------------------------------------------------------------
 Calculating analytic gradient of the SCF energy
 Gradient of SCF Energy
            1           2           3           4           5           6
    1  -0.0002357   0.0001848   0.0006928  -0.0004109  -0.0002066  -0.0002825
    2   0.0000734  -0.0000984   0.0001756   0.0002952  -0.0001532  -0.0000711
    3  -0.0002471   0.0001398   0.0004989  -0.0001509  -0.0001077  -0.0001668
            7           8           9          10          11          12
    1   0.0001373   0.0001401   0.0000067  -0.0000337  -0.0000127   0.0000165
    2  -0.0000889  -0.0000502   0.0000216   0.0000228  -0.0001315   0.0000752
    3  -0.0000299   0.0000256   0.0000036  -0.0000087   0.0000931  -0.0000845
           13          14          15          16          17          18
    1  -0.0000064  -0.0001082  -0.0000306   0.0001249   0.0000146  -0.0000060
    2  -0.0000849   0.0000527  -0.0000345  -0.0000580   0.0000134   0.0000037
    3   0.0000538   0.0000341  -0.0000556  -0.0000280   0.0000026  -0.0000040
           19          20          21          22          23          24
    1  -0.0000208   0.0000216  -0.0000038   0.0000162   0.0000190  -0.0000227
    2  -0.0000149   0.0000065  -0.0000257  -0.0000161   0.0000221   0.0000048
    3  -0.0000182   0.0000481   0.0000139  -0.0000239   0.0000173  -0.0000141
           25          26          27          28          29          30
    1  -0.0000127  -0.0000082  -0.0000132   0.0000717  -0.0000157   0.0000115
    2   0.0000161  -0.0000081  -0.0000160  -0.0000189   0.0000258   0.0000282
    3   0.0000008  -0.0000131  -0.0000124   0.0000896  -0.0000032   0.0000017
           31          32          33          34          35          36
    1   0.0000047  -0.0000034  -0.0000074   0.0000082   0.0000075   0.0000028
    2   0.0000063   0.0000083   0.0000106   0.0000178   0.0000206   0.0000185
    3   0.0000096   0.0000069   0.0000072   0.0000123   0.0000113   0.0000164
           37          38          39          40          41          42
    1  -0.0000447  -0.0000181   0.0000195   0.0000094  -0.0000010  -0.0000079
    2   0.0000215  -0.0000162  -0.0000014  -0.0000110  -0.0000202  -0.0000143
    3  -0.0000612  -0.0000308  -0.0000050  -0.0000124  -0.0000084   0.0000049
           43
    1   0.0000034
    2  -0.0000073
    3  -0.0000055
 Max gradient component =       6.928E-04
 RMS gradient           =       1.111E-04
 Gradient time:  CPU 696.44 s  wall 52.90 s
 Geometry Optimization Parameters
   NAtoms,    NIC,     NZ,  NCons,   NDum,   NFix, NCnnct, MaxDiis
       43     325       0       0       0       0       0       0

 Cartesian Hessian Update
 Hessian Updated using BFGS Update


** GEOMETRY OPTIMIZATION IN DELOCALIZED INTERNAL COORDINATES **
   Searching for a Minimum

   Optimization Cycle:   2

                       Coordinates (Angstroms)
     ATOM                X               Y               Z
      1  C        -0.8250763206   -0.0591445317   -0.7509766280
      2  C         0.7461040695    0.0426753769   -0.8190221462
      3  C        -1.5135009667    1.2030849159   -0.2556755714
      4  C         1.3704469092    1.3078736619   -0.2643867521
      5  O        -1.2323937605    2.2102802765   -1.1177843309
      6  O        -2.2350041134    1.3400838838    0.6976607857
      7  O         0.8751190177    1.6316219587    0.9478654788
      8  O         2.2391466017    1.9377720883   -0.8157130009
      9  C         1.4018449047    2.8217252171    1.5561052153
     10  C        -1.7950865441    3.4933935422   -0.7974068683
     11  C        -1.0136610140   -1.3685909444    0.0767843716
     12  C        -0.6689235358   -2.5542069546   -0.8633960939
     13  C         0.8790122554   -2.4654969588   -0.9293428677
     14  C         1.1500659862   -1.2458308145   -0.0156153207
     15  O         0.1146734324   -1.3484111970    0.9689597532
     16  H        -1.2088141978   -0.2028419689   -1.7621901238
     17  H         1.1032385409   -0.0228166060   -1.8434397124
     18  H         1.2275764110    3.6867120272    0.9137690283
     19  H        -1.4669960174    3.8161723194    0.1920996373
     20  H        -0.9949642280   -3.4879429544   -0.4022167294
     21  H        -1.1602216837   -2.4722413715   -1.8327345328
     22  H         1.3517791215   -3.3537638683   -0.5065175828
     23  H         1.2744707409   -2.3220707339   -1.9345500013
     24  H         0.8666771585    2.9256527819    2.4972289144
     25  H         2.4742583219    2.7199566726    1.7310854078
     26  H        -2.8851625728    3.4475785858   -0.8148612920
     27  H        -1.4271659178    4.1711710812   -1.5644460685
     28  C        -2.2945725021   -1.5468725306    0.8650081490
     29  C         2.5064615123   -1.2308591062    0.6570612972
     30  O         3.4832577712   -1.2161090212   -0.3663041339
     31  H         2.6058092589   -2.1270842018    1.2866171905
     32  H         2.6042482406   -0.3523894909    1.3085109528
     33  C         4.7922090969   -0.9746118608    0.1133543123
     34  H         5.4562781191   -0.9846235048   -0.7507407996
     35  H         5.1110393603   -1.7520271810    0.8221103761
     36  H         4.8590831821    0.0053621232    0.6047020020
     37  O        -3.3625986738   -1.4972823220   -0.0693985784
     38  H        -2.3923769944   -0.7582569537    1.6135887293
     39  H        -2.2678373254   -2.5230196404    1.3712757685
     40  C        -4.6329429363   -1.4249744492    0.5500724102
     41  H        -5.3770861721   -1.3875944341   -0.2462228597
     42  H        -4.7181179975   -0.5227537450    1.1690543854
     43  H        -4.8246217286   -2.3080530470    1.1762453191
   Point Group: c1    Number of degrees of freedom:   123


   Energy is  -1073.632489475

 Hessian Updated using BFGS Update

109 Hessian modes will be used to form the next step
  Hessian Eigenvalues:
     0.002655    0.003929    0.006863    0.007106    0.007259    0.007316
     0.010650    0.010705    0.010799    0.012953    0.013634    0.013680
     0.013687    0.021483    0.022321    0.023115    0.024985    0.032449
     0.035564    0.036435    0.038643    0.039929    0.044419    0.044838
     0.049187    0.050831    0.054782    0.055574    0.055670    0.056670
     0.056852    0.061691    0.061870    0.063903    0.065290    0.066244
     0.080914    0.085642    0.094955    0.100496    0.100671    0.101372
     0.101387    0.102252    0.105129    0.105171    0.105985    0.106047
     0.109121    0.109297    0.109987    0.121431    0.125987    0.135378
     0.135903    0.151892    0.159913    0.160089    0.178630    0.219570
     0.220115    0.232881    0.233920    0.249693    0.249909    0.249929
     0.250487    0.251052    0.254918    0.262176    0.276457    0.303029
     0.307791    0.308998    0.309435    0.335585    0.336889    0.337109
     0.337495    0.337642    0.338714    0.339017    0.339655    0.346144
     0.346420    0.346510    0.346574    0.346625    0.346653    0.346771
     0.346889    0.347493    0.347828    0.348302    0.348334    0.348500
     0.350793    0.350889    0.351752    0.399505    0.400424    0.424243
     0.432006    0.432507    0.432590    0.539555    0.553170    1.015913
     1.030734

 Minimum Search - Taking Simple RFO Step
 Searching for Lamda that Minimizes Along All modes
 Value Taken    Lamda =  -0.00001032
 Step Taken.  Stepsize is  0.031320

                             Maximum     Tolerance    Cnvgd?
         Gradient           0.000174      0.000001      NO
         Displacement       0.010258      0.000001      NO
         Energy change     -0.000002      0.000000      NO


 New Cartesian Coordinates Obtained by Inverse Iteration

 Displacement from previous Coordinates is:  0.128674
 Adding empirical dispersion correction 
 ----------------------------------------------------------------
 Doing -D3(op) with
 s6 =   1.00000
 s8 =   0.78311
 a1 =   0.30000
 a2 =   4.25000
 n  =  10.00000
 -D3 energy without 3body term =     -0.0513895522 hartrees
 ----------------------------------------------------------------
             Standard Nuclear Orientation (Angstroms)
    I     Atom           X                Y                Z
 ----------------------------------------------------------------
    1      C      -0.8268545758    -0.0612096671    -0.7515815631
    2      C       0.7443355453     0.0411366015    -0.8211386468
    3      C      -1.5155622530     1.2014217794    -0.2576413804
    4      C       1.3680681802     1.3066888240    -0.2666180942
    5      O      -1.2210328668     2.2117838540    -1.1115968399
    6      O      -2.2390114137     1.3388783003     0.6941068081
    7      O       0.8657645788     1.6351951933     0.9415372814
    8      O       2.2385927682     1.9353928874    -0.8163156428
    9      C       1.3887854812     2.8277139305     1.5481215754
   10      C      -1.7760985877     3.4971191339    -0.7870781523
   11      C      -1.0144040530    -1.3701382491     0.0766457284
   12      C      -0.6691581218    -2.5558964872    -0.8632808117
   13      C       0.8789166703    -2.4674341176    -0.9282341541
   14      C       1.1493120003    -1.2462982207    -0.0164843493
   15      O       0.1142435746    -1.3485946156     0.9685605138
   16      H      -1.2112184873    -0.2051777921    -1.7625284416
   17      H       1.1013034339    -0.0250788112    -1.8455509235
   18      H       1.2175520775     3.6902564631     0.9016824959
   19      H      -1.4527870479     3.8110608585     0.2068475887
   20      H      -0.9961332435    -3.4898156166    -0.4031669995
   21      H      -1.1592168797    -2.4732539843    -1.8331919908
   22      H       1.3514095891    -3.3548514107    -0.5033493758
   23      H       1.2749470338    -2.3261111266    -1.9335183837
   24      H       0.8486942323     2.9349175785     2.4860608639
   25      H       2.4603184808     2.7270557832     1.7290480071
   26      H      -2.8663448055     3.4598799749    -0.8127004318
   27      H      -1.3973672532     4.1769032502    -1.5470485297
   28      C      -2.2949096155    -1.5491464265     0.8653912402
   29      C       2.5056879637    -1.2296898832     0.6562477680
   30      O       3.4824717068    -1.2164370699    -0.3671540689
   31      H       2.6053551400    -2.1247970134     1.2873340603
   32      H       2.6031897539    -0.3500101186     1.3061104542
   33      C       4.7913675472    -0.9735213318     0.1120155907
   34      H       5.4554227282    -0.9854344559    -0.7520533310
   35      H       5.1102979263    -1.7491934667     0.8226304662
   36      H       4.8579449330     0.0076251052     0.6010451546
   37      O      -3.3633177332    -1.4997200055    -0.0684128134
   38      H      -2.3925168793    -0.7609670000     1.6145108909
   39      H      -2.2675605225    -2.5255165852     1.3712431219
   40      C      -4.6335238971    -1.4295841296     0.5516233325
   41      H      -5.3779598987    -1.3925574084    -0.2443951155
   42      H      -4.7195718509    -0.5279403932     1.1713078498
   43      H      -4.8237565494    -2.3134080113     1.1771867376
 ----------------------------------------------------------------
 Nuclear Repulsion Energy =  1985.1442181040 hartrees
 There are       81 alpha and       81 beta electrons
 Applying Cartesian multipole field
    Component          Value
    ---------          -----
     (2,0,0)        1.00000E-12
     (0,2,0)        2.00000E-11
     (0,0,2)       -3.00000E-11
 Nucleus-field energy     =     0.0000000304 hartrees
 Requested basis set is 6-311++G(d,p)
 There are 236 shells and 616 basis functions
 A cutoff of  1.0D-11 yielded  21255 shell pairs
 There are    146355 function pairs (    155647 Cartesian)
 Smallest overlap matrix eigenvalue = 2.75E-07

 Q-Chem warning in module /fs/scratch/osu6415/qchem-kaunlao-vdw/stvman/mkSTV.C, line 281:

 Overlap eigenvalue is smaller than square root of threshold

 Linear dependence detected in AO basis
 Number of orthogonalized atomic orbitals = 614
 Maximum deviation from orthogonality = 1.340E-10
 Guess MOs from SCF MO coefficient file
 Reading MOs from coefficient file
 Reading MOs from coefficient file
 A restricted hybrid HF-DFT SCF calculation will be
 performed using Pulay DIIS extrapolation
 Exchange:     0.2000 Hartree-Fock + 0.0800 Slater + 0.7200 B88
 Correlation:  0.1900 VWN1RPA + 0.8100 LYP
 Using SG-1 standard quadrature grid
 Dispersion:   Grimme D3
 SCF converges when DIIS error is below 1.0E-08
 Geometry optimization detected.  Setting ReadMinima to 0
 Setting SaveMinima to 0
 using 20 threads for integral computing
 -------------------------------------------------------
 OpenMP Integral computing Module                
 Release: version 1.0, May 2013, Q-Chem Inc. Pittsburgh 
 -------------------------------------------------------
 -------------------------------------------------------
 OpenMP BLAS3 based DFT computing Module                
 Release: version 1.0, May 2013, Q-Chem Inc. Pittsburgh 
 -------------------------------------------------------
 ---------------------------------------
  Cycle       Energy         DIIS Error
 ---------------------------------------
    1   -1073.6321948455      9.20E-05
    2   -1073.6324856811      1.01E-05
    3   -1073.6324831741      1.52E-05
    4   -1073.6324906595      4.04E-06
    5   -1073.6324911367      1.39E-06
    6   -1073.6324911969      5.84E-07
    7   -1073.6324912091      1.35E-07
    8   -1073.6324912084      4.11E-08
    9   -1073.6324912079      1.95E-08
   10   -1073.6324912127      8.31E-09 Convergence criterion met
 ---------------------------------------
 SCF time:  CPU 1345.78 s  wall 86.59 s
 SCF   energy in the final basis set = -1073.63249121
 Total energy in the final basis set = -1073.63249121
 
 --------------------------------------------------------------
 
                    Orbital Energies (a.u.)
 --------------------------------------------------------------
 
 Alpha MOs
 -- Occupied --
-19.172 -19.172 -19.133 -19.133 -19.127 -19.116 -19.114 -10.307
-10.304 -10.243 -10.238 -10.230 -10.229 -10.225 -10.216 -10.213
-10.210 -10.204 -10.202 -10.174 -10.173  -1.118  -1.111  -1.068
 -1.045  -1.038  -1.028  -1.026  -0.831  -0.804  -0.783  -0.747
 -0.739  -0.726  -0.697  -0.662  -0.652  -0.635  -0.604  -0.577
 -0.567  -0.558  -0.527  -0.516  -0.516  -0.503  -0.494  -0.487
 -0.484  -0.482  -0.480  -0.473  -0.472  -0.462  -0.456  -0.455
 -0.430  -0.425  -0.423  -0.416  -0.410  -0.402  -0.396  -0.386
 -0.372  -0.370  -0.361  -0.358  -0.354  -0.352  -0.342  -0.331
 -0.328  -0.323  -0.315  -0.314  -0.286  -0.278  -0.277  -0.269
 -0.262
 -- Virtual --
 -0.014  -0.011  -0.004  -0.003   0.004   0.008   0.011   0.014
  0.023   0.025   0.027   0.028   0.036   0.039   0.042   0.044
  0.046   0.050   0.053   0.059   0.060   0.063   0.070   0.073
  0.074   0.080   0.084   0.090   0.097   0.098   0.102   0.107
  0.108   0.109   0.113   0.113   0.115   0.120   0.121   0.123
  0.126   0.129   0.130   0.132   0.133   0.135   0.138   0.138
  0.141   0.145   0.148   0.151   0.152   0.154   0.158   0.160
  0.161   0.163   0.163   0.167   0.172   0.173   0.175   0.177
  0.180   0.183   0.187   0.188   0.193   0.196   0.200   0.202
  0.204   0.206   0.207   0.211   0.212   0.215   0.220   0.225
  0.229   0.234   0.236   0.240   0.245   0.248   0.252   0.254
  0.259   0.262   0.264   0.266   0.268   0.272   0.275   0.280
  0.281   0.287   0.291   0.294   0.297   0.301   0.307   0.310
  0.313   0.315   0.322   0.323   0.326   0.328   0.331   0.336
  0.338   0.343   0.349   0.353   0.355   0.360   0.362   0.365
  0.375   0.376   0.376   0.379   0.383   0.388   0.389   0.393
  0.397   0.402   0.412   0.413   0.420   0.424   0.430   0.434
  0.438   0.442   0.449   0.459   0.462   0.473   0.478   0.482
  0.482   0.489   0.501   0.506   0.514   0.515   0.521   0.531
  0.539   0.545   0.549   0.554   0.560   0.562   0.574   0.577
  0.583   0.594   0.597   0.603   0.606   0.612   0.621   0.623
  0.632   0.639   0.645   0.649   0.654   0.664   0.668   0.670
  0.673   0.675   0.681   0.684   0.690   0.691   0.699   0.707
  0.713   0.715   0.723   0.728   0.733   0.735   0.742   0.744
  0.747   0.751   0.752   0.758   0.762   0.769   0.780   0.785
  0.794   0.799   0.812   0.816   0.825   0.828   0.845   0.855
  0.863   0.875   0.877   0.894   0.923   0.947   0.966   0.981
  0.990   1.008   1.022   1.042   1.045   1.059   1.063   1.067
  1.080   1.087   1.096   1.102   1.117   1.132   1.142   1.148
  1.155   1.174   1.184   1.190   1.200   1.215   1.220   1.229
  1.236   1.250   1.256   1.261   1.273   1.281   1.290   1.302
  1.308   1.316   1.328   1.329   1.347   1.370   1.374   1.377
  1.384   1.396   1.402   1.421   1.425   1.440   1.447   1.450
  1.453   1.461   1.469   1.471   1.477   1.489   1.509   1.522
  1.529   1.542   1.547   1.558   1.563   1.567   1.574   1.576
  1.582   1.585   1.589   1.592   1.596   1.602   1.615   1.619
  1.628   1.629   1.635   1.649   1.652   1.665   1.668   1.679
  1.684   1.691   1.697   1.704   1.719   1.724   1.731   1.735
  1.740   1.744   1.748   1.755   1.765   1.775   1.777   1.784
  1.789   1.798   1.813   1.817   1.823   1.837   1.841   1.856
  1.862   1.869   1.883   1.887   1.903   1.911   1.932   1.937
  1.953   1.955   1.968   1.974   2.008   2.014   2.019   2.036
  2.043   2.048   2.068   2.076   2.092   2.104   2.108   2.117
  2.121   2.131   2.139   2.143   2.155   2.160   2.167   2.185
  2.196   2.204   2.217   2.226   2.244   2.264   2.266   2.290
  2.307   2.318   2.352   2.361   2.385   2.389   2.425   2.440
  2.444   2.454   2.464   2.467   2.486   2.500   2.507   2.509
  2.518   2.521   2.528   2.531   2.533   2.542   2.548   2.552
  2.571   2.581   2.585   2.591   2.600   2.607   2.615   2.619
  2.639   2.660   2.678   2.688   2.705   2.718   2.732   2.743
  2.749   2.765   2.782   2.811   2.822   2.846   2.855   2.860
  2.866   2.881   2.887   2.893   2.905   2.913   2.925   2.953
  2.973   2.974   2.990   2.995   3.009   3.015   3.029   3.036
  3.042   3.053   3.063   3.065   3.069   3.099   3.106   3.124
  3.128   3.147   3.149   3.169   3.172   3.175   3.207   3.216
  3.227   3.243   3.249   3.252   3.262   3.272   3.294   3.298
  3.322   3.358   3.383   3.392   3.399   3.415   3.432   3.549
  3.603   3.611   3.678   3.691   3.730   3.744   3.777   3.783
  3.789   3.791   3.812   3.818   3.825   3.838   3.858   3.864
  3.966   3.987   4.068   4.087   4.090   4.104   4.109   4.136
  4.140   4.144   4.152   4.173   4.182   4.195   4.245   4.294
  4.325   4.461   4.517   5.065   5.122   5.134   5.142   5.189
  5.209   5.244   5.276   5.321   5.423   5.433   5.451   5.453
  5.526   5.633   5.650   5.658   5.714   5.755   5.894   5.917
 23.781  23.846  23.854  23.875  23.895  23.908  23.930  23.935
 23.938  23.945  23.951  23.978  23.979  24.052  49.921  49.951
 49.970  49.987  50.008  50.053  50.061
 --------------------------------------------------------------
 
          Ground-State Mulliken Net Atomic Charges

     Atom                 Charge (a.u.)
  ----------------------------------------
      1 C                     0.379261
      2 C                     0.671156
      3 C                    -0.887125
      4 C                    -0.772805
      5 O                     0.048027
      6 O                    -0.141927
      7 O                     0.012225
      8 O                    -0.097164
      9 C                    -0.181484
     10 C                    -0.181465
     11 C                    -0.928724
     12 C                    -0.315278
     13 C                    -0.391356
     14 C                    -0.885343
     15 O                     0.072771
     16 H                     0.299792
     17 H                     0.295411
     18 H                     0.186713
     19 H                     0.174493
     20 H                     0.175838
     21 H                     0.173380
     22 H                     0.174676
     23 H                     0.177961
     24 H                     0.176185
     25 H                     0.169797
     26 H                     0.171555
     27 H                     0.163907
     28 C                     0.048915
     29 C                     0.181755
     30 O                    -0.014880
     31 H                     0.181129
     32 H                     0.178598
     33 C                    -0.249618
     34 H                     0.147405
     35 H                     0.135407
     36 H                     0.144038
     37 O                    -0.034898
     38 H                     0.221188
     39 H                     0.147243
     40 C                    -0.240315
     41 H                     0.139398
     42 H                     0.143005
     43 H                     0.131156
  ----------------------------------------
  Sum of atomic charges =     0.000000

 -----------------------------------------------------------------
                    Cartesian Multipole Moments
 -----------------------------------------------------------------
    Charge (ESU x 10^10)
                 0.0000
    Dipole Moment (Debye)
         X      -0.2057      Y       0.2094      Z       0.9237
       Tot       0.9692
    Quadrupole Moments (Debye-Ang)
        XX    -119.5829     XY      -3.8590     YY    -115.5417
        XZ       7.9424     YZ       2.8304     ZZ    -126.6545
    Octopole Moments (Debye-Ang^2)
       XXX       4.2864    XXY     -12.9271    XYY     -18.0372
       YYY      64.3551    XXZ      27.5527    XYZ      21.9739
       YYZ      13.8659    XZZ      -0.4902    YZZ      10.7897
       ZZZ       1.0564
    Hexadecapole Moments (Debye-Ang^3)
      XXXX   -3929.9356   XXXY     -33.5789   XXYY   -1183.4063
      XYYY     -72.6536   YYYY   -2524.8048   XXXZ      45.8564
      XXYZ     -33.6545   XYYZ      52.6684   YYYZ     -19.3736
      XXZZ    -841.1616   XYZZ       4.1220   YYZZ    -554.0124
      XZZZ      19.9793   YZZZ      14.7908   ZZZZ    -666.0285
 -----------------------------------------------------------------
 Calculating analytic gradient of the SCF energy
 Gradient of SCF Energy
            1           2           3           4           5           6
    1   0.0000579   0.0001640  -0.0005742   0.0000651   0.0003425   0.0001936
    2  -0.0000441  -0.0000452  -0.0002387  -0.0000676  -0.0000136   0.0000913
    3   0.0001902  -0.0001768  -0.0004124   0.0000915   0.0002332   0.0001657
            7           8           9          10          11          12
    1  -0.0002271  -0.0000474  -0.0000394  -0.0000009   0.0000088  -0.0000291
    2   0.0000884   0.0000574   0.0000573   0.0000675  -0.0000626   0.0000849
    3  -0.0002261  -0.0000696   0.0000252   0.0000165   0.0000605  -0.0000461
           13          14          15          16          17          18
    1   0.0000329  -0.0000991   0.0000160   0.0001022   0.0000187  -0.0000261
    2  -0.0000818   0.0001457  -0.0000464   0.0000698  -0.0000124   0.0000174
    3   0.0000821   0.0000004  -0.0000124   0.0000477   0.0000053   0.0000014
           19          20          21          22          23          24
    1  -0.0000017  -0.0000031   0.0000227   0.0000277   0.0000108  -0.0000242
    2   0.0000138   0.0000019  -0.0000175  -0.0000017  -0.0000027   0.0000084
    3  -0.0000075   0.0000176   0.0000020  -0.0000321   0.0000078  -0.0000232
           25          26          27          28          29          30
    1  -0.0000058  -0.0000084  -0.0000087   0.0000427  -0.0000320   0.0000103
    2   0.0000049  -0.0000493  -0.0000134  -0.0000323   0.0000172   0.0000362
    3  -0.0000110  -0.0000100  -0.0000004   0.0000754   0.0000729  -0.0000172
           31          32          33          34          35          36
    1   0.0000124  -0.0000082   0.0000138  -0.0000007   0.0000042  -0.0000009
    2  -0.0000026  -0.0000062   0.0000002   0.0000170   0.0000245   0.0000194
    3   0.0000033  -0.0000119   0.0000040   0.0000118   0.0000136   0.0000184
           37          38          39          40          41          42
    1  -0.0000178   0.0000018   0.0000112  -0.0000170   0.0000096  -0.0000018
    2   0.0000390  -0.0000426  -0.0000146  -0.0000219  -0.0000218  -0.0000176
    3  -0.0000472  -0.0000109  -0.0000129  -0.0000071  -0.0000110   0.0000033
           43
    1   0.0000048
    2  -0.0000057
    3  -0.0000043
 Max gradient component =       5.742E-04
 RMS gradient           =       9.534E-05
 Gradient time:  CPU 693.70 s  wall 52.94 s
 Geometry Optimization Parameters
   NAtoms,    NIC,     NZ,  NCons,   NDum,   NFix, NCnnct, MaxDiis
       43     325       0       0       0       0       0       0

 Cartesian Hessian Update
 Hessian Updated using BFGS Update


** GEOMETRY OPTIMIZATION IN DELOCALIZED INTERNAL COORDINATES **
   Searching for a Minimum

   Optimization Cycle:   3

                       Coordinates (Angstroms)
     ATOM                X               Y               Z
      1  C        -0.8268545758   -0.0612096671   -0.7515815631
      2  C         0.7443355453    0.0411366015   -0.8211386468
      3  C        -1.5155622530    1.2014217794   -0.2576413804
      4  C         1.3680681802    1.3066888240   -0.2666180942
      5  O        -1.2210328668    2.2117838540   -1.1115968399
      6  O        -2.2390114137    1.3388783003    0.6941068081
      7  O         0.8657645788    1.6351951933    0.9415372814
      8  O         2.2385927682    1.9353928874   -0.8163156428
      9  C         1.3887854812    2.8277139305    1.5481215754
     10  C        -1.7760985877    3.4971191339   -0.7870781523
     11  C        -1.0144040530   -1.3701382491    0.0766457284
     12  C        -0.6691581218   -2.5558964872   -0.8632808117
     13  C         0.8789166703   -2.4674341176   -0.9282341541
     14  C         1.1493120003   -1.2462982207   -0.0164843493
     15  O         0.1142435746   -1.3485946156    0.9685605138
     16  H        -1.2112184873   -0.2051777921   -1.7625284416
     17  H         1.1013034339   -0.0250788112   -1.8455509235
     18  H         1.2175520775    3.6902564631    0.9016824959
     19  H        -1.4527870479    3.8110608585    0.2068475887
     20  H        -0.9961332435   -3.4898156166   -0.4031669995
     21  H        -1.1592168797   -2.4732539843   -1.8331919908
     22  H         1.3514095891   -3.3548514107   -0.5033493758
     23  H         1.2749470338   -2.3261111266   -1.9335183837
     24  H         0.8486942323    2.9349175785    2.4860608639
     25  H         2.4603184808    2.7270557832    1.7290480071
     26  H        -2.8663448055    3.4598799749   -0.8127004318
     27  H        -1.3973672532    4.1769032502   -1.5470485297
     28  C        -2.2949096155   -1.5491464265    0.8653912402
     29  C         2.5056879637   -1.2296898832    0.6562477680
     30  O         3.4824717068   -1.2164370699   -0.3671540689
     31  H         2.6053551400   -2.1247970134    1.2873340603
     32  H         2.6031897539   -0.3500101186    1.3061104542
     33  C         4.7913675472   -0.9735213318    0.1120155907
     34  H         5.4554227282   -0.9854344559   -0.7520533310
     35  H         5.1102979263   -1.7491934667    0.8226304662
     36  H         4.8579449330    0.0076251052    0.6010451546
     37  O        -3.3633177332   -1.4997200055   -0.0684128134
     38  H        -2.3925168793   -0.7609670000    1.6145108909
     39  H        -2.2675605225   -2.5255165852    1.3712431219
     40  C        -4.6335238971   -1.4295841296    0.5516233325
     41  H        -5.3779598987   -1.3925574084   -0.2443951155
     42  H        -4.7195718509   -0.5279403932    1.1713078498
     43  H        -4.8237565494   -2.3134080113    1.1771867376
   Point Group: c1    Number of degrees of freedom:   123


   Energy is  -1073.632491213

 Hessian Updated using BFGS Update

111 Hessian modes will be used to form the next step
  Hessian Eigenvalues:
     0.003068    0.005205    0.006838    0.007247    0.007305    0.007966
     0.010582    0.010705    0.010795    0.012945    0.013626    0.013673
     0.013698    0.021447    0.022264    0.023082    0.025220    0.033250
     0.035722    0.038065    0.039016    0.043710    0.044433    0.047042
     0.050343    0.054699    0.055255    0.055634    0.056535    0.056634
     0.058448    0.061694    0.061887    0.064856    0.065333    0.066655
     0.080941    0.085743    0.095402    0.100496    0.100668    0.101372
     0.101387    0.105122    0.105167    0.105192    0.105986    0.106072
     0.109120    0.109748    0.109988    0.122487    0.125928    0.135180
     0.135873    0.159734    0.159892    0.160014    0.170837    0.177893
     0.219589    0.220104    0.232204    0.236073    0.249620    0.249915
     0.249977    0.250037    0.250813    0.253958    0.255603    0.262131
     0.276443    0.303093    0.308219    0.309007    0.309397    0.334935
     0.336890    0.337108    0.337490    0.337641    0.338713    0.339043
     0.339649    0.346075    0.346420    0.346510    0.346575    0.346617
     0.346655    0.346771    0.347189    0.347491    0.347897    0.348307
     0.348333    0.348500    0.350791    0.350889    0.351752    0.399460
     0.400417    0.423654    0.431988    0.432507    0.432583    0.538971
     0.552129    1.015555    1.030658

 Minimum Search - Taking Simple RFO Step
 Searching for Lamda that Minimizes Along All modes
 Value Taken    Lamda =  -0.00002033
 Step Taken.  Stepsize is  0.036399

                             Maximum     Tolerance    Cnvgd?
         Gradient           0.000868      0.000001      NO
         Displacement       0.012037      0.000001      NO
         Energy change     -0.000002      0.000000      NO


 New Cartesian Coordinates Obtained by Inverse Iteration

 Displacement from previous Coordinates is:  0.161691
 Adding empirical dispersion correction 
 ----------------------------------------------------------------
 Doing -D3(op) with
 s6 =   1.00000
 s8 =   0.78311
 a1 =   0.30000
 a2 =   4.25000
 n  =  10.00000
 -D3 energy without 3body term =     -0.0513223488 hartrees
 ----------------------------------------------------------------
             Standard Nuclear Orientation (Angstroms)
    I     Atom           X                Y                Z
 ----------------------------------------------------------------
    1      C      -0.8252568489    -0.0594000805    -0.7529031265
    2      C       0.7460598828     0.0446869540    -0.8189798212
    3      C      -1.5175509126     1.2033975464    -0.2642917927
    4      C       1.3689877421     1.3079160480    -0.2582702222
    5      O      -1.2302911510     2.2098242320    -1.1254157007
    6      O      -2.2388088805     1.3434056051     0.6887437962
    7      O       0.8708647793     1.6269226261     0.9542170778
    8      O       2.2370570350     1.9414686970    -0.8062660044
    9      C       1.3949580509     2.8155134614     1.5675192347
   10      C      -1.7905837255     3.4944896952    -0.8073948487
   11      C      -1.0129405045    -1.3669548705     0.0776139558
   12      C      -0.6694195662    -2.5539906511    -0.8612665721
   13      C       0.8783479352    -2.4644266106    -0.9301790303
   14      C       1.1508010161    -1.2445780181    -0.0172798183
   15      O       0.1164894878    -1.3459964608     0.9686273565
   16      H      -1.2078272985    -0.2066531075    -1.7641150099
   17      H       1.1047804743    -0.0178834621    -1.8430107865
   18      H       1.2202157306     3.6825776524     0.9281090039
   19      H      -1.4659912828     3.8161682788     0.1836337559
   20      H      -0.9946519483    -3.4875220548    -0.3991418047
   21      H      -1.1618897714    -2.4728675384    -1.8300890497
   22      H       1.3521730164    -3.3521228458    -0.5073593759
   23      H       1.2718995393    -2.3218180313    -1.9362572177
   24      H       0.8585169874     2.9152177180     2.5083864919
   25      H       2.4673033434     2.7147294204     1.7434673111
   26      H      -2.8807121403     3.4520021731    -0.8297271229
   27      H      -1.4172097232     4.1712999616    -1.5726644992
   28      C      -2.2930271666    -1.5440692484     0.8674567630
   29      C       2.5078549398    -1.2300730056     0.6541712043
   30      O       3.4837248989    -1.2172626452    -0.3700829516
   31      H       2.6070617712    -2.1257148553     1.2845582554
   32      H       2.6069731241    -0.3509749063     1.3046007183
   33      C       4.7931982538    -0.9753960416     0.1080111012
   34      H       5.4565301339    -0.9876469349    -0.7566118943
   35      H       5.1121633037    -1.7514187356     0.8182325355
   36      H       4.8609040697     0.0056336719     0.5971119292
   37      O      -3.3619282739    -1.4975478686    -0.0658676134
   38      H      -2.3903371041    -0.7539149434     1.6145696490
   39      H      -2.2653097186    -2.5190968000     1.3758654040
   40      C      -4.6317506094    -1.4256953378     0.5547121780
   41      H      -5.3766895962    -1.3911950897    -0.2409502366
   42      H      -4.7175299482    -0.5221481119     1.1716451316
   43      H      -4.8214845350    -2.3076393656     1.1830891362
 ----------------------------------------------------------------
 Nuclear Repulsion Energy =  1984.6284846112 hartrees
 There are       81 alpha and       81 beta electrons
 Applying Cartesian multipole field
    Component          Value
    ---------          -----
     (2,0,0)        1.00000E-12
     (0,2,0)        2.00000E-11
     (0,0,2)       -3.00000E-11
 Nucleus-field energy     =     0.0000000302 hartrees
 Requested basis set is 6-311++G(d,p)
 There are 236 shells and 616 basis functions
 A cutoff of  1.0D-11 yielded  21258 shell pairs
 There are    146351 function pairs (    155642 Cartesian)
 Smallest overlap matrix eigenvalue = 2.75E-07

 Q-Chem warning in module /fs/scratch/osu6415/qchem-kaunlao-vdw/stvman/mkSTV.C, line 281:

 Overlap eigenvalue is smaller than square root of threshold

 Linear dependence detected in AO basis
 Number of orthogonalized atomic orbitals = 614
 Maximum deviation from orthogonality = 1.766E-10
 Guess MOs from SCF MO coefficient file
 Reading MOs from coefficient file
 Reading MOs from coefficient file
 A restricted hybrid HF-DFT SCF calculation will be
 performed using Pulay DIIS extrapolation
 Exchange:     0.2000 Hartree-Fock + 0.0800 Slater + 0.7200 B88
 Correlation:  0.1900 VWN1RPA + 0.8100 LYP
 Using SG-1 standard quadrature grid
 Dispersion:   Grimme D3
 SCF converges when DIIS error is below 1.0E-08
 Geometry optimization detected.  Setting ReadMinima to 0
 Setting SaveMinima to 0
 using 20 threads for integral computing
 -------------------------------------------------------
 OpenMP Integral computing Module                
 Release: version 1.0, May 2013, Q-Chem Inc. Pittsburgh 
 -------------------------------------------------------
 -------------------------------------------------------
 OpenMP BLAS3 based DFT computing Module                
 Release: version 1.0, May 2013, Q-Chem Inc. Pittsburgh 
 -------------------------------------------------------
 ---------------------------------------
  Cycle       Energy         DIIS Error
 ---------------------------------------
    1   -1073.6277987952      1.22E-04
    2   -1073.6324686252      2.08E-05
    3   -1073.6324499562      3.15E-05
    4   -1073.6324884791      8.52E-06
    5   -1073.6324907821      1.89E-06
    6   -1073.6324908995      5.63E-07
[...]
     0.05650297      0.02313675      0.15651596
    -0.01943458      0.00544544      0.05730417
    -0.00027749      0.00132103     -0.00108060
    -0.00083467     -0.00057492     -0.00246510
    -0.10666325     -0.30818735      0.14751392
     0.27932329     -0.04715505      0.55843726
    -0.13002088      0.24461880     -0.10879776
     0.20817645      0.07896724     -0.54799472
     0.00031102     -0.00013973     -0.00050206
    -0.00332889      0.00028386     -0.00052076
    -0.00568947     -0.00024765     -0.00010451
     0.00039521      0.00056391     -0.00057983
    -0.00029444      0.00198053      0.00030318
    -0.00003829     -0.00081691      0.00024547
    -0.00007699     -0.00000265     -0.00004451
    -0.00188315      0.00676810     -0.00556239
     0.00102494      0.00402479      0.00233207
     0.00005604      0.00006620      0.00007805
     0.00011769      0.00004007     -0.00007818
    -0.00043472      0.00055948     -0.00057422
    -0.00015848     -0.00144601     -0.00075359
    -0.00006689     -0.00000938      0.00006877
     0.00245509     -0.01296988     -0.01111628
    -0.00077583     -0.01265173      0.00748216
     0.00049688     -0.00000817      0.00051074
    -0.00524035      0.00015472     -0.00589120
    -0.00003271     -0.00013025      0.00013839
    -0.00022843      0.00002955      0.00023452
vibration 116
    -0.00010631     -0.00001973     -0.00024447
    -0.00001330     -0.00001124      0.00003736
     0.00006071      0.00006220     -0.00013812
     0.00002531      0.00003205     -0.00000849
    -0.00000698     -0.00005124      0.00004373
    -0.00005105     -0.00004884      0.00007764
    -0.00000687     -0.00000729     -0.00000036
    -0.00001744     -0.00001654      0.00000721
     0.00022249     -0.00013573      0.00016889
     0.00053830      0.00017535      0.00050056
     0.00009651      0.00002346      0.00001598
    -0.00020211     -0.00005437     -0.00021839
     0.00001318     -0.00044909      0.00070865
     0.00002279     -0.00000469     -0.00001538
    -0.00002734     -0.00000013      0.00002217
     0.00095663      0.00047080      0.00289313
     0.00007591     -0.00002445     -0.00037079
    -0.00028882      0.00149957     -0.00116782
    -0.00179924     -0.00176653     -0.00582756
     0.00025360      0.00073209     -0.00049548
     0.00149498     -0.00034728      0.00315579
    -0.00255527      0.00470690     -0.00218428
     0.00227446      0.00085347     -0.00604770
     0.00031169     -0.00006758     -0.00041917
    -0.00261902      0.00025764     -0.00038616
    -0.00487170     -0.00033315     -0.00008259
     0.00019860      0.00015618     -0.00006683
     0.00099635     -0.00179168     -0.00066902
     0.00001473     -0.00000248      0.00000184
    -0.00001818     -0.00000064      0.00000154
    -0.00002348      0.00005040     -0.00004891
    -0.00000074     -0.00000277     -0.00001521
    -0.00012127      0.00001808      0.00027183
     0.00181405     -0.00005011     -0.00244155
    -0.00024137      0.00057339     -0.00046472
    -0.00005483     -0.00071421     -0.00029816
    -0.00045812     -0.00001690     -0.00002910
    -0.00051254      0.01708485      0.01564331
     0.00121244      0.00409551     -0.00230513
    -0.05067429     -0.00342016     -0.07468342
     0.64765680     -0.02419047      0.70871010
    -0.01944727      0.18999842      0.10632684
    -0.02959214     -0.12431912      0.06828544
vibration 117
    -0.00014116     -0.00009103     -0.00028164
    -0.00009282      0.00013553     -0.00027514
     0.00004444      0.00018930     -0.00003211
     0.00010551     -0.00015898      0.00006262
     0.00007321     -0.00008670      0.00007426
     0.00001521     -0.00003818      0.00002912
     0.00025967     -0.00019532      0.00014490
     0.00010087     -0.00004704      0.00007831
    -0.06467700      0.05008116     -0.04224424
    -0.01775251     -0.00415720     -0.01290351
    -0.00003357      0.00001307     -0.00003984
     0.00002098     -0.00015854      0.00022001
    -0.00007098     -0.00039569      0.00075766
     0.00000085      0.00002794      0.00004101
     0.00003650     -0.00000107      0.00001915
     0.00116520      0.00039517      0.00305559
    -0.00070795      0.00015739      0.00214665
     0.09949480     -0.53222895      0.41077387
     0.04775177      0.04482677      0.14967797
     0.00066417      0.00169606     -0.00086873
    -0.00081652      0.00017821     -0.00156537
    -0.00198702      0.00374305     -0.00165744
     0.00285557      0.00107554     -0.00740823
    -0.01199068      0.01020514     -0.01063338
     0.67693843     -0.06949712      0.09922351
     0.16770796      0.00924611      0.00123968
    -0.00560269     -0.00472676      0.00179126
    -0.00000816      0.00005738     -0.00002285
     0.00003111     -0.00008830     -0.00000410
    -0.00001876      0.00001241      0.00002760
    -0.00000743      0.00079930     -0.00035870
     0.00024117     -0.00063138     -0.00019026
    -0.00120696     -0.00004352      0.00210566
     0.01592021     -0.00038847     -0.02120464
    -0.00146375      0.00370534     -0.00278755
    -0.00014697     -0.00291068     -0.00095782
     0.00000749     -0.00000757      0.00000563
     0.00001444      0.00006022     -0.00008891
     0.00001472     -0.00070795      0.00032442
    -0.00025152      0.00006371     -0.00036325
     0.00323850     -0.00008079      0.00352308
    -0.00004788      0.00044684      0.00013102
    -0.00021491     -0.00105329      0.00063671
vibration 118
    -0.00000960     -0.00001900     -0.00002863
     0.00000373      0.00001138      0.00001010
    -0.00000563      0.00003660     -0.00000375
     0.00003883      0.00004273     -0.00005863
     0.00000894     -0.00001780      0.00001065
     0.00000787     -0.00000802      0.00000032
     0.00000210     -0.00001441      0.00002979
    -0.00002645     -0.00002833      0.00003212
    -0.00152017      0.00119397     -0.00099908
    -0.00150221     -0.00037321     -0.00100990
    -0.00001617     -0.00000474     -0.00001572
     0.00002081     -0.00028737      0.00038110
     0.00006439     -0.00035705      0.00049522
    -0.00011079      0.00002521      0.00003124
     0.00003451      0.00000245      0.00001458
     0.00016369      0.00005015      0.00036791
     0.00015521      0.00001379     -0.00023617
     0.00245456     -0.01268782      0.00979707
     0.00383195      0.00363658      0.01216190
     0.00123215      0.00337582     -0.00168760
    -0.00134117      0.00021952     -0.00270188
    -0.00191367      0.00351582     -0.00172634
     0.00170238      0.00054507     -0.00420208
    -0.00025832      0.00023853     -0.00028792
     0.01575105     -0.00148392      0.00228396
     0.01411012      0.00077933      0.00015020
    -0.00020117      0.00007108     -0.00039034
    -0.00000594     -0.00002837     -0.00000762
    -0.00078252     -0.00056547      0.00041434
     0.00048238      0.00004467     -0.00005202
    -0.00139547      0.00211972     -0.00143985
    -0.00127191      0.00371293      0.00297097
     0.04408735     -0.00512832     -0.07800476
    -0.57971687      0.01494684      0.77483100
     0.04773479     -0.11785840      0.08569196
     0.01136718      0.16370880      0.06189380
     0.00001353      0.00000035      0.00000161
    -0.00002421      0.00022240      0.00019107
     0.00002187      0.00012710     -0.00007346
    -0.00018967     -0.00001112     -0.00023400
     0.00227141     -0.00008432      0.00247163
    -0.00004820      0.00048116      0.00024219
    -0.00005677     -0.00024779      0.00009697
vibration 119
    -0.00026805     -0.00007266     -0.00034884
    -0.00001783      0.00001604      0.00015950
     0.00018281      0.00006260      0.00002657
    -0.00000860     -0.00008988     -0.00011159
     0.00028800      0.00003103      0.00018915
     0.00009370      0.00004113      0.00010658
    -0.00007406      0.00010190      0.00001542
    -0.00002922      0.00005219      0.00000025
     0.01579461     -0.01242572      0.00975472
    -0.07352813     -0.01966361     -0.05194376
    -0.00000562     -0.00001081     -0.00000968
    -0.00005437      0.00001553     -0.00012091
    -0.00004118     -0.00022502      0.00043466
    -0.00000740     -0.00003771      0.00001770
     0.00001383      0.00000741     -0.00000192
     0.00124741      0.00025132      0.00268284
     0.00044947     -0.00000618     -0.00142659
    -0.02415935      0.13151755     -0.10128495
     0.19803768      0.18863393      0.62824533
    -0.00001070     -0.00009777      0.00003026
     0.00067108     -0.00010138      0.00141762
    -0.00113854      0.00220745     -0.00097080
     0.00161713      0.00059435     -0.00423412
    -0.00131907     -0.00174346      0.00988857
    -0.16157745      0.01706298     -0.02391846
     0.68112628      0.03851904      0.00731638
    -0.00950893      0.00538928     -0.02083081
    -0.00001000     -0.00000918     -0.00003924
     0.00000386     -0.00007638     -0.00003029
    -0.00000666      0.00000377     -0.00000270
    -0.00005914      0.00029305     -0.00023771
     0.00011451      0.00081800      0.00056479
    -0.00059533      0.00006055      0.00107760
     0.00792935     -0.00021806     -0.01059812
    -0.00071440      0.00176093     -0.00130341
    -0.00015897     -0.00224296     -0.00082202
     0.00000993     -0.00000590      0.00000727
    -0.00004996      0.00025571      0.00026689
     0.00005463     -0.00015602      0.00009346
    -0.00035685      0.00004284     -0.00051354
     0.00455706     -0.00010424      0.00495162
    -0.00010546      0.00085644      0.00035277
    -0.00024024     -0.00122540      0.00071490
vibration 120
    -0.00114074     -0.00052331     -0.00375749
    -0.00768211      0.00163518      0.02278919
     0.00029681     -0.00023520     -0.00019334
    -0.00045887     -0.00040846      0.00042148
    -0.00000806      0.00004729      0.00000367
    -0.00012302      0.00003430      0.00012155
     0.00005031      0.00000713     -0.00002374
     0.00015728      0.00011192     -0.00013146
    -0.00056594      0.00031522     -0.00042457
    -0.00028280     -0.00015701     -0.00026516
    -0.00063060      0.00104330     -0.00078579
    -0.01190386      0.02862883     -0.05294452
     0.00485821      0.03109551     -0.05750927
     0.00043763      0.00117839     -0.00078226
     0.00010035     -0.00012277      0.00048000
     0.01577500      0.00535921      0.04527600
     0.09047474     -0.02070869     -0.26637820
     0.00069600     -0.00355843      0.00292393
     0.00110681      0.00111413      0.00348978
    -0.10862291     -0.30724086      0.14873942
     0.24568418     -0.04109455      0.48260709
     0.16080710     -0.29828549      0.13502997
    -0.21338848     -0.07902544      0.54844725
    -0.00066657      0.00032921      0.00100054
     0.00654699     -0.00054853      0.00102264
     0.00223712      0.00018517     -0.00002053
     0.00010066      0.00034902     -0.00043479
    -0.00009947      0.00111776     -0.00028745
    -0.00008264      0.00093708     -0.00032836
     0.00002751     -0.00000759      0.00003148
     0.00266306     -0.00889805      0.00720266
    -0.00097396     -0.00361505     -0.00202417
     0.00030471     -0.00000649     -0.00054132
    -0.00422111      0.00007803      0.00550053
     0.00057141     -0.00103600      0.00084006
     0.00011389      0.00122248      0.00049966
    -0.00003417     -0.00002011      0.00005218
     0.00107103     -0.00374391     -0.00285798
    -0.00098078     -0.01124024      0.00673626
    -0.00016604      0.00005160     -0.00035807
     0.00283591     -0.00010460      0.00295253
    -0.00020019      0.00113777      0.00067507
    -0.00053863     -0.00151068      0.00105176
vibration 121
    -0.00406864     -0.00134120     -0.00889959
     0.02587218     -0.00567951     -0.07595956
    -0.00028215      0.00025020     -0.00014564
     0.00147091      0.00103163     -0.00133835
     0.00000639     -0.00007291      0.00005894
    -0.00003425     -0.00002048      0.00005103
    -0.00011809      0.00015327      0.00032635
    -0.00053309     -0.00030332      0.00049551
    -0.00035314      0.00012427      0.00077459
    -0.00024176     -0.00019700      0.00006484
    -0.00069140     -0.00014370     -0.00019187
    -0.00253233      0.00520953     -0.01022251
     0.00308702      0.00944179     -0.02111859
     0.00070720      0.00001866     -0.00068042
    -0.00021737     -0.00016614      0.00065951
     0.04387758      0.01802864      0.11296598
    -0.30491720      0.06327057      0.89466025
    -0.00028087      0.00009584     -0.00054973
     0.00030538      0.00055496      0.00142399
    -0.02014571     -0.05562529      0.02735317
     0.04895356     -0.00812398      0.09560511
     0.04534775     -0.08489052      0.03935914
    -0.08181683     -0.03063555      0.21426628
     0.00446168     -0.00091001     -0.00785666
    -0.00009611     -0.00034492     -0.00011637
     0.00163946      0.00012236      0.00006401
     0.00089839      0.00141111     -0.00181585
     0.00000654      0.00000682     -0.00020702
     0.00015213      0.00007439     -0.00039550
     0.00005552     -0.00004941      0.00010115
    -0.00000211     -0.00158892      0.00156509
     0.00031175      0.00163285      0.00167910
    -0.00005252     -0.00001193     -0.00024362
    -0.00107055      0.00005081      0.00126396
     0.00099209     -0.00165514      0.00159566
     0.00023675      0.00158323      0.00068600
     0.00001465     -0.00000578      0.00001360
    -0.00018748      0.00135423      0.00144244
    -0.00009578     -0.00155295      0.00093994
    -0.00008769      0.00000340     -0.00012422
     0.00120928     -0.00004035      0.00123795
    -0.00008680      0.00031468      0.00016328
    -0.00011439     -0.00030438      0.00017467
vibration 122
    -0.00005829     -0.00002590      0.00003376
     0.00004581     -0.00000190     -0.00013636
     0.00076168     -0.00074521     -0.00069532
     0.00007600      0.00001811     -0.00010912
    -0.00020528     -0.00013643      0.00023615
    -0.00033920      0.00021017      0.00037892
    -0.00002977      0.00000500      0.00001363
    -0.00003042     -0.00003968      0.00003924
    -0.00217397     -0.00080977      0.00372106
     0.04190248      0.04033679     -0.07429646
     0.00002062     -0.00002135     -0.00000765
    -0.00000835      0.00000780     -0.00001620
     0.00002147      0.00000321     -0.00004579
     0.00000374     -0.00000447     -0.00000582
    -0.00001251      0.00000451      0.00000609
     0.00008023      0.00034186      0.00061271
    -0.00062614      0.00016301      0.00163941
    -0.00371461      0.01513002     -0.01132079
     0.10586484      0.09255108      0.27002030
    -0.00003612     -0.00009048      0.00004436
     0.00008501     -0.00002790      0.00015448
    -0.00003324      0.00004958     -0.00002715
    -0.00024020     -0.00009343      0.00062709
     0.02069118     -0.00364019     -0.03506531
     0.00875586     -0.00132241      0.00222535
    -0.28704102     -0.01180911     -0.02505438
    -0.31721552     -0.55346969      0.63729578
     0.00001327     -0.00010469     -0.00003215
     0.00000771      0.00000231     -0.00000243
    -0.00000766     -0.00000236      0.00000340
    -0.00001560      0.00000061      0.00000572
    -0.00000378     -0.00000860      0.00000160
     0.00002647      0.00000366     -0.00002661
    -0.00027928      0.00001207      0.00036130
     0.00000192     -0.00002579      0.00001118
    -0.00000054     -0.00002856     -0.00003002
     0.00000032      0.00001114      0.00000215
    -0.00013931      0.00052646      0.00070686
    -0.00001700      0.00065905     -0.00024841
    -0.00004024     -0.00007212     -0.00005049
     0.00041637     -0.00003291      0.00046279
    -0.00007006      0.00049055      0.00037936
     0.00005274      0.00035389     -0.00023432
vibration 123
    -0.00003598     -0.00001633     -0.00004728
     0.00017940     -0.00010233     -0.00062118
     0.00012886     -0.00004843     -0.00017213
     0.00079352      0.00099816      0.00005967
    -0.00003848     -0.00001134      0.00004014
    -0.00005794      0.00003567      0.00009414
    -0.00024762     -0.00007798      0.00020470
    -0.00037157     -0.00036183      0.00010569
     0.05618052      0.00948209     -0.07505991
     0.00230537      0.00197519     -0.00309361
    -0.00000603      0.00000509     -0.00000566
    -0.00000313      0.00004991     -0.00006263
     0.00001940      0.00006578     -0.00013469
     0.00000927      0.00000962     -0.00004281
    -0.00001665     -0.00000842      0.00002527
     0.00021729      0.00013153      0.00069594
    -0.00269140      0.00062502      0.00800198
     0.06279510     -0.23203327      0.16763623
     0.00345748      0.00301451      0.00767388
    -0.00021170     -0.00058201      0.00029046
     0.00024599     -0.00003012      0.00048530
     0.00032519     -0.00068428      0.00028697
    -0.00055326     -0.00018074      0.00147552
    -0.45431532      0.07656751      0.78066320
    -0.27600288      0.03838977     -0.06059383
    -0.01636170     -0.00075511     -0.00117688
    -0.01451567     -0.02567492      0.02987847
     0.00001202     -0.00004304     -0.00003705
    -0.00000589      0.00002397     -0.00006346
    -0.00000425     -0.00000892      0.00001222
     0.00008424     -0.00074303      0.00040052
     0.00006782      0.00066922      0.00018520
    -0.00000980      0.00009623     -0.00000618
    -0.00003469      0.00002478      0.00002800
     0.00018259     -0.00053968      0.00043207
    -0.00007834     -0.00054605     -0.00035206
    -0.00000328      0.00000279      0.00000429
    -0.00010710      0.00037819      0.00037358
    -0.00002953      0.00003368     -0.00000026
    -0.00000557     -0.00001929     -0.00003055
     0.00012533     -0.00000591      0.00014753
    -0.00003401      0.00023470      0.00015050
    -0.00001524     -0.00002531      0.00001236
[INT]
    0.260717
    0.386934
    0.514305
    2.251923
    3.130848
    1.027089
    2.646468
    1.427741
    4.453965
    1.280731
    1.441234
    0.870443
    3.900823
    0.021161
    1.662403
    3.354470
    0.331181
    1.155512
    8.090561
    1.325902
    1.362645
    3.223771
    0.815645
    9.517857
    4.207387
    6.129544
    4.138278
   10.311930
    8.043276
    6.133649
    7.043283
   17.437220
    8.196022
    0.134520
    0.148534
    5.164711
    7.309129
    5.215066
    2.126717
    6.590539
   13.200227
    3.316468
    3.810068
    6.055123
   17.002663
    2.032590
   74.138608
    9.060525
    7.562093
   12.088807
    5.072032
   14.880744
   36.064721
   58.412935
   47.592332
    2.277010
  290.377073
    7.108605
  100.844984
    1.446830
    1.937315
    0.184469
   26.651334
  238.999635
    4.135667
   28.776906
   26.340413
   23.760896
   32.593228
   39.444142
   54.296896
   31.610281
  101.907173
   18.837807
  104.292011
   30.325295
   16.708764
   20.485636
    9.104663
    5.365797
   39.105885
   19.523215
    1.979137
   11.211477
   14.663882
    0.355731
    0.644065
    1.745720
   14.665523
    7.035170
    8.602234
    0.630663
   13.440450
    8.550243
    9.140956
    2.579726
   12.376666
   10.985533
    6.087233
  237.912586
  277.303250
   80.797925
   32.808738
   68.840306
   84.606543
   82.773036
   10.124329
   44.671600
   19.606119
   46.862974
   22.654025
   32.960792
    2.638441
   11.035881
    1.685117
   28.656021
   30.311479
   23.786085
   14.203072
   23.645282
    8.031985
   10.747339
   10.368949

======= END OF MOLDEN-FORMATTED INPUT FILE =======


        *************************************************************
        *                                                           *
        *  Thank you very much for using Q-Chem.  Have a nice day.  *
        *                                                           *
        *************************************************************


