r0215.ten.osc.edu 10.25.156
Q-Chem Developer Version! Running on 10.25.156.*
                  Welcome to Q-Chem
     A Quantum Leap Into The Future Of Chemistry


 Q-Chem 5.0, Q-Chem, Inc., Pleasanton, CA (2017)

 Yihan Shao,  Zhengting Gan,  E. Epifanovsky,  A. T. B. Gilbert,  M. Wormit,  
 J. Kussmann,  A. W. Lange,  A. Behn,  Jia Deng,  Xintian Feng,  D. Ghosh,  
 M. Goldey,  P. R. Horn,  L. D. Jacobson,  I. Kaliman,  T. Kus,  A. Landau,  
 Jie Liu,  E. I. Proynov,  R. M. Richard,  R. P. Steele,  E. J. Sundstrom,  
 H. L. Woodcock III,  P. M. Zimmerman,  D. Zuev,  B. Albrecht,  E. Alguire,  
 S. A. Baeppler,  Z. Benda,  Y. A. Bernard,  E. J. Berquist,  K. B. Bravaya,  
 D. Casanova,  Chun-Min Chang,  Yunqing Chen,  A. Chien,  K. D. Closser,  
 M. P. Coons,  S. Dasgupta,  M. Diedenhofen,  Hainam Do,  R. G. Edgar,  
 Po-Tung Fang,  S. Fatehi,  Qingguo Feng,  Qinghui Ge,  A. Ghysels,  
 J. Gomes,  J. Gonthier,  A. Gunina,  M. W. D. Hanson-Heine,  
 P. H. P. Harbach,  A. W. Hauser,  J. E. Herr,  E. G. Hohenstein,  
 Z. C. Holden,  Kerwin Hui,  T.-C. Jagau,  Hyunjun Ji,  B. Kaduk,  
 K. Khistyaev,  Jaehoon Kim,  P. Klunzinger,  K. Koh,  D. Kosenkov,  
 T. Kowalczyk,  C. M. Krauter,  A. Kunitsa,  Ka Un Lao,  A. Laurent,  
 K. V. Lawler,  Joonho Lee,  D. Lefrancois,  S. Lehtola,  D. S. Levine,  
 Yi-Pei Li,  You-Sheng Lin,  Fenglai Liu,  E. Livshits,  A. Luenser,  
 P. Manohar,  E. Mansoor,  S. F. Manzer,  Shan-Ping Mao,  Yuezhi Mao,  
 N. Mardirossian,  A. V. Marenich,  L. A. Martinez-Martinez,  S. A. Maurer,  
 N. J. Mayhall,  S. C. McKenzie,  J.-M. Mewes,  A. F. Morrison,  K. Nanda,  
 T. S. Nguyen-Beck,  R. Olivares-Amaya,  J. A. Parkhill,  T. M. Perrine,  
 F. Plasser,  S. Prager,  A. Prociuk,  D. R. Rehn,  F. Rob,  M. Schneider,  
 N. Sergueev,  S. M. Sharada,  S. Sharma,  D. W. Small,  T. Stauch,  
 T. Stein,  Yu-Chuan Su,  A. J. W. Thom,  T. Tsuchimochi,  L. Vogt,  
 O. Vydrov,  M. A. Watson,  J. Wenzel,  M. de Wergifosse,  T. A. Wesolowski,  
 A. White,  J. Witte,  A. Yamada,  Jun Yang,  K. Yao,  S. Yeganeh,  
 S. R. Yost,  Zhi-Qiang You,  A. Zech,  Igor Ying Zhang,  Xing Zhang,  
 Yan Zhao,  Ying Zhu,  B. R. Brooks,  G. K. L. Chan,  C. J. Cramer,  
 M. S. Gordon,  W. J. Hehre,  A. Klamt,  M. W. Schmidt,  C. D. Sherrill,  
 D. G. Truhlar,  A. Aspuru-Guzik,  R. Baer,  A. T. Bell,  N. A. Besley,  
 Jeng-Da Chai,  A. Dreuw,  B. D. Dunietz,  T. R. Furlani,  Chao-Ping Hsu,  
 Yousung Jung,  Jing Kong,  D. S. Lambrecht,  WanZhen Liang,  C. Ochsenfeld,  
 V. A. Rassolov,  L. V. Slipchenko,  J. E. Subotnik,  T. Van Voorhis,  
 J. M. Herbert,  A. I. Krylov,  P. M. W. Gill,  M. Head-Gordon

 Contributors to earlier versions of Q-Chem not listed above: 
 R. D. Adamson,  B. Austin,  J. Baker,  G. J. O. Beran,  K. Brandhorst,  
 S. T. Brown,  E. F. C. Byrd,  A. K. Chakraborty,  C.-L. Cheng,  
 Siu Hung Chien,  D. M. Chipman,  D. L. Crittenden,  H. Dachsel,  
 R. A. DiStasio Jr.,  R. J. Doerksen,  A. D. Dutoi,  L. Fusti-Molnar,  
 W. A. Goddard III,  A. Golubeva-Zadorozhnaya,  S. R. Gwaltney,  G. Hawkins,  
 A. Heyden,  S. Hirata,  G. Kedziora,  F. J. Keil,  C. Kelley,  Jihan Kim,  
 R. A. King,  R. Z. Khaliullin,  P. P. Korambath,  W. Kurlancheek,  
 A. M. Lee,  M. S. Lee,  S. V. Levchenko,  Ching Yeh Lin,  D. Liotard,  
 R. C. Lochan,  I. Lotan,  P. E. Maslen,  N. Nair,  D. P. O'Neill,  
 D. Neuhauser,  E. Neuscamman,  C. M. Oana,  R. Olson,  B. Peters,  
 R. Peverati,  P. A. Pieniazek,  Y. M. Rhee,  J. Ritchie,  M. A. Rohrdanz,  
 E. Rosta,  N. J. Russ,  H. F. Schaefer III,  N. E. Schultz,  N. Shenvi,  
 A. C. Simmonett,  A. Sodt,  D. Stuck,  K. S. Thanthiriwatte,  V. Vanovschi,  
 Tao Wang,  A. Warshel,  C. F. Williams,  Q. Wu,  X. Xu,  W. Zhang

 Please cite Q-Chem as follows:
 Y. Shao et al., Mol. Phys. 113, 184-215 (2015)
 DOI: 10.1080/00268976.2014.952696

 Q-Chem 5.0.1 for Intel X86 EM64T Linux

 Parts of Q-Chem use Armadillo 5.200.1 (Boston Tea Smuggler).
 http://arma.sourceforge.net/

 Q-Chem begins on Tue Oct 24 07:37:00 2017  

Host: r0215.ten.osc.edu
0

     Scratch files written to /tmp/pbstmp.1324372/02//
Processing $rem in /users/PAS0291/osu6415/.qchemrc.
molden_format             true

Checking the input file for inconsistencies... 	...done.

--------------------------------------------------------------
User input:
--------------------------------------------------------------
$molecule
0 1
C -0.58539816 -0.96507392 0.30042537
C -0.72976660 0.56860048 0.75885502
C 0.77545096 -1.34694308 -0.27547934
C 0.49431335 1.45833510 0.50919444
O 1.76576924 -1.09744683 0.61158367
O 0.96042745 -1.90640933 -1.32761276
O 1.05791824 1.26158545 -0.69909169
O 0.89799452 2.29519984 1.28174149
C 2.20958338 2.06080629 -1.00770059
C 3.09360853 -1.43841189 0.18146617
C -1.73624976 -1.11182365 -0.77227506
C -1.39116862 -0.26061339 -1.98141157
C -1.52486709 1.01893040 -1.62234513
C -1.95216749 1.04304859 -0.16467925
C -2.83070972 -0.22777043 -0.13642848
C -0.81322914 -1.98620602 1.44248010
C -1.10687818 0.74887130 2.23831914
H 1.95454662 3.12164471 -1.00358289
H 3.33897515 -0.90942466 -0.74100146
H -1.26293363 1.89222633 -2.20372844
H 2.52028841 1.74435741 -2.00138820
H 3.00231179 1.88280008 -0.27906175
H 3.75114289 -1.12720461 0.99022704
H 3.17717135 -2.51265424 0.00903291
H -2.39330203 1.97184499 0.19652048
H -1.98264547 -2.15279227 -0.97672167
H -2.02299476 0.21666803 2.48791512
H -0.31224320 0.39838739 2.89861958
H -1.25807179 1.80746483 2.44895468
H -0.67808446 -2.99799811 1.05059085
H -0.10630212 -1.84307615 2.25859124
H -1.82436838 -1.92288155 1.84285771
H -3.70671146 -0.13455170 -0.77967333
H -3.15207877 -0.53763323 0.85844150
H -0.99490512 -0.64718567 -2.90875132
$end

$rem
sym_ignore      true
jobtype         opt
method          b3lyp
basis           6-311++G(d,p)
dft_d           d3_op
mem_total       62000
MEM_STATIC      4000
ao2mo_disk      350000
max_scf_cycles  200
geom_opt_max_cycles 1000
geom_opt_tol_displacement 1
GEOM_OPT_TOL_GRADIENT       1
GEOM_OPT_TOL_ENERGY         1
$end

--------------------------------------------------------------
 Adding empirical dispersion correction 
 ----------------------------------------------------------------
 Doing -D3(op) with
 s6 =   1.00000
 s8 =   0.78311
 a1 =   0.30000
 a2 =   4.25000
 n  =  10.00000
 -D3 energy without 3body term =     -0.0483828316 hartrees
 ----------------------------------------------------------------
             Standard Nuclear Orientation (Angstroms)
    I     Atom           X                Y                Z
 ----------------------------------------------------------------
    1      C      -0.5853981600    -0.9650739200     0.3004253700
    2      C      -0.7297666000     0.5686004800     0.7588550200
    3      C       0.7754509600    -1.3469430800    -0.2754793400
    4      C       0.4943133500     1.4583351000     0.5091944400
    5      O       1.7657692400    -1.0974468300     0.6115836700
    6      O       0.9604274500    -1.9064093300    -1.3276127600
    7      O       1.0579182400     1.2615854500    -0.6990916900
    8      O       0.8979945200     2.2951998400     1.2817414900
    9      C       2.2095833800     2.0608062900    -1.0077005900
   10      C       3.0936085300    -1.4384118900     0.1814661700
   11      C      -1.7362497600    -1.1118236500    -0.7722750600
   12      C      -1.3911686200    -0.2606133900    -1.9814115700
   13      C      -1.5248670900     1.0189304000    -1.6223451300
   14      C      -1.9521674900     1.0430485900    -0.1646792500
   15      C      -2.8307097200    -0.2277704300    -0.1364284800
   16      C      -0.8132291400    -1.9862060200     1.4424801000
   17      C      -1.1068781800     0.7488713000     2.2383191400
   18      H       1.9545466200     3.1216447100    -1.0035828900
   19      H       3.3389751500    -0.9094246600    -0.7410014600
   20      H      -1.2629336300     1.8922263300    -2.2037284400
   21      H       2.5202884100     1.7443574100    -2.0013882000
   22      H       3.0023117900     1.8828000800    -0.2790617500
   23      H       3.7511428900    -1.1272046100     0.9902270400
   24      H       3.1771713500    -2.5126542400     0.0090329100
   25      H      -2.3933020300     1.9718449900     0.1965204800
   26      H      -1.9826454700    -2.1527922700    -0.9767216700
   27      H      -2.0229947600     0.2166680300     2.4879151200
   28      H      -0.3122432000     0.3983873900     2.8986195800
   29      H      -1.2580717900     1.8074648300     2.4489546800
   30      H      -0.6780844600    -2.9979981100     1.0505908500
   31      H      -0.1063021200    -1.8430761500     2.2585912400
   32      H      -1.8243683800    -1.9228815500     1.8428577100
   33      H      -3.7067114600    -0.1345517000    -0.7796733300
   34      H      -3.1520787700    -0.5376332300     0.8584415000
   35      H      -0.9949051200    -0.6471856700    -2.9087513200
 ----------------------------------------------------------------
 Nuclear Repulsion Energy =  1398.3965592120 hartrees
 There are       64 alpha and       64 beta electrons
 Requested basis set is 6-311++G(d,p)
 There are 192 shells and 500 basis functions

 Total QAlloc Memory Limit  62000 MB
 Mega-Array Size      3911 MB
 MEM_STATIC part      4000 MB
 A cutoff of  1.0D-11 yielded  15517 shell pairs
 There are    107779 function pairs (    115037 Cartesian)
 
 -------------------------------------------------------
 OpenMP Integral Computing Module                       
 Release: version 1.0, May 2013, Q-Chem Inc. Pittsburgh 
 -------------------------------------------------------
 Integral Job Info:
 Integral job number is                      11
 Integral operator is                         1
 short-range coefficients                     0
 long-range coefficients              100000000
 Omega coefficients                           0
 if combine SR and LR in K                    0
 Integral screening is                        0
 Integral computing path is                   2
 max size of driver memory is            800000
 size of driver memory is                593474
 size of scratch memory is              2361544
 max col of scratch BK array               1296
 max len of scratch array in speh3          155
 max len of scratch index in speh4           18
 max int batch size is                      520
 min int batch size is                       52
 fixed nKL is                                52
 max L of basis functions is                  2
 order of int derivative is                   0
 number of shells is                        192
 number of basis is                         517
 number of cartesian basis is               517
 number of contracted shell pairs         15517
 number of primitive shell pairs          34117
 maxK2 (contraction) of shell pair           36
 max number of K2 of shell pair               1
 max number of CS2 of shell pair           2876
 max number of PS2 of shell pair           4968
 mem total for path MDJ                  189688
 -------------------------------------------------------
 Smallest overlap matrix eigenvalue = 7.98E-07

 Q-Chem warning in module /fs/scratch/osu6415/qchem-kaunlao-vdw/stvman/mkSTV.C, line 281:

 Overlap eigenvalue is smaller than square root of threshold

 Linear dependence detected in AO basis
 Number of orthogonalized atomic orbitals = 499
 Maximum deviation from orthogonality = 2.813E-10

 Scale SEOQF with 1.000000e-01/1.000000e-01/1.000000e-01

 Standard Electronic Orientation quadrupole field applied
 Nucleus-field energy     =     0.0000000126 hartrees
 Guess from superposition of atomic densities
 Warning:  Energy on first SCF cycle will be non-variational
 A restricted hybrid HF-DFT SCF calculation will be
 performed using Pulay DIIS extrapolation
 Exchange:     0.2000 Hartree-Fock + 0.0800 Slater + 0.7200 B88
 Correlation:  0.1900 VWN1RPA + 0.8100 LYP
 Using SG-1 standard quadrature grid
 Dispersion:   Grimme D3
 SCF converges when DIIS error is below 1.0E-08
 using 20 threads for integral computing
 -------------------------------------------------------
 OpenMP Integral computing Module                
 Release: version 1.0, May 2013, Q-Chem Inc. Pittsburgh 
 -------------------------------------------------------
 -------------------------------------------------------
 OpenMP BLAS3 based DFT computing Module                
 Release: version 1.0, May 2013, Q-Chem Inc. Pittsburgh 
 -------------------------------------------------------
 ---------------------------------------
  Cycle       Energy         DIIS Error
 ---------------------------------------
    1    -810.8946677847      2.82E-02
    2    -806.9936653520      3.69E-03
    3    -806.4962902024      5.95E-03
    4    -807.3128065122      1.39E-03
    5    -807.3583124941      3.63E-04
    6    -807.3610307865      1.30E-04
    7    -807.3614305989      2.86E-05
    8    -807.3614482174      9.86E-06
    9    -807.3614507307      2.66E-06
   10    -807.3614508982      1.12E-06
   11    -807.3614509280      3.71E-07
   12    -807.3614509312      1.22E-07
   13    -807.3614509317      4.84E-08
   14    -807.3614509326      1.45E-08
   15    -807.3614509394      3.94E-09 Convergence criterion met
 ---------------------------------------
 SCF time:  CPU 1320.75 s  wall 82.15 s
 SCF   energy in the final basis set = -807.36145094
 Total energy in the final basis set = -807.36145094
 
 --------------------------------------------------------------
 
                    Orbital Energies (a.u.)
 --------------------------------------------------------------
 
 Alpha MOs
 -- Occupied --
-19.171 -19.170 -19.114 -19.113 -10.303 -10.302 -10.230 -10.230
-10.213 -10.212 -10.192 -10.186 -10.175 -10.173 -10.166 -10.164
-10.162  -1.117  -1.110  -1.026  -1.024  -0.898  -0.806  -0.778
 -0.743  -0.729  -0.710  -0.688  -0.669  -0.612  -0.588  -0.563
 -0.556  -0.540  -0.533  -0.516  -0.504  -0.490  -0.482  -0.472
 -0.459  -0.457  -0.446  -0.429  -0.421  -0.411  -0.408  -0.399
 -0.396  -0.383  -0.381  -0.376  -0.372  -0.358  -0.356  -0.353
 -0.342  -0.332  -0.318  -0.317  -0.308  -0.282  -0.277  -0.243
 -- Virtual --
 -0.014  -0.010  -0.003   0.001   0.003   0.008   0.012   0.016
  0.019   0.026   0.030   0.033   0.039   0.045   0.046   0.050
  0.056   0.060   0.064   0.071   0.074   0.080   0.083   0.091
  0.098   0.099   0.101   0.103   0.108   0.110   0.111   0.116
  0.118   0.120   0.122   0.124   0.127   0.132   0.135   0.138
  0.139   0.141   0.143   0.149   0.151   0.152   0.155   0.156
  0.160   0.164   0.166   0.169   0.170   0.175   0.179   0.180
  0.182   0.183   0.187   0.190   0.197   0.200   0.206   0.210
  0.212   0.214   0.217   0.221   0.223   0.228   0.231   0.233
  0.239   0.242   0.249   0.252   0.258   0.262   0.265   0.269
  0.274   0.282   0.284   0.287   0.291   0.299   0.301   0.307
  0.313   0.317   0.321   0.325   0.331   0.332   0.333   0.339
  0.344   0.345   0.350   0.351   0.354   0.360   0.365   0.368
  0.378   0.381   0.386   0.391   0.392   0.396   0.407   0.416
  0.425   0.430   0.432   0.436   0.447   0.450   0.470   0.479
  0.497   0.501   0.507   0.517   0.525   0.527   0.535   0.538
  0.546   0.556   0.560   0.567   0.587   0.594   0.602   0.609
  0.611   0.617   0.624   0.634   0.641   0.646   0.648   0.655
  0.657   0.661   0.665   0.677   0.679   0.687   0.695   0.696
  0.702   0.713   0.721   0.722   0.724   0.733   0.739   0.742
  0.743   0.753   0.758   0.762   0.771   0.778   0.791   0.791
  0.809   0.812   0.818   0.822   0.836   0.848   0.850   0.861
  0.868   0.896   0.898   0.909   0.923   0.947   0.972   0.989
  0.999   1.040   1.044   1.054   1.074   1.096   1.100   1.111
  1.121   1.125   1.143   1.162   1.171   1.184   1.195   1.206
  1.222   1.231   1.253   1.266   1.280   1.289   1.301   1.314
  1.319   1.330   1.355   1.366   1.378   1.387   1.406   1.414
  1.424   1.432   1.441   1.458   1.467   1.482   1.492   1.504
  1.507   1.519   1.523   1.532   1.537   1.559   1.565   1.569
  1.573   1.583   1.588   1.598   1.608   1.615   1.624   1.627
  1.643   1.650   1.666   1.684   1.691   1.698   1.703   1.712
  1.720   1.723   1.732   1.745   1.750   1.754   1.759   1.777
  1.784   1.792   1.803   1.811   1.815   1.826   1.836   1.844
  1.861   1.876   1.881   1.890   1.906   1.912   1.918   1.929
  1.935   1.958   1.978   1.985   1.998   2.000   2.015   2.032
  2.040   2.052   2.059   2.068   2.081   2.123   2.130   2.135
  2.151   2.159   2.173   2.182   2.194   2.209   2.231   2.236
  2.247   2.267   2.269   2.295   2.315   2.339   2.343   2.368
  2.411   2.425   2.440   2.446   2.468   2.477   2.497   2.504
  2.518   2.530   2.536   2.549   2.553   2.567   2.578   2.593
  2.596   2.602   2.610   2.626   2.638   2.650   2.664   2.671
  2.685   2.700   2.719   2.730   2.740   2.756   2.782   2.790
  2.799   2.820   2.839   2.844   2.850   2.869   2.879   2.889
  2.904   2.924   2.943   2.969   2.978   2.998   3.012   3.035
  3.039   3.046   3.066   3.073   3.087   3.099   3.115   3.135
  3.141   3.162   3.178   3.189   3.223   3.234   3.252   3.271
  3.278   3.319   3.354   3.363   3.388   3.406   3.433   3.468
  3.485   3.553   3.606   3.621   3.641   3.770   3.775   3.786
  3.787   3.790   3.811   3.830   3.843   3.859   3.872   3.880
  4.054   4.078   4.091   4.102   4.128   4.154   4.168   4.176
  4.196   4.223   4.259   4.305   4.380   4.457   5.046   5.138
  5.182   5.226   5.280   5.282   5.443   5.464   5.644   5.661
  5.892   5.920  23.814  23.834  23.846  23.877  23.892  23.909
 23.946  23.953  24.003  24.016  24.039  24.067  24.328  49.936
 49.950  50.050  50.064
 --------------------------------------------------------------
 
          Ground-State Mulliken Net Atomic Charges

     Atom                 Charge (a.u.)
  ----------------------------------------
      1 C                     0.083078
      2 C                    -0.086184
      3 C                    -0.643495
      4 C                    -0.487151
      5 O                     0.014547
      6 O                    -0.141834
      7 O                    -0.038365
      8 O                    -0.175412
      9 C                    -0.239849
     10 C                    -0.191782
     11 C                     0.438996
     12 C                    -0.521062
     13 C                    -0.306466
     14 C                     0.224453
     15 C                    -0.688843
     16 C                    -0.206412
     17 C                    -0.221171
     18 H                     0.186517
     19 H                     0.186965
     20 H                     0.138243
     21 H                     0.172521
     22 H                     0.192283
     23 H                     0.159126
     24 H                     0.177712
     25 H                     0.260118
     26 H                     0.258555
     27 H                     0.116612
     28 H                     0.200169
     29 H                     0.196546
     30 H                     0.189006
     31 H                     0.151850
     32 H                     0.151015
     33 H                     0.191079
     34 H                     0.096347
     35 H                     0.162291
  ----------------------------------------
  Sum of atomic charges =    -0.000000

 -----------------------------------------------------------------
                    Cartesian Multipole Moments
 -----------------------------------------------------------------
    Charge (ESU x 10^10)
                -0.0000
    Dipole Moment (Debye)
         X       0.3813      Y      -0.3991      Z       0.1166
       Tot       0.5642
    Quadrupole Moments (Debye-Ang)
        XX     -91.7292     XY       0.0000     YY    -105.1320
        XZ      -3.9590     YZ     -10.2487     ZZ    -106.5595
    Octopole Moments (Debye-Ang^2)
       XXX      64.3392    XXY      -3.7954    XYY       5.1287
       YYY      -2.4093    XXZ       2.5278    XYZ     -15.0762
       YYZ      -9.5189    XZZ       7.6380    YZZ       1.7328
       ZZZ      -2.0559
    Hexadecapole Moments (Debye-Ang^3)
      XXXX   -1775.1317   XXXY     -17.2844   XXYY    -512.1184
      XYYY     -12.9401   YYYY   -1362.2898   XXXZ     -13.7133
      XXYZ     -16.6847   XYYZ     -10.8709   YYYZ     -61.3111
      XXZZ    -490.5869   XYZZ       8.0494   YYZZ    -419.1027
      XZZZ      -8.9441   YZZZ     -18.3578   ZZZZ    -995.5010
 -----------------------------------------------------------------
 Calculating analytic gradient of the SCF energy
 Gradient of SCF Energy
            1           2           3           4           5           6
    1  -0.0005175   0.0003487   0.0002308   0.0002483   0.0000077  -0.0000905
    2  -0.0000731  -0.0002742   0.0013889  -0.0001924  -0.0000209  -0.0009993
    3  -0.0008441   0.0008725  -0.0005632   0.0001697  -0.0000104   0.0005708
            7           8           9          10          11          12
    1  -0.0000014  -0.0001450  -0.0000165  -0.0000188   0.0000168  -0.0000682
    2   0.0000004   0.0001456  -0.0000570   0.0000051  -0.0000434   0.0000015
    3  -0.0000610  -0.0001731  -0.0000467   0.0000189  -0.0000475   0.0000262
           13          14          15          16          17          18
    1  -0.0000601   0.0000465   0.0000568   0.0000125  -0.0000413   0.0000192
    2  -0.0000297   0.0001276   0.0000112  -0.0000279   0.0000044  -0.0000119
    3  -0.0000068   0.0000116   0.0000526   0.0000085   0.0000509  -0.0000184
           19          20          21          22          23          24
    1  -0.0000148   0.0000391  -0.0000044   0.0000124  -0.0000034  -0.0000178
    2  -0.0000417  -0.0000070  -0.0000217  -0.0000155  -0.0000265  -0.0000290
    3  -0.0000363   0.0000065  -0.0000245  -0.0000244  -0.0000325  -0.0000274
           25          26          27          28          29          30
    1  -0.0000051  -0.0000660   0.0000393   0.0000436   0.0000036  -0.0000270
    2   0.0000004   0.0000233  -0.0000030   0.0000420   0.0000110   0.0000150
    3  -0.0000114   0.0000537   0.0000131  -0.0000133  -0.0000129   0.0000075
           31          32          33          34          35
    1   0.0000165   0.0000062  -0.0000210  -0.0000295   0.0000003
    2   0.0000028   0.0000460   0.0000271   0.0000187   0.0000029
    3   0.0000005   0.0000351   0.0000279   0.0000106   0.0000172
 Max gradient component =       1.389E-03
 RMS gradient           =       2.363E-04
 Gradient time:  CPU 432.19 s  wall 30.67 s
 Geometry Optimization Parameters
   NAtoms,    NIC,     NZ,  NCons,   NDum,   NFix, NCnnct, MaxDiis
       35     275       0       0       0       0       0       0


** GEOMETRY OPTIMIZATION IN DELOCALIZED INTERNAL COORDINATES **
   Searching for a Minimum

   Optimization Cycle:   1

                       Coordinates (Angstroms)
     ATOM                X               Y               Z
      1  C        -0.5853981600   -0.9650739200    0.3004253700
      2  C        -0.7297666000    0.5686004800    0.7588550200
      3  C         0.7754509600   -1.3469430800   -0.2754793400
      4  C         0.4943133500    1.4583351000    0.5091944400
      5  O         1.7657692400   -1.0974468300    0.6115836700
      6  O         0.9604274500   -1.9064093300   -1.3276127600
      7  O         1.0579182400    1.2615854500   -0.6990916900
      8  O         0.8979945200    2.2951998400    1.2817414900
      9  C         2.2095833800    2.0608062900   -1.0077005900
     10  C         3.0936085300   -1.4384118900    0.1814661700
     11  C        -1.7362497600   -1.1118236500   -0.7722750600
     12  C        -1.3911686200   -0.2606133900   -1.9814115700
     13  C        -1.5248670900    1.0189304000   -1.6223451300
     14  C        -1.9521674900    1.0430485900   -0.1646792500
     15  C        -2.8307097200   -0.2277704300   -0.1364284800
     16  C        -0.8132291400   -1.9862060200    1.4424801000
     17  C        -1.1068781800    0.7488713000    2.2383191400
     18  H         1.9545466200    3.1216447100   -1.0035828900
     19  H         3.3389751500   -0.9094246600   -0.7410014600
     20  H        -1.2629336300    1.8922263300   -2.2037284400
     21  H         2.5202884100    1.7443574100   -2.0013882000
     22  H         3.0023117900    1.8828000800   -0.2790617500
     23  H         3.7511428900   -1.1272046100    0.9902270400
     24  H         3.1771713500   -2.5126542400    0.0090329100
     25  H        -2.3933020300    1.9718449900    0.1965204800
     26  H        -1.9826454700   -2.1527922700   -0.9767216700
     27  H        -2.0229947600    0.2166680300    2.4879151200
     28  H        -0.3122432000    0.3983873900    2.8986195800
     29  H        -1.2580717900    1.8074648300    2.4489546800
     30  H        -0.6780844600   -2.9979981100    1.0505908500
     31  H        -0.1063021200   -1.8430761500    2.2585912400
     32  H        -1.8243683800   -1.9228815500    1.8428577100
     33  H        -3.7067114600   -0.1345517000   -0.7796733300
     34  H        -3.1520787700   -0.5376332300    0.8584415000
     35  H        -0.9949051200   -0.6471856700   -2.9087513200
   Point Group: c1    Number of degrees of freedom:    99


   Energy is   -807.361450939


 Attempting to Generate Delocalized Internal Coordinates

 99 Hessian modes will be used to form the next step
  Hessian Eigenvalues:
     0.002718    0.004176    0.004235    0.004717    0.005708    0.009102
     0.009962    0.010776    0.010965    0.013154    0.017168    0.017226
     0.020489    0.021899    0.022563    0.028898    0.033273    0.041867
     0.045092    0.045594    0.047657    0.049113    0.050176    0.053125
     0.053941    0.054362    0.056558    0.056838    0.057191    0.059127
     0.068142    0.073097    0.078046    0.088825    0.094951    0.101340
     0.101465    0.105926    0.106183    0.110878    0.116533    0.131554
     0.156416    0.158505    0.160000    0.160000    0.160000    0.160000
     0.160000    0.160000    0.160000    0.160000    0.160000    0.160000
     0.160000    0.160000    0.162862    0.206945    0.209298    0.238987
     0.244407    0.248559    0.249096    0.249826    0.250000    0.250000
     0.250000    0.250000    0.273483    0.277499    0.287526    0.290816
     0.297736    0.300601    0.344205    0.346584    0.346606    0.346746
     0.346890    0.346974    0.347210    0.347618    0.348260    0.348324
     0.348862    0.349099    0.349176    0.349879    0.350261    0.350688
     0.358348    0.359931    0.400266    0.402254    0.515283    0.544461
     0.555119    1.007329    1.019118

 Minimum Search - Taking Simple RFO Step
 Searching for Lamda that Minimizes Along All modes
 Value Taken    Lamda =  -0.00020223
 Step Taken.  Stepsize is  0.171039

                             Maximum     Tolerance    Cnvgd?
         Gradient           0.000631      0.000001      NO
         Displacement       0.091197      0.000001      NO
         Energy change     *********      0.000000      NO


 New Cartesian Coordinates Obtained by Inverse Iteration

 Displacement from previous Coordinates is:  0.244288
 Adding empirical dispersion correction 
 ----------------------------------------------------------------
 Doing -D3(op) with
 s6 =   1.00000
 s8 =   0.78311
 a1 =   0.30000
 a2 =   4.25000
 n  =  10.00000
 -D3 energy without 3body term =     -0.0483930270 hartrees
 ----------------------------------------------------------------
             Standard Nuclear Orientation (Angstroms)
    I     Atom           X                Y                Z
 ----------------------------------------------------------------
    1      C      -0.5846385829    -0.9654610980     0.3056673750
    2      C      -0.7312524294     0.5703430598     0.7574193431
    3      C       0.7762859180    -1.3471878536    -0.2699423214
    4      C       0.4922088929     1.4600461549     0.5047573453
    5      O       1.7635012336    -1.1341563621     0.6299845744
    6      O       0.9687366666    -1.8323980559    -1.3570495106
    7      O       1.0507867432     1.2664609580    -0.7063378941
    8      O       0.9086367035     2.2843222258     1.2840876978
    9      C       2.2068767540     2.0597031651    -1.0139588556
   10      C       3.0940071994    -1.4476136241     0.1872863808
   11      C      -1.7334996288    -1.1144591984    -0.7691240319
   12      C      -1.3883026519    -0.2647344738    -1.9794446142
   13      C      -1.5267282216     1.0152057208    -1.6236965616
   14      C      -1.9546931920     1.0408029213    -0.1664084712
   15      C      -2.8305670265    -0.2316787833    -0.1361064206
   16      C      -0.8146117890    -1.9853630749     1.4483947374
   17      C      -1.1068534256     0.7554174981     2.2366220082
   18      H       1.9589193152     3.1221647621    -1.0033152099
   19      H       3.3384888017    -0.8743604727    -0.7085817284
   20      H      -1.2676291102     1.8881309905    -2.2068949986
   21      H       2.5124836026     1.7466390621    -2.0103043981
   22      H       3.0005677246     1.8723438040    -0.2887338287
   23      H       3.7482050460    -1.1714715919     1.0113540945
   24      H       3.1836150662    -2.5120812133    -0.0353533809
   25      H      -2.3974951490     1.9693937727     0.1933364710
   26      H      -1.9776630389    -2.1561272466    -0.9727622805
   27      H      -2.0246728361     0.2270148861     2.4880486050
   28      H      -0.3131132288     0.4037415610     2.8973766526
   29      H      -1.2542527586     1.8150244351     2.4448787764
   30      H      -0.6741544770    -2.9973893204     1.0589635375
   31      H      -0.1121589714    -1.8384804296     2.2676925612
   32      H      -1.8279049366    -1.9248704059     1.8437259018
   33      H      -3.7062699983    -0.1417709839    -0.7801974508
   34      H      -3.1517545163    -0.5401356957     0.8592651445
   35      H      -0.9906777686    -0.6523446034    -2.9057656693
 ----------------------------------------------------------------
 Nuclear Repulsion Energy =  1398.5574422848 hartrees
 There are       64 alpha and       64 beta electrons
 Applying Cartesian multipole field
    Component          Value
    ---------          -----
     (2,0,0)        1.00000E-11
     (0,2,0)        2.00000E-11
     (0,0,2)       -3.00000E-11
 Nucleus-field energy     =     0.0000000123 hartrees
 Requested basis set is 6-311++G(d,p)
 There are 192 shells and 500 basis functions
 A cutoff of  1.0D-11 yielded  15514 shell pairs
 There are    107728 function pairs (    114985 Cartesian)
 Smallest overlap matrix eigenvalue = 7.97E-07

 Q-Chem warning in module /fs/scratch/osu6415/qchem-kaunlao-vdw/stvman/mkSTV.C, line 281:

 Overlap eigenvalue is smaller than square root of threshold

 Linear dependence detected in AO basis
 Number of orthogonalized atomic orbitals = 499
 Maximum deviation from orthogonality = 1.357E-10
 Guess MOs from SCF MO coefficient file
 Reading MOs from coefficient file
 Reading MOs from coefficient file
 A restricted hybrid HF-DFT SCF calculation will be
 performed using Pulay DIIS extrapolation
 Exchange:     0.2000 Hartree-Fock + 0.0800 Slater + 0.7200 B88
 Correlation:  0.1900 VWN1RPA + 0.8100 LYP
 Using SG-1 standard quadrature grid
 Dispersion:   Grimme D3
 SCF converges when DIIS error is below 1.0E-08
 Geometry optimization detected.  Setting ReadMinima to 0
 Setting SaveMinima to 0
 using 20 threads for integral computing
 -------------------------------------------------------
 OpenMP Integral computing Module                
 Release: version 1.0, May 2013, Q-Chem Inc. Pittsburgh 
 -------------------------------------------------------
 -------------------------------------------------------
 OpenMP BLAS3 based DFT computing Module                
 Release: version 1.0, May 2013, Q-Chem Inc. Pittsburgh 
 -------------------------------------------------------
 ---------------------------------------
  Cycle       Energy         DIIS Error
 ---------------------------------------
    1    -807.3487873543      6.05E-04
    2    -807.3612384929      6.31E-05
    3    -807.3611588197      9.72E-05
    4    -807.3613800310      2.40E-05
    5    -807.3613915703      8.42E-06
    6    -807.3613932706      2.16E-06
    7    -807.3613933750      1.06E-06
    8    -807.3613934029      3.26E-07
    9    -807.3613934058      1.07E-07
   10    -807.3613934061      4.75E-08
   11    -807.3613934064      1.16E-08
   12    -807.3613933946      4.26E-09 Convergence criterion met
 ---------------------------------------
 SCF time:  CPU 1071.86 s  wall 67.59 s
 SCF   energy in the final basis set = -807.36139339
 Total energy in the final basis set = -807.36139339
 
 --------------------------------------------------------------
 
                    Orbital Energies (a.u.)
 --------------------------------------------------------------
 
 Alpha MOs
 -- Occupied --
-19.172 -19.170 -19.114 -19.113 -10.303 -10.302 -10.230 -10.229
-10.213 -10.212 -10.192 -10.185 -10.175 -10.173 -10.165 -10.163
-10.162  -1.117  -1.110  -1.026  -1.024  -0.898  -0.806  -0.778
 -0.743  -0.729  -0.710  -0.688  -0.669  -0.612  -0.588  -0.563
 -0.556  -0.539  -0.533  -0.516  -0.504  -0.490  -0.482  -0.473
 -0.459  -0.457  -0.446  -0.428  -0.421  -0.411  -0.408  -0.399
 -0.396  -0.383  -0.381  -0.376  -0.372  -0.359  -0.356  -0.352
 -0.342  -0.332  -0.317  -0.316  -0.309  -0.282  -0.277  -0.242
 -- Virtual --
 -0.014  -0.010  -0.003   0.001   0.003   0.009   0.012   0.016
  0.019   0.026   0.030   0.033   0.039   0.046   0.046   0.050
  0.056   0.060   0.064   0.071   0.074   0.080   0.083   0.091
  0.098   0.099   0.101   0.102   0.108   0.110   0.111   0.116
  0.118   0.120   0.122   0.125   0.127   0.133   0.135   0.138
  0.139   0.140   0.144   0.149   0.150   0.152   0.156   0.156
  0.160   0.164   0.166   0.170   0.170   0.174   0.179   0.180
  0.182   0.183   0.187   0.190   0.197   0.201   0.206   0.210
  0.212   0.214   0.217   0.220   0.223   0.228   0.231   0.233
  0.240   0.242   0.249   0.252   0.258   0.262   0.265   0.269
  0.274   0.281   0.285   0.287   0.291   0.299   0.301   0.308
  0.313   0.316   0.321   0.325   0.331   0.332   0.334   0.338
  0.344   0.346   0.349   0.351   0.354   0.361   0.364   0.368
  0.378   0.381   0.385   0.390   0.393   0.399   0.407   0.417
  0.426   0.431   0.432   0.436   0.447   0.449   0.470   0.477
  0.495   0.502   0.507   0.516   0.522   0.527   0.534   0.538
  0.544   0.554   0.560   0.568   0.587   0.594   0.602   0.609
  0.610   0.618   0.624   0.634   0.642   0.646   0.650   0.654
  0.658   0.662   0.666   0.678   0.680   0.687   0.694   0.697
  0.702   0.714   0.720   0.722   0.727   0.735   0.739   0.742
  0.743   0.753   0.759   0.761   0.772   0.778   0.790   0.791
  0.809   0.812   0.817   0.823   0.836   0.848   0.851   0.861
  0.868   0.893   0.897   0.909   0.926   0.946   0.972   0.989
  0.999   1.039   1.044   1.051   1.074   1.099   1.105   1.108
  1.121   1.125   1.139   1.163   1.170   1.184   1.198   1.207
  1.224   1.235   1.255   1.266   1.280   1.290   1.303   1.313
  1.318   1.330   1.356   1.364   1.376   1.387   1.405   1.414
  1.423   1.432   1.441   1.459   1.468   1.480   1.485   1.503
  1.506   1.518   1.522   1.530   1.535   1.558   1.565   1.568
  1.575   1.584   1.589   1.597   1.605   1.615   1.625   1.627
  1.642   1.652   1.667   1.682   1.691   1.698   1.703   1.711
  1.719   1.724   1.733   1.745   1.749   1.754   1.759   1.778
  1.785   1.790   1.804   1.814   1.815   1.827   1.837   1.846
  1.861   1.877   1.881   1.894   1.906   1.915   1.920   1.930
  1.934   1.958   1.980   1.986   1.999   2.003   2.016   2.030
  2.040   2.054   2.058   2.069   2.082   2.123   2.130   2.133
  2.151   2.160   2.174   2.182   2.193   2.206   2.231   2.236
  2.245   2.267   2.269   2.295   2.315   2.339   2.344   2.369
  2.413   2.426   2.440   2.446   2.467   2.477   2.499   2.507
  2.518   2.531   2.536   2.548   2.552   2.566   2.577   2.593
  2.594   2.602   2.611   2.626   2.639   2.649   2.662   2.672
  2.685   2.701   2.720   2.731   2.740   2.756   2.780   2.790
  2.802   2.820   2.839   2.845   2.851   2.868   2.879   2.887
  2.906   2.924   2.944   2.969   2.978   2.998   3.013   3.037
  3.039   3.047   3.066   3.074   3.088   3.101   3.116   3.136
  3.141   3.161   3.180   3.190   3.224   3.235   3.251   3.270
  3.276   3.319   3.357   3.363   3.387   3.404   3.435   3.469
  3.485   3.555   3.606   3.620   3.642   3.768   3.777   3.786
  3.788   3.790   3.810   3.831   3.843   3.859   3.872   3.880
  4.054   4.078   4.092   4.102   4.131   4.153   4.166   4.176
  4.196   4.223   4.260   4.304   4.381   4.456   5.051   5.139
  5.184   5.216   5.281   5.282   5.442   5.468   5.644   5.662
  5.894   5.921  23.817  23.835  23.844  23.878  23.893  23.910
 23.945  23.953  24.003  24.015  24.039  24.068  24.329  49.935
 49.953  50.049  50.064
 --------------------------------------------------------------
 
          Ground-State Mulliken Net Atomic Charges

     Atom                 Charge (a.u.)
  ----------------------------------------
      1 C                     0.063965
      2 C                    -0.123170
      3 C                    -0.615992
      4 C                    -0.492336
      5 O                     0.021014
      6 O                    -0.143034
      7 O                    -0.042829
      8 O                    -0.173050
      9 C                    -0.243041
     10 C                    -0.189089
     11 C                     0.451599
     12 C                    -0.533472
     13 C                    -0.298958
     14 C                     0.228047
     15 C                    -0.694049
     16 C                    -0.189562
     17 C                    -0.215692
     18 H                     0.186592
     19 H                     0.186622
     20 H                     0.137625
     21 H                     0.174318
     22 H                     0.191551
     23 H                     0.160203
     24 H                     0.176880
     25 H                     0.260213
     26 H                     0.257805
     27 H                     0.117553
     28 H                     0.200879
     29 H                     0.196121
     30 H                     0.187456
     31 H                     0.156092
     32 H                     0.149404
     33 H                     0.190718
     34 H                     0.096428
     35 H                     0.163192
  ----------------------------------------
  Sum of atomic charges =    -0.000000

 -----------------------------------------------------------------
                    Cartesian Multipole Moments
 -----------------------------------------------------------------
    Charge (ESU x 10^10)
                -0.0000
    Dipole Moment (Debye)
         X       0.3827      Y      -0.4748      Z       0.1290
       Tot       0.6234
    Quadrupole Moments (Debye-Ang)
        XX     -91.8277     XY      -0.1342     YY    -104.5577
        XZ      -3.9711     YZ     -10.0376     ZZ    -106.8032
    Octopole Moments (Debye-Ang^2)
       XXX      64.4030    XXY      -4.0452    XYY       5.5686
       YYY      -3.7820    XXZ       2.6115    XYZ     -15.0657
       YYZ     -10.3006    XZZ       7.3926    YZZ       1.7816
       ZZZ      -1.6888
    Hexadecapole Moments (Debye-Ang^3)
      XXXX   -1775.5413   XXXY     -17.8122   XXYY    -510.8751
      XYYY     -14.1418   YYYY   -1350.2580   XXXZ     -13.5067
      XXYZ     -16.2494   XYYZ     -11.8786   YYYZ     -55.7184
      XXZZ    -491.9455   XYZZ       8.2144   YYZZ    -418.1915
      XZZZ      -8.5443   YZZZ     -16.4344   ZZZZ   -1000.5808
 -----------------------------------------------------------------
 Calculating analytic gradient of the SCF energy
 Gradient of SCF Energy
            1           2           3           4           5           6
    1  -0.0001872   0.0003785  -0.0004108  -0.0011199   0.0005231  -0.0003668
    2   0.0021331  -0.0009112  -0.0047609   0.0011074   0.0008178   0.0019070
    3  -0.0011532   0.0005910   0.0030830  -0.0006675  -0.0002292  -0.0012186
            7           8           9          10          11          12
    1  -0.0000256   0.0002339  -0.0000417  -0.0000994  -0.0001444   0.0003979
    2   0.0000211  -0.0004155  -0.0000980   0.0000023  -0.0000788  -0.0000996
    3  -0.0005034   0.0001296   0.0000018   0.0000383   0.0000807   0.0003241
           13          14          15          16          17          18
    1   0.0000936  -0.0000578   0.0000682   0.0004922  -0.0000418   0.0000069
    2   0.0001028   0.0003101   0.0000200  -0.0006600   0.0002040  -0.0000188
    3   0.0000552   0.0000926   0.0000606  -0.0003991  -0.0000644  -0.0000280
           19          20          21          22          23          24
    1   0.0000014   0.0000026   0.0000246   0.0000092   0.0000232  -0.0000054
    2   0.0000493   0.0000237   0.0000094  -0.0000871   0.0000014  -0.0000435
    3  -0.0000226  -0.0000090  -0.0000425  -0.0000356  -0.0000290  -0.0000264
           25          26          27          28          29          30
    1  -0.0000100   0.0000240   0.0000625   0.0000632   0.0000228  -0.0000129
    2   0.0000316   0.0000993   0.0001063  -0.0000131   0.0000213   0.0000653
    3  -0.0000664   0.0000542   0.0000772  -0.0000084  -0.0000010   0.0000035
           31          32          33          34          35
    1   0.0000267   0.0000315  -0.0000344   0.0000037   0.0000688
    2   0.0000932   0.0001016   0.0000267   0.0000115  -0.0000799
    3   0.0000576  -0.0000682   0.0000329  -0.0000014  -0.0001083
 Max gradient component =       4.761E-03
 RMS gradient           =       6.951E-04
 Gradient time:  CPU 436.25 s  wall 31.83 s
 Geometry Optimization Parameters
   NAtoms,    NIC,     NZ,  NCons,   NDum,   NFix, NCnnct, MaxDiis
       35     275       0       0       0       0       0       0

 Cartesian Hessian Update
 Hessian Updated using BFGS Update


** GEOMETRY OPTIMIZATION IN DELOCALIZED INTERNAL COORDINATES **
   Searching for a Minimum

   Optimization Cycle:   2

                       Coordinates (Angstroms)
     ATOM                X               Y               Z
      1  C        -0.5846385829   -0.9654610980    0.3056673750
      2  C        -0.7312524294    0.5703430598    0.7574193431
      3  C         0.7762859180   -1.3471878536   -0.2699423214
      4  C         0.4922088929    1.4600461549    0.5047573453
      5  O         1.7635012336   -1.1341563621    0.6299845744
      6  O         0.9687366666   -1.8323980559   -1.3570495106
      7  O         1.0507867432    1.2664609580   -0.7063378941
      8  O         0.9086367035    2.2843222258    1.2840876978
      9  C         2.2068767540    2.0597031651   -1.0139588556
     10  C         3.0940071994   -1.4476136241    0.1872863808
     11  C        -1.7334996288   -1.1144591984   -0.7691240319
     12  C        -1.3883026519   -0.2647344738   -1.9794446142
     13  C        -1.5267282216    1.0152057208   -1.6236965616
     14  C        -1.9546931920    1.0408029213   -0.1664084712
     15  C        -2.8305670265   -0.2316787833   -0.1361064206
     16  C        -0.8146117890   -1.9853630749    1.4483947374
     17  C        -1.1068534256    0.7554174981    2.2366220082
     18  H         1.9589193152    3.1221647621   -1.0033152099
     19  H         3.3384888017   -0.8743604727   -0.7085817284
     20  H        -1.2676291102    1.8881309905   -2.2068949986
     21  H         2.5124836026    1.7466390621   -2.0103043981
     22  H         3.0005677246    1.8723438040   -0.2887338287
     23  H         3.7482050460   -1.1714715919    1.0113540945
     24  H         3.1836150662   -2.5120812133   -0.0353533809
     25  H        -2.3974951490    1.9693937727    0.1933364710
     26  H        -1.9776630389   -2.1561272466   -0.9727622805
     27  H        -2.0246728361    0.2270148861    2.4880486050
     28  H        -0.3131132288    0.4037415610    2.8973766526
     29  H        -1.2542527586    1.8150244351    2.4448787764
     30  H        -0.6741544770   -2.9973893204    1.0589635375
     31  H        -0.1121589714   -1.8384804296    2.2676925612
     32  H        -1.8279049366   -1.9248704059    1.8437259018
     33  H        -3.7062699983   -0.1417709839   -0.7801974508
     34  H        -3.1517545163   -0.5401356957    0.8592651445
     35  H        -0.9906777686   -0.6523446034   -2.9057656693
   Point Group: c1    Number of degrees of freedom:    99


   Energy is   -807.361393395

 Hessian Updated using BFGS Update

 87 Hessian modes will be used to form the next step
  Hessian Eigenvalues:
     0.002716    0.003876    0.004242    0.004697    0.005539    0.009080
     0.010776    0.010962    0.013144    0.017161    0.017204    0.020410
     0.021412    0.022257    0.024600    0.029380    0.034099    0.041852
     0.045251    0.046253    0.047625    0.049722    0.051804    0.053158
     0.053949    0.054365    0.056562    0.057072    0.057199    0.059918
     0.068311    0.073383    0.079060    0.090108    0.095142    0.101339
     0.101470    0.105937    0.106185    0.111150    0.117253    0.132810
     0.156516    0.158511    0.159994    0.160090    0.165874    0.207119
     0.209642    0.239022    0.244571    0.248554    0.249619    0.249826
     0.249982    0.253636    0.273480    0.277544    0.287523    0.290979
     0.298209    0.300624    0.344210    0.346584    0.346609    0.346746
     0.346890    0.346976    0.347209    0.347619    0.348261    0.348323
     0.348868    0.349105    0.349199    0.349887    0.350262    0.350689
     0.358350    0.359991    0.400272    0.402260    0.515278    0.544749
     0.555442    1.007322    1.019313

 Minimum Search - Taking Simple RFO Step
 Searching for Lamda that Minimizes Along All modes
 Value Taken    Lamda =  -0.00024939
 Step Taken.  Stepsize is  0.093435

                             Maximum     Tolerance    Cnvgd?
         Gradient           0.001384      0.000001      NO
         Displacement       0.033785      0.000001      NO
         Energy change      0.000058      0.000000      NO


 New Cartesian Coordinates Obtained by Inverse Iteration

 Displacement from previous Coordinates is:  0.219132
 Adding empirical dispersion correction 
 ----------------------------------------------------------------
 Doing -D3(op) with
 s6 =   1.00000
 s8 =   0.78311
 a1 =   0.30000
 a2 =   4.25000
 n  =  10.00000
 -D3 energy without 3body term =     -0.0482945783 hartrees
 ----------------------------------------------------------------
             Standard Nuclear Orientation (Angstroms)
    I     Atom           X                Y                Z
 ----------------------------------------------------------------
    1      C      -0.5809621513    -0.9587209565     0.3023264721
    2      C      -0.7344659993     0.5764948849     0.7532074166
    3      C       0.7782825359    -1.3291163152    -0.2852090725
    4      C       0.4890440106     1.4688141867     0.5090848204
    5      O       1.7665458299    -1.1321618449     0.6170056419
    6      O       0.9639259996    -1.8370582353    -1.3630239079
    7      O       1.0636295553     1.2687338482    -0.6932498334
    8      O       0.8906523418     2.3026623359     1.2860561482
    9      C       2.2171965477     2.0682552294    -0.9942460564
   10      C       3.0927807700    -1.4672773186     0.1772132882
   11      C      -1.7366852233    -1.1164363062    -0.7645470551
   12      C      -1.4005434737    -0.2732772362    -1.9819376751
   13      C      -1.5352649535     1.0084084485    -1.6312932882
   14      C      -1.9582549820     1.0416696346    -0.1726259049
   15      C      -2.8324811368    -0.2316607696    -0.1319107055
   16      C      -0.7963100473    -1.9774064391     1.4491172231
   17      C      -1.1160650110     0.7579622439     2.2312973896
   18      H       1.9605258453     3.1286912411    -0.9978491121
   19      H       3.3483194319    -0.8987950573    -0.7185787601
   20      H      -1.2793805446     1.8783354055    -2.2203274723
   21      H       2.5379432712     1.7473945435    -1.9833210090
   22      H       3.0030723673     1.8950171511    -0.2571111105
   23      H       3.7496217609    -1.2011944131     1.0024775973
   24      H       3.1656168560    -2.5332031656    -0.0444741930
   25      H      -2.4012207975     1.9715993010     0.1834594544
   26      H      -1.9798855392    -2.1598043533    -0.9608597792
   27      H      -2.0334028133     0.2264379285     2.4780215455
   28      H      -0.3240080051     0.4072719929     2.8945636278
   29      H      -1.2672352030     1.8167688387     2.4409143211
   30      H      -0.6522367428    -2.9894510340     1.0609670784
   31      H      -0.0887674616    -1.8244672589     2.2628585998
   32      H      -1.8070157306    -1.9227453577     1.8519380283
   33      H      -3.7108268402    -0.1465164610    -0.7730137763
   34      H      -3.1491968992    -0.5349368136     0.8664983552
   35      H      -1.0085216380    -0.6656173885    -2.9085447165
 ----------------------------------------------------------------
 Nuclear Repulsion Energy =  1397.8347923120 hartrees
 There are       64 alpha and       64 beta electrons
 Applying Cartesian multipole field
    Component          Value
    ---------          -----
     (2,0,0)        1.00000E-11
     (0,2,0)        2.00000E-11
     (0,0,2)       -3.00000E-11
 Nucleus-field energy     =     0.0000000125 hartrees
 Requested basis set is 6-311++G(d,p)
 There are 192 shells and 500 basis functions
 A cutoff of  1.0D-11 yielded  15516 shell pairs
 There are    107713 function pairs (    114966 Cartesian)
 Smallest overlap matrix eigenvalue = 7.96E-07

 Q-Chem warning in module /fs/scratch/osu6415/qchem-kaunlao-vdw/stvman/mkSTV.C, line 281:

 Overlap eigenvalue is smaller than square root of threshold

 Linear dependence detected in AO basis
 Number of orthogonalized atomic orbitals = 499
 Maximum deviation from orthogonality = 1.183E-10
 Guess MOs from SCF MO coefficient file
 Reading MOs from coefficient file
 Reading MOs from coefficient file
 A restricted hybrid HF-DFT SCF calculation will be
 performed using Pulay DIIS extrapolation
 Exchange:     0.2000 Hartree-Fock + 0.0800 Slater + 0.7200 B88
 Correlation:  0.1900 VWN1RPA + 0.8100 LYP
 Using SG-1 standard quadrature grid
 Dispersion:   Grimme D3
 SCF converges when DIIS error is below 1.0E-08
 Geometry optimization detected.  Setting ReadMinima to 0
 Setting SaveMinima to 0
 using 20 threads for integral computing
 -------------------------------------------------------
 OpenMP Integral computing Module                
 Release: version 1.0, May 2013, Q-Chem Inc. Pittsburgh 
 -------------------------------------------------------
 -------------------------------------------------------
 OpenMP BLAS3 based DFT computing Module                
 Release: version 1.0, May 2013, Q-Chem Inc. Pittsburgh 
 -------------------------------------------------------
 ---------------------------------------
  Cycle       Energy         DIIS Error
 ---------------------------------------
    1    -807.3699041630      3.58E-04
    2    -807.3613447513      6.59E-05
    3    -807.3611856270      1.03E-04
    4    -807.3614751363      2.07E-05
    5    -807.3614844154      6.76E-06
    6    -807.3614854099      2.15E-06
    7    -807.3614855030      9.75E-07
    8    -807.3614855277      2.86E-07
    9    -807.3614855302      8.39E-08
   10    -807.3614855285      2.58E-08
   11    -807.3614855310      8.15E-09 Convergence criterion met
 ---------------------------------------
 SCF time:  CPU 984.61 s  wall 61.17 s
 SCF   energy in the final basis set = -807.36148553
 Total energy in the final basis set = -807.36148553
 
 --------------------------------------------------------------
 
                    Orbital Energies (a.u.)
 --------------------------------------------------------------
 
 Alpha MOs
 -- Occupied --
-19.171 -19.170 -19.114 -19.113 -10.303 -10.302 -10.230 -10.230
-10.213 -10.212 -10.192 -10.185 -10.175 -10.173 -10.165 -10.164
-10.162  -1.117  -1.110  -1.026  -1.025  -0.898  -0.806  -0.778
 -0.743  -0.729  -0.710  -0.688  -0.669  -0.612  -0.588  -0.563
 -0.556  -0.539  -0.533  -0.516  -0.504  -0.490  -0.482  -0.473
 -0.459  -0.457  -0.446  -0.428  -0.421  -0.411  -0.407  -0.399
 -0.396  -0.383  -0.381  -0.376  -0.372  -0.358  -0.356  -0.352
 -0.342  -0.332  -0.317  -0.317  -0.308  -0.282  -0.277  -0.243
 -- Virtual --
 -0.014  -0.010  -0.003   0.001   0.003   0.008   0.012   0.016
  0.019   0.026   0.030   0.033   0.039   0.046   0.046   0.050
  0.056   0.060   0.064   0.071   0.074   0.080   0.083   0.091
  0.098   0.099   0.101   0.102   0.108   0.110   0.111   0.116
  0.118   0.120   0.122   0.124   0.127   0.132   0.135   0.138
  0.139   0.140   0.143   0.150   0.151   0.152   0.156   0.156
  0.160   0.164   0.166   0.170   0.170   0.175   0.179   0.180
  0.182   0.183   0.187   0.190   0.197   0.200   0.206   0.210
  0.212   0.214   0.218   0.220   0.223   0.228   0.231   0.233
  0.240   0.242   0.249   0.252   0.258   0.262   0.265   0.268
  0.274   0.281   0.285   0.287   0.291   0.300   0.301   0.307
  0.314   0.317   0.322   0.325   0.331   0.332   0.334   0.338
  0.343   0.345   0.350   0.351   0.354   0.360   0.364   0.368
  0.378   0.380   0.385   0.390   0.392   0.398   0.406   0.417
  0.426   0.431   0.432   0.437   0.448   0.450   0.470   0.477
  0.495   0.501   0.507   0.517   0.524   0.525   0.535   0.539
  0.544   0.555   0.560   0.568   0.587   0.594   0.603   0.609
  0.610   0.617   0.624   0.634   0.642   0.646   0.649   0.654
  0.658   0.661   0.666   0.678   0.678   0.687   0.694   0.697
  0.702   0.712   0.720   0.722   0.726   0.734   0.740   0.742
  0.743   0.753   0.758   0.761   0.772   0.778   0.789   0.791
  0.809   0.812   0.817   0.823   0.836   0.848   0.851   0.862
  0.868   0.894   0.897   0.908   0.925   0.947   0.972   0.989
  0.997   1.040   1.044   1.053   1.074   1.098   1.104   1.110
  1.121   1.123   1.140   1.162   1.168   1.181   1.198   1.206
  1.224   1.234   1.254   1.263   1.281   1.290   1.301   1.315
  1.317   1.330   1.353   1.365   1.377   1.387   1.406   1.414
  1.423   1.432   1.443   1.460   1.469   1.481   1.486   1.503
  1.507   1.518   1.523   1.531   1.535   1.559   1.566   1.569
  1.574   1.584   1.588   1.596   1.606   1.614   1.626   1.627
  1.642   1.653   1.667   1.683   1.692   1.697   1.703   1.711
  1.719   1.724   1.733   1.745   1.749   1.754   1.759   1.777
  1.783   1.790   1.804   1.814   1.815   1.827   1.835   1.846
  1.862   1.875   1.881   1.891   1.906   1.915   1.920   1.930
  1.934   1.958   1.979   1.987   1.999   2.002   2.015   2.031
  2.041   2.054   2.057   2.069   2.082   2.123   2.130   2.133
  2.149   2.159   2.174   2.182   2.194   2.207   2.230   2.235
  2.245   2.267   2.269   2.296   2.314   2.338   2.344   2.368
  2.411   2.426   2.439   2.446   2.468   2.478   2.497   2.506
  2.518   2.531   2.536   2.549   2.552   2.567   2.577   2.591
  2.595   2.601   2.610   2.625   2.639   2.649   2.663   2.672
  2.684   2.700   2.719   2.730   2.739   2.755   2.782   2.789
  2.798   2.821   2.838   2.844   2.851   2.868   2.878   2.886
  2.905   2.924   2.943   2.969   2.981   2.998   3.012   3.036
  3.040   3.046   3.065   3.074   3.088   3.101   3.115   3.135
  3.141   3.161   3.178   3.188   3.223   3.234   3.252   3.270
  3.276   3.319   3.355   3.365   3.388   3.405   3.434   3.468
  3.486   3.554   3.606   3.620   3.641   3.770   3.776   3.786
  3.787   3.790   3.809   3.831   3.844   3.859   3.872   3.880
  4.055   4.077   4.091   4.102   4.129   4.154   4.166   4.176
  4.195   4.223   4.260   4.303   4.381   4.456   5.051   5.137
  5.183   5.216   5.280   5.284   5.444   5.465   5.644   5.661
  5.894   5.920  23.816  23.834  23.846  23.877  23.893  23.909
 23.946  23.952  24.003  24.015  24.038  24.067  24.329  49.935
 49.952  50.051  50.063
 --------------------------------------------------------------
 
          Ground-State Mulliken Net Atomic Charges

     Atom                 Charge (a.u.)
  ----------------------------------------
      1 C                     0.073825
      2 C                    -0.107708
      3 C                    -0.659451
      4 C                    -0.469613
      5 O                     0.022805
      6 O                    -0.142507
      7 O                    -0.039395
      8 O                    -0.173831
      9 C                    -0.241334
     10 C                    -0.187559
     11 C                     0.438835
     12 C                    -0.528557
     13 C                    -0.301958
     14 C                     0.225984
     15 C                    -0.686258
     16 C                    -0.185716
     17 C                    -0.224515
     18 H                     0.186006
     19 H                     0.186346
     20 H                     0.137493
     21 H                     0.173974
     22 H                     0.192745
     23 H                     0.159598
     24 H                     0.177287
     25 H                     0.260361
     26 H                     0.257595
     27 H                     0.115601
     28 H                     0.199886
     29 H                     0.196881
     30 H                     0.187784
     31 H                     0.154997
     32 H                     0.150234
     33 H                     0.190721
     34 H                     0.096636
     35 H                     0.162806
  ----------------------------------------
  Sum of atomic charges =    -0.000000

 -----------------------------------------------------------------
                    Cartesian Multipole Moments
 -----------------------------------------------------------------
    Charge (ESU x 10^10)
                -0.0000
    Dipole Moment (Debye)
         X       0.4011      Y      -0.4706      Z       0.1316
       Tot       0.6322
    Quadrupole Moments (Debye-Ang)
        XX     -91.7318     XY      -0.0935     YY    -104.6793
        XZ      -3.8932     YZ     -10.0923     ZZ    -106.7939
    Octopole Moments (Debye-Ang^2)
       XXX      64.8008    XXY      -4.0417    XYY       5.9441
       YYY      -4.6349    XXZ       2.7171    XYZ     -14.8954
       YYZ     -10.3446    XZZ       7.4210    YZZ       1.4888
       ZZZ      -1.2630
    Hexadecapole Moments (Debye-Ang^3)
      XXXX   -1780.0153   XXXY     -15.9696   XXYY    -511.2667
      XYYY     -12.5094   YYYY   -1357.3128   XXXZ     -14.4402
      XXYZ     -17.0653   XYYZ     -11.8071   YYYZ     -59.9999
      XXZZ    -492.0407   XYZZ       8.6171   YYZZ    -419.1347
      XZZZ      -8.3107   YZZZ     -19.8357   ZZZZ    -998.5571
 -----------------------------------------------------------------
 Calculating analytic gradient of the SCF energy
 Gradient of SCF Energy
            1           2           3           4           5           6
    1   0.0001006   0.0000606   0.0003229  -0.0003243  -0.0002568  -0.0003370
    2   0.0002793  -0.0003903   0.0014473   0.0004960  -0.0006997  -0.0003530
    3  -0.0004543   0.0003693   0.0000521  -0.0002314   0.0001633   0.0000866
            7           8           9          10          11          12
    1   0.0005518   0.0001367  -0.0001535   0.0000201   0.0001039  -0.0003518
    2   0.0000519  -0.0002155   0.0000109  -0.0001217  -0.0000598  -0.0001149
    3   0.0000303   0.0000817   0.0000666   0.0000053   0.0002368   0.0000668
           13          14          15          16          17          18
    1  -0.0001843  -0.0002430   0.0001372   0.0000878   0.0001143   0.0000559
    2  -0.0001858   0.0000309   0.0001954  -0.0003458  -0.0000011  -0.0000032
    3  -0.0002783  -0.0001581   0.0000452  -0.0000071  -0.0002219  -0.0000229
           19          20          21          22          23          24
    1  -0.0000624  -0.0000176   0.0000122   0.0000414  -0.0000125   0.0000401
    2  -0.0000276  -0.0000354  -0.0000275  -0.0000218  -0.0000190  -0.0000143
    3  -0.0000265   0.0000048  -0.0000321  -0.0000467  -0.0000205  -0.0000128
           25          26          27          28          29          30
    1  -0.0000122   0.0000001  -0.0000610   0.0000570   0.0000342  -0.0000317
    2   0.0000087   0.0000587  -0.0000230  -0.0000341   0.0000299   0.0000333
    3  -0.0000106   0.0000094  -0.0000671  -0.0000152  -0.0000040   0.0000093
           31          32          33          34          35
    1   0.0000727   0.0001040  -0.0000391   0.0000125   0.0000213
    2   0.0000571  -0.0000579   0.0000193   0.0000995  -0.0000666
    3   0.0001279   0.0001338   0.0000471   0.0001076  -0.0000345
 Max gradient component =       1.447E-03
 RMS gradient           =       2.240E-04
 Gradient time:  CPU 434.07 s  wall 32.37 s
 Geometry Optimization Parameters
   NAtoms,    NIC,     NZ,  NCons,   NDum,   NFix, NCnnct, MaxDiis
       35     275       0       0       0       0       0       0

 Cartesian Hessian Update
 Hessian Updated using BFGS Update


** GEOMETRY OPTIMIZATION IN DELOCALIZED INTERNAL COORDINATES **
   Searching for a Minimum

   Optimization Cycle:   3

                       Coordinates (Angstroms)
     ATOM                X               Y               Z
      1  C        -0.5809621513   -0.9587209565    0.3023264721
      2  C        -0.7344659993    0.5764948849    0.7532074166
      3  C         0.7782825359   -1.3291163152   -0.2852090725
      4  C         0.4890440106    1.4688141867    0.5090848204
      5  O         1.7665458299   -1.1321618449    0.6170056419
      6  O         0.9639259996   -1.8370582353   -1.3630239079
      7  O         1.0636295553    1.2687338482   -0.6932498334
      8  O         0.8906523418    2.3026623359    1.2860561482
      9  C         2.2171965477    2.0682552294   -0.9942460564
     10  C         3.0927807700   -1.4672773186    0.1772132882
     11  C        -1.7366852233   -1.1164363062   -0.7645470551
     12  C        -1.4005434737   -0.2732772362   -1.9819376751
     13  C        -1.5352649535    1.0084084485   -1.6312932882
     14  C        -1.9582549820    1.0416696346   -0.1726259049
     15  C        -2.8324811368   -0.2316607696   -0.1319107055
     16  C        -0.7963100473   -1.9774064391    1.4491172231
     17  C        -1.1160650110    0.7579622439    2.2312973896
     18  H         1.9605258453    3.1286912411   -0.9978491121
     19  H         3.3483194319   -0.8987950573   -0.7185787601
     20  H        -1.2793805446    1.8783354055   -2.2203274723
     21  H         2.5379432712    1.7473945435   -1.9833210090
     22  H         3.0030723673    1.8950171511   -0.2571111105
     23  H         3.7496217609   -1.2011944131    1.0024775973
     24  H         3.1656168560   -2.5332031656   -0.0444741930
     25  H        -2.4012207975    1.9715993010    0.1834594544
     26  H        -1.9798855392   -2.1598043533   -0.9608597792
     27  H        -2.0334028133    0.2264379285    2.4780215455
     28  H        -0.3240080051    0.4072719929    2.8945636278
     29  H        -1.2672352030    1.8167688387    2.4409143211
     30  H        -0.6522367428   -2.9894510340    1.0609670784
     31  H        -0.0887674616   -1.8244672589    2.2628585998
     32  H        -1.8070157306   -1.9227453577    1.8519380283
     33  H        -3.7108268402   -0.1465164610   -0.7730137763
     34  H        -3.1491968992   -0.5349368136    0.8664983552
     35  H        -1.0085216380   -0.6656173885   -2.9085447165
   Point Group: c1    Number of degrees of freedom:    99


   Energy is   -807.361485531

 Hessian Updated using BFGS Update

 89 Hessian modes will be used to form the next step
  Hessian Eigenvalues:
     0.002716    0.004216    0.004354    0.004824    0.005149    0.008968
     0.010776    0.010956    0.013140    0.017144    0.017204    0.020421
     0.021655    0.022467    0.026105    0.031334    0.035556    0.041857
     0.044571    0.047540    0.047786    0.049772    0.053112    0.053799
     0.054332    0.055693    0.056585    0.057138    0.058106    0.059133
     0.068047    0.072890    0.078156    0.088620    0.096068    0.101339
     0.101468    0.105926    0.106182    0.110812    0.116510    0.134327
     0.156491    0.158510    0.159938    0.159999    0.160525    0.164890
     0.208348    0.209403    0.239228    0.244840    0.247263    0.248587
     0.249788    0.249833    0.249999    0.259972    0.273713    0.278586
     0.287915    0.293414    0.297566    0.300611    0.344202    0.346584
     0.346613    0.346746    0.346890    0.346972    0.347208    0.347635
     0.348261    0.348323    0.348856    0.349104    0.349170    0.349946
     0.350261    0.350690    0.358358    0.359899    0.400286    0.402238
     0.515297    0.545080    0.555110    1.007283    1.019201

 Minimum Search - Taking Simple RFO Step
 Searching for Lamda that Minimizes Along All modes
 Value Taken    Lamda =  -0.00014706
 Step Taken.  Stepsize is  0.139418

                             Maximum     Tolerance    Cnvgd?
         Gradient           0.001187      0.000001      NO
         Displacement       0.057140      0.000001      NO
         Energy change     -0.000092      0.000000      NO


 New Cartesian Coordinates Obtained by Inverse Iteration

 Displacement from previous Coordinates is:  0.351032
 Adding empirical dispersion correction 
 ----------------------------------------------------------------
 Doing -D3(op) with
 s6 =   1.00000
 s8 =   0.78311
 a1 =   0.30000
 a2 =   4.25000
 n  =  10.00000
 -D3 energy without 3body term =     -0.0484777156 hartrees
 ----------------------------------------------------------------
             Standard Nuclear Orientation (Angstroms)
    I     Atom           X                Y                Z
 ----------------------------------------------------------------
    1      C      -0.5868081365    -0.9694904434     0.3052739594
    2      C      -0.7292915930     0.5653979423     0.7609791749
    3      C       0.7746421935    -1.3474709998    -0.2740268521
    4      C       0.5011101245     1.4466369257     0.5143323210
    5      O       1.7646444464    -1.0981682811     0.6132752930
    6      O       0.9644577759    -1.8894771308    -1.3343371361
    7      O       1.0618337157     1.2464154400    -0.6943824397
    8      O       0.8996545309     2.2925470182     1.2797934906
    9      C       2.2081473547     2.0498870916    -1.0123445088
   10      C       3.0940047941    -1.4258421600     0.1773725970
   11      C      -1.7343992656    -1.1117790386    -0.7726902175
   12      C      -1.3852717836    -0.2578897421    -1.9795755535
   13      C      -1.5187288900     1.0211614064    -1.6187422022
   14      C      -1.9493752580     1.0421841896    -0.1626197929
   15      C      -2.8298542144    -0.2279033932    -0.1389640449
   16      C      -0.8222779705    -1.9875034075     1.4481159147
   17      C      -1.1067717745     0.7474584412     2.2405278050
   18      H       1.9461668399     3.1090182804    -1.0174876320
   19      H       3.3340650225    -0.8873340556    -0.7409448063
   20      H      -1.2559499328     1.8955349287    -2.1981151445
   21      H       2.5185559738     1.7262346738    -2.0037949521
   22      H       3.0033753318     1.8836305413    -0.2837194192
   23      H       3.7510431907    -1.1172767408     0.9875503035
   24      H       3.1842835776    -2.4979542287    -0.0044464518
   25      H      -2.3896707284     1.9707408661     0.2002815035
   26      H      -1.9814216047    -2.1521140486    -0.9804807421
   27      H      -2.0259629923     0.2203015075     2.4894265805
   28      H      -0.3149120293     0.3927446276     2.9018152839
   29      H      -1.2522700220     1.8068294284     2.4512418735
   30      H      -0.6845074273    -3.0004024656     1.0598032797
   31      H      -0.1209484826    -1.8428759158     2.2685084572
   32      H      -1.8363575431    -1.9232504596     1.8411292505
   33      H      -3.7035596301    -0.1328348645    -0.7849576916
   34      H      -3.1544636681    -0.5395551966     0.8542679191
   35      H      -0.9887559953    -0.6429302464    -2.9071818398
 ----------------------------------------------------------------
 Nuclear Repulsion Energy =  1399.2857924922 hartrees
 There are       64 alpha and       64 beta electrons
 Applying Cartesian multipole field
    Component          Value
    ---------          -----
     (2,0,0)        1.00000E-11
     (0,2,0)        2.00000E-11
     (0,0,2)       -3.00000E-11
 Nucleus-field energy     =     0.0000000124 hartrees
 Requested basis set is 6-311++G(d,p)
 There are 192 shells and 500 basis functions
 A cutoff of  1.0D-11 yielded  15522 shell pairs
 There are    107820 function pairs (    115092 Cartesian)
 Smallest overlap matrix eigenvalue = 7.97E-07

 Q-Chem warning in module /fs/scratch/osu6415/qchem-kaunlao-vdw/stvman/mkSTV.C, line 281:

 Overlap eigenvalue is smaller than square root of threshold

 Linear dependence detected in AO basis
 Number of orthogonalized atomic orbitals = 499
 Maximum deviation from orthogonality = 1.810E-10
 Guess MOs from SCF MO coefficient file
 Reading MOs from coefficient file
 Reading MOs from coefficient file
 A restricted hybrid HF-DFT SCF calculation will be
 performed using Pulay DIIS extrapolation
 Exchange:     0.2000 Hartree-Fock + 0.0800 Slater + 0.7200 B88
 Correlation:  0.1900 VWN1RPA + 0.8100 LYP
 Using SG-1 standard quadrature grid
 Dispersion:   Grimme D3
 SCF converges when DIIS error is below 1.0E-08
 Geometry optimization detected.  Setting ReadMinima to 0
 Setting SaveMinima to 0
 using 20 threads for integral computing
 -------------------------------------------------------
 OpenMP Integral computing Module                
 Release: version 1.0, May 2013, Q-Chem Inc. Pittsburgh 
 -------------------------------------------------------
 -------------------------------------------------------
 OpenMP BLAS3 based DFT computing Module                
 Release: version 1.0, May 2013, Q-Chem Inc. Pittsburgh 
 -------------------------------------------------------
 ---------------------------------------
  Cycle       Energy         DIIS Error
 ---------------------------------------
    1    -807.3568919509      5.03E-04
    2    -807.3612297570      7.26E-05
    3    -807.3609741740      1.23E-04
    4    -807.3613948552      2.08E-05
    5    -807.3614036616      8.22E-06
    6    -807.3614051273      2.88E-06
    7    -807.3614052798      1.46E-06
    8    -807.3614053379      2.97E-07
    9    -807.3614053402      9.84E-08
   10    -807.3614053413      3.88E-08
   11    -807.3614053415      1.98E-08
   12    -807.3614053442      7.19E-09 Convergence criterion met
 ---------------------------------------
 SCF time:  CPU 1075.54 s  wall 66.47 s
 SCF   energy in the final basis set = -807.36140534
 Total energy in the final basis set = -807.36140534
 
 --------------------------------------------------------------
 
                    Orbital Energies (a.u.)
 --------------------------------------------------------------
 
 Alpha MOs
 -- Occupied --
-19.171 -19.170 -19.114 -19.113 -10.303 -10.302 -10.230 -10.230
-10.213 -10.212 -10.192 -10.186 -10.175 -10.174 -10.166 -10.164
-10.162  -1.118  -1.110  -1.026  -1.024  -0.898  -0.806  -0.778
 -0.743  -0.729  -0.710  -0.688  -0.669  -0.612  -0.588  -0.563
 -0.556  -0.539  -0.533  -0.516  -0.504  -0.490  -0.482  -0.472
 -0.459  -0.457  -0.446  -0.429  -0.421  -0.411  -0.408  -0.399
 -0.396  -0.383  -0.381  -0.376  -0.372  -0.358  -0.356  -0.353
 -0.342  -0.332  -0.318  -0.317  -0.307  -0.282  -0.277  -0.243
 -- Virtual --
 -0.014  -0.010  -0.003   0.001   0.003   0.009   0.012   0.016
  0.019   0.026   0.030   0.033   0.039   0.046   0.046   0.050
  0.056   0.060   0.064   0.071   0.074   0.080   0.083   0.091
  0.099   0.099   0.101   0.103   0.108   0.110   0.111   0.116
  0.118   0.120   0.122   0.125   0.127   0.132   0.135   0.138
  0.139   0.140   0.143   0.149   0.151   0.152   0.156   0.156
  0.160   0.164   0.166   0.169   0.171   0.175   0.179   0.180
  0.182   0.182   0.187   0.190   0.197   0.200   0.206   0.210
  0.212   0.214   0.217   0.221   0.223   0.228   0.231   0.233
  0.240   0.242   0.249   0.252   0.258   0.262   0.265   0.269
  0.274   0.282   0.284   0.287   0.291   0.299   0.300   0.307
  0.313   0.317   0.321   0.325   0.331   0.332   0.334   0.339
  0.344   0.345   0.351   0.351   0.353   0.361   0.364   0.368
  0.378   0.381   0.386   0.390   0.392   0.397   0.407   0.416
  0.425   0.430   0.432   0.436   0.447   0.450   0.470   0.479
  0.497   0.501   0.507   0.517   0.525   0.526   0.535   0.538
  0.546   0.556   0.561   0.567   0.588   0.594   0.602   0.609
  0.611   0.617   0.624   0.635   0.642   0.646   0.648   0.655
  0.658   0.661   0.665   0.677   0.679   0.688   0.694   0.696
  0.702   0.713   0.720   0.723   0.725   0.734   0.739   0.741
  0.743   0.754   0.758   0.762   0.771   0.778   0.790   0.791
  0.809   0.812   0.818   0.822   0.837   0.848   0.850   0.861
  0.867   0.895   0.897   0.908   0.924   0.945   0.972   0.988
  1.000   1.039   1.044   1.052   1.074   1.097   1.100   1.111
  1.122   1.126   1.144   1.163   1.172   1.185   1.196   1.208
  1.224   1.233   1.254   1.268   1.280   1.290   1.302   1.313
  1.319   1.331   1.356   1.368   1.377   1.386   1.405   1.415
  1.425   1.433   1.442   1.458   1.467   1.482   1.493   1.503
  1.506   1.519   1.523   1.532   1.536   1.559   1.566   1.570
  1.575   1.583   1.588   1.598   1.608   1.616   1.625   1.627
  1.643   1.649   1.666   1.684   1.691   1.698   1.703   1.713
  1.720   1.724   1.733   1.745   1.749   1.754   1.760   1.778
  1.784   1.791   1.803   1.812   1.815   1.826   1.836   1.844
  1.860   1.877   1.881   1.891   1.906   1.913   1.918   1.930
  1.935   1.958   1.979   1.986   1.998   2.001   2.015   2.032
  2.039   2.053   2.059   2.070   2.081   2.124   2.131   2.134
  2.151   2.159   2.174   2.183   2.194   2.209   2.231   2.236
  2.247   2.267   2.269   2.296   2.315   2.338   2.343   2.368
  2.411   2.425   2.440   2.446   2.468   2.478   2.498   2.504
  2.518   2.531   2.536   2.549   2.553   2.567   2.578   2.594
  2.595   2.603   2.611   2.627   2.639   2.651   2.664   2.671
  2.685   2.701   2.719   2.730   2.740   2.758   2.781   2.791
  2.801   2.819   2.839   2.845   2.851   2.870   2.880   2.888
  2.904   2.924   2.944   2.968   2.977   2.998   3.012   3.035
  3.040   3.047   3.066   3.074   3.087   3.099   3.115   3.135
  3.142   3.163   3.177   3.189   3.223   3.235   3.252   3.270
  3.279   3.319   3.355   3.363   3.389   3.406   3.433   3.469
  3.485   3.554   3.606   3.621   3.642   3.771   3.775   3.786
  3.787   3.792   3.811   3.831   3.844   3.859   3.873   3.881
  4.052   4.078   4.092   4.103   4.129   4.153   4.168   4.177
  4.196   4.221   4.259   4.304   4.381   4.456   5.046   5.140
  5.182   5.229   5.280   5.282   5.443   5.466   5.644   5.661
  5.893   5.921  23.815  23.835  23.847  23.877  23.892  23.909
 23.946  23.953  24.003  24.016  24.039  24.068  24.329  49.935
 49.952  50.050  50.065
 --------------------------------------------------------------
 
          Ground-State Mulliken Net Atomic Charges

     Atom                 Charge (a.u.)
  ----------------------------------------
      1 C                     0.076494
      2 C                    -0.090502
      3 C                    -0.635032
      4 C                    -0.494061
      5 O                     0.018290
      6 O                    -0.141775
      7 O                    -0.042283
      8 O                    -0.175096
      9 C                    -0.243000
     10 C                    -0.190009
     11 C                     0.438418
     12 C                    -0.524691
     13 C                    -0.299624
     14 C                     0.223768
     15 C                    -0.689326
     16 C                    -0.195341
     17 C                    -0.223811
     18 H                     0.186281
     19 H                     0.187182
     20 H                     0.137912
     21 H                     0.173348
     22 H                     0.192978
     23 H                     0.158807
     24 H                     0.177408
     25 H                     0.260224
     26 H                     0.258392
     27 H                     0.117287
     28 H                     0.200009
     29 H                     0.196251
     30 H                     0.188301
     31 H                     0.152824
     32 H                     0.150553
     33 H                     0.190820
     34 H                     0.096618
     35 H                     0.162387
  ----------------------------------------
  Sum of atomic charges =    -0.000000

 -----------------------------------------------------------------
                    Cartesian Multipole Moments
 -----------------------------------------------------------------
    Charge (ESU x 10^10)
                -0.0000
    Dipole Moment (Debye)
         X       0.3729      Y      -0.4162      Z       0.1135
       Tot       0.5702
    Quadrupole Moments (Debye-Ang)
        XX     -91.7510     XY       0.0211     YY    -105.1075
        XZ      -3.9674     YZ     -10.2151     ZZ    -106.5608
    Octopole Moments (Debye-Ang^2)
       XXX      63.9122    XXY      -3.6716    XYY       4.9434
       YYY      -2.5715    XXZ       2.4052    XYZ     -15.0048
       YYZ      -9.7537    XZZ       7.5034    YZZ       1.8930
       ZZZ      -2.1729
    Hexadecapole Moments (Debye-Ang^3)
      XXXX   -1774.1735   XXXY     -17.9466   XXYY    -511.2360
      XYYY     -14.3509   YYYY   -1354.1170   XXXZ     -12.1225
      XXYZ     -16.3991   XYYZ     -10.5885   YYYZ     -60.2508
      XXZZ    -490.7611   XYZZ       7.8772   YYZZ    -417.7742
      XZZZ      -7.3583   YZZZ     -18.0212   ZZZZ    -997.2252
 -----------------------------------------------------------------
 Calculating analytic gradient of the SCF energy
 Gradient of SCF Energy
            1           2           3           4           5           6
    1  -0.0000143  -0.0004543  -0.0001628   0.0021822  -0.0000760   0.0004847
    2  -0.0001274   0.0007342   0.0002775  -0.0025326   0.0007930  -0.0002674
    3   0.0003160  -0.0006453  -0.0005254   0.0015458  -0.0005726   0.0001013
            7           8           9          10          11          12
    1  -0.0007596  -0.0007102   0.0000841   0.0000044   0.0000553   0.0000723
    2  -0.0001583   0.0009072   0.0000795   0.0000403   0.0001399   0.0001542
    3  -0.0001491  -0.0005640  -0.0001094  -0.0001226  -0.0000905  -0.0000425
           13          14          15          16          17          18
    1   0.0001841  -0.0000636  -0.0001922  -0.0003750   0.0000501   0.0000370
    2   0.0002143  -0.0002034  -0.0000706   0.0002220  -0.0000207  -0.0000352
    3   0.0001924  -0.0000257  -0.0000693   0.0006538   0.0000739  -0.0000398
           19          20          21          22          23          24
    1   0.0000283   0.0000079  -0.0000347  -0.0000097   0.0000016  -0.0000718
    2   0.0000059   0.0000054  -0.0000504  -0.0000520  -0.0000257  -0.0000267
    3  -0.0000367   0.0000088  -0.0000203  -0.0000052  -0.0000369  -0.0000056
           25          26          27          28          29          30
    1   0.0000316  -0.0000557   0.0000808  -0.0000003   0.0000118   0.0000019
    2   0.0000152  -0.0000566   0.0000447   0.0000366  -0.0000014   0.0000225
    3   0.0000318   0.0000617   0.0000513  -0.0000078   0.0000423   0.0000068
           31          32          33          34          35
    1  -0.0001109  -0.0001451   0.0000107   0.0000064  -0.0000990
    2  -0.0000173   0.0000045  -0.0000471  -0.0000778   0.0000739
    3  -0.0000911   0.0000240  -0.0000047  -0.0000415   0.0000962
 Max gradient component =       2.533E-03
 RMS gradient           =       4.347E-04
 Gradient time:  CPU 435.23 s  wall 30.44 s
 Geometry Optimization Parameters
   NAtoms,    NIC,     NZ,  NCons,   NDum,   NFix, NCnnct, MaxDiis
[...]
    -0.00006781     -0.00008986     -0.00001173
    -0.00124120      0.00176537     -0.00093070
     0.00033601      0.00237092     -0.00089218
    -0.01644035     -0.07311198     -0.01355070
    -0.00091143      0.00192955      0.00188827
    -0.00011115     -0.00037574     -0.00006858
    -0.00431205      0.01039014      0.00407113
    -0.00456602     -0.00334136      0.01237555
     0.01224627     -0.02282631     -0.02613720
     0.00152754     -0.00326884      0.00046928
     0.00471556     -0.01895361     -0.00025434
    -0.00409887     -0.00976648      0.01613918
     0.00122744      0.00678650     -0.00368592
    -0.00051873      0.00055051      0.00069713
     0.01070496     -0.00240364      0.01048223
    -0.00126889     -0.00007305     -0.00171521
     0.00104456     -0.01863814     -0.00387124
     0.05261171     -0.11070479     -0.04329398
     0.19846695      0.84581685      0.16309327
     0.00020498     -0.00054908      0.00006800
    -0.01318218      0.00571347     -0.01158985
    -0.00438612      0.03281644      0.00625187
    -0.03255867      0.24156141      0.09154009
     0.12442793      0.02407802      0.13146776
    -0.23752982      0.01337362      0.08571181
    -0.00219929     -0.00151843     -0.00113119
     0.04593080      0.04302535     -0.14479115
     0.01289263     -0.01627692     -0.02917272
vibration 90
     0.00002634     -0.00016798      0.00000711
     0.00016519     -0.00011007      0.00005353
     0.00020766      0.00008899      0.00005979
    -0.00017270      0.00010435     -0.00006073
    -0.00011519      0.00014051     -0.00007390
    -0.00004218      0.00006401     -0.00004658
    -0.00017116      0.00024294     -0.00013841
    -0.00006023      0.00010606     -0.00005853
     0.04938841     -0.05942912      0.03557891
    -0.00381514     -0.03764789      0.01558763
    -0.00060062     -0.00237731     -0.00050743
    -0.00002157      0.00007790      0.00009221
     0.00004264      0.00013203     -0.00009336
     0.00015043     -0.00029811     -0.00019814
    -0.00243413      0.00164626     -0.00678849
     0.00028157     -0.00245736     -0.00324435
    -0.00183272     -0.00011107     -0.00053210
    -0.15753583      0.62269389      0.01075385
     0.06282410      0.15237063     -0.25127802
    -0.00079087     -0.00193085      0.00116393
     0.01353324     -0.01573261     -0.00488214
    -0.43928349      0.09488161     -0.42636172
    -0.00009576     -0.00701605      0.00385999
    -0.01754226      0.30016656      0.06284011
    -0.00203987      0.00417858      0.00174242
     0.00665607      0.02801521      0.00551077
     0.01060035      0.00652932     -0.00286023
     0.01136100     -0.00538122      0.00940103
    -0.00054506     -0.00004100     -0.00001682
    -0.00349241      0.02512842      0.00957309
     0.01998189      0.00400666      0.02179035
    -0.02024729      0.00100764      0.00702656
     0.04475706     -0.00439643      0.03248423
    -0.01529008     -0.01543533      0.04952020
     0.00055302     -0.00061143     -0.00095962
vibration 91
     0.00053730     -0.00029723     -0.00020909
     0.00040329      0.00013068     -0.00021761
    -0.00009003     -0.00011468     -0.00021383
     0.00010540     -0.00026347     -0.00050958
    -0.00000480     -0.00001076      0.00011762
    -0.00000698      0.00006440      0.00017452
    -0.00001992     -0.00000158      0.00017217
    -0.00002637      0.00010733      0.00023607
    -0.00428106      0.00521452     -0.00278441
     0.00055486      0.00399598     -0.00152502
    -0.00089252     -0.00071762     -0.00106245
    -0.00003438      0.00041049      0.00031036
     0.00012350     -0.00020371     -0.00012553
     0.00088639     -0.00307325     -0.00204638
    -0.02639223      0.02021478     -0.08269326
     0.00196076     -0.01282747     -0.01803570
    -0.01584812     -0.01167862     -0.00379338
     0.01366587     -0.05406677     -0.00096890
    -0.00683073     -0.01626502      0.02692828
    -0.00005754     -0.00373196      0.00329146
    -0.00037726      0.00045248     -0.00230533
     0.03724190     -0.00801146      0.03611942
    -0.00129376      0.00014908     -0.00210696
     0.00178249     -0.03133681     -0.00652800
    -0.01665591      0.03559172      0.01519848
     0.00397413      0.01327151      0.00430747
     0.13002426      0.07714090     -0.03385841
     0.07295756     -0.03784428      0.06211186
    -0.01816164      0.09872131      0.01824415
    -0.01857509      0.12843215      0.04888443
     0.11084736      0.02274528      0.12309554
    -0.11892062      0.00705547      0.04121792
     0.51583343     -0.05082232      0.37373120
    -0.19363828     -0.19354083      0.62427283
     0.00070166      0.00011889      0.00159351
vibration 92
    -0.00001283     -0.00020416      0.00005908
    -0.00001010      0.00007878     -0.00004983
     0.00003453      0.00014476     -0.00004717
    -0.00006114     -0.00005383      0.00016154
    -0.00000688      0.00027751     -0.00007942
     0.00000734      0.00013441     -0.00004800
     0.00016926     -0.00010510      0.00000330
     0.00005822     -0.00005624     -0.00000054
    -0.02437503      0.02856140     -0.01695215
    -0.00932274     -0.07840212      0.03225010
    -0.00022272     -0.00097218     -0.00018733
    -0.00000300      0.00001845      0.00000447
    -0.00000448     -0.00001687     -0.00000241
    -0.00010500      0.00018540      0.00005617
    -0.00029187      0.00011890     -0.00052083
    -0.00051545     -0.00062349     -0.00076716
     0.00065710     -0.00029699      0.00016484
     0.07563430     -0.29655510     -0.00486776
     0.13344586      0.32140886     -0.53340731
     0.00017476      0.00030332     -0.00009328
    -0.00423567      0.00478382     -0.00524009
     0.21682039     -0.04631101      0.21060709
     0.01190057     -0.00959441      0.02363535
    -0.03520731      0.61594416      0.12770050
     0.00103470     -0.00208842     -0.00080071
     0.00270429      0.01130264      0.00225882
    -0.00304062     -0.00195636      0.00080899
    -0.00430785      0.00185567     -0.00352333
    -0.00037452      0.00358496      0.00067206
    -0.00094245      0.00658364      0.00249001
     0.00650447      0.00125044      0.00716007
     0.00048452     -0.00022206     -0.00040445
     0.00437880     -0.00043348      0.00317403
    -0.00097889     -0.00102506      0.00316626
    -0.00001155     -0.00006302     -0.00006865
vibration 93
    -0.00041380      0.00030647      0.00026563
     0.00085629     -0.00088968      0.00024293
     0.00004668      0.00005580     -0.00009091
    -0.00015202     -0.00004566     -0.00004642
    -0.00000966     -0.00001696      0.00002376
     0.00000425     -0.00001730     -0.00000868
     0.00003169     -0.00000308      0.00000956
    -0.00027500      0.00007885      0.00012877
     0.00068647     -0.00083998      0.00062926
    -0.00001249      0.00022745     -0.00014336
    -0.00029177     -0.00134610     -0.00018384
    -0.00007284      0.00006493      0.00018237
     0.00004172      0.00044320     -0.00014932
     0.00318654     -0.00701451     -0.00306514
    -0.00017470      0.00098884     -0.00318773
    -0.01932965      0.00150466     -0.00065125
     0.05937970     -0.06425310      0.01945777
    -0.00228370      0.00900455      0.00019935
    -0.00042506     -0.00101162      0.00164582
    -0.00076463     -0.00360879      0.00216325
     0.00062544     -0.00063309     -0.00130728
    -0.00641642      0.00141272     -0.00627143
     0.00029589      0.00021011      0.00043011
     0.00014251     -0.00199805     -0.00045668
    -0.04040483      0.08331828      0.03055266
     0.00356586      0.01630449      0.00330794
    -0.13508385     -0.09993171      0.04180017
    -0.49402132      0.21330929     -0.40570720
    -0.07635886      0.65568550      0.12875701
    -0.00149731     -0.02383681     -0.01050380
     0.06702470      0.01746563      0.08125119
     0.16544376     -0.01237025     -0.06412978
     0.01221049     -0.00116516      0.00851430
    -0.00940349     -0.00965642      0.03027610
     0.00037544     -0.00018550     -0.00084015
vibration 94
     0.00072423      0.00009216      0.00051419
    -0.00037698     -0.00079555     -0.00026200
     0.00001871      0.00001577      0.00061705
     0.00009194     -0.00031799     -0.00079478
     0.00004604      0.00007178     -0.00027163
    -0.00000414     -0.00004871     -0.00018590
    -0.00004719      0.00004861      0.00011797
    -0.00008251      0.00017142      0.00035240
     0.00023997      0.00006183      0.00080045
    -0.00026789     -0.00079891      0.00064030
     0.00006604      0.00079292     -0.00012193
    -0.00000363     -0.00005459      0.00000914
    -0.00000882      0.00003603      0.00005167
     0.00048318     -0.00089845     -0.00007395
     0.00078861     -0.00214526      0.00746821
     0.06260993      0.00957243      0.02474101
    -0.03564850     -0.05130995      0.00172459
    -0.00009503      0.00037946      0.00010961
     0.00265887      0.00545022     -0.00915412
    -0.00022722      0.00002756     -0.00023752
     0.00193459     -0.00202369     -0.00585566
    -0.00422335      0.00093757     -0.00404332
     0.00006980     -0.00025512      0.00006509
    -0.00013365      0.00439026      0.00106699
    -0.00611764      0.01089667      0.00405824
    -0.00215972     -0.00779875     -0.00234035
     0.46012355      0.26436604     -0.11704476
     0.02976231     -0.02837448      0.03066090
    -0.06264822      0.38380009      0.07265693
     0.02323206     -0.06283452     -0.02189564
    -0.37496437     -0.08713752     -0.43666458
    -0.39757276      0.03561649      0.16136928
    -0.03214346      0.00308420     -0.02316089
     0.02162528      0.02063388     -0.06942242
     0.00034827     -0.00028686     -0.00084673
vibration 95
    -0.00087182      0.00011844      0.00003121
    -0.00050528     -0.00043428     -0.00037776
    -0.00009136     -0.00003117     -0.00060218
     0.00006186     -0.00030755     -0.00082470
     0.00001944     -0.00002897      0.00022784
     0.00001597      0.00003387      0.00015318
    -0.00001449      0.00003164      0.00011462
     0.00002670      0.00017617      0.00034246
    -0.00016791      0.00075730      0.00114022
     0.00019250      0.00004687     -0.00015459
    -0.00008827     -0.00147094      0.00008824
     0.00010988     -0.00008225     -0.00014232
     0.00011227      0.00026629     -0.00013056
     0.00009694     -0.00000570      0.00033830
     0.00065446     -0.00436308      0.01582883
    -0.05985864     -0.00247042     -0.01236372
    -0.05617535     -0.03644886     -0.00384478
     0.00159091     -0.00585258      0.00013602
    -0.00096062     -0.00164995      0.00273508
    -0.00069301     -0.00129114      0.00060797
     0.00359795     -0.00377315     -0.01155706
    -0.00269135      0.00079143     -0.00242261
    -0.00069861     -0.00027923     -0.00085504
    -0.00016222      0.00095793      0.00010435
    -0.00049538      0.00019213      0.00048374
     0.00372985      0.01574467      0.00360735
     0.53800085      0.31668974     -0.13927748
     0.17914603     -0.09489884      0.15388842
    -0.04302191      0.22089136      0.04101011
    -0.01050396     -0.00511646     -0.00449944
     0.27995419      0.06755867      0.33140650
     0.45184656     -0.03803464     -0.17962423
    -0.05740035      0.00551342     -0.04086724
     0.04620489      0.04762872     -0.15663728
    -0.00069517      0.00051472      0.00053079
vibration 96
     0.00000060     -0.00000156     -0.00000679
     0.00001777      0.00002634      0.00005565
     0.00001835     -0.00002517     -0.00008308
    -0.00083556     -0.00095091     -0.00031051
    -0.00003857      0.00000515      0.00001839
    -0.00002076      0.00000723      0.00004739
    -0.00002826      0.00019930      0.00027043
     0.00030030      0.00041951      0.00024459
     0.00973905     -0.04227739     -0.08395820
     0.00160360      0.00099868      0.00362282
    -0.00001370     -0.00003288     -0.00001458
    -0.00000980      0.00003716      0.00007276
    -0.00002764     -0.00010777      0.00007106
     0.00007716     -0.00014392     -0.00008683
    -0.00003228     -0.00002399      0.00007272
    -0.00039852     -0.00006516     -0.00011615
    -0.00104050     -0.00102456     -0.00006324
    -0.08206562      0.29776211     -0.01721103
     0.00358658      0.00950986     -0.01364565
     0.00045973      0.00111078     -0.00088264
    -0.25300570      0.27038241      0.81408167
     0.22382640     -0.06440531      0.19778726
    -0.02270124     -0.01033709     -0.02873402
     0.00082053     -0.01081298     -0.00103913
    -0.00091101      0.00177308      0.00073017
     0.00016405      0.00061089      0.00016922
     0.01126588      0.00661565     -0.00286870
     0.00267666     -0.00164116      0.00244058
    -0.00140511      0.00751396      0.00147417
    -0.00013181      0.00065999      0.00019564
     0.00203946      0.00044023      0.00238420
     0.00289703     -0.00027096     -0.00117437
     0.00019710      0.00003090      0.00014685
     0.00025481      0.00027382     -0.00102947
     0.00032250     -0.00020397     -0.00063761
vibration 97
     0.00000850      0.00002016      0.00007655
    -0.00000822     -0.00000303      0.00000689
     0.00079040     -0.00053585     -0.00086985
    -0.00007448     -0.00012197     -0.00011841
     0.00016359      0.00016618      0.00027941
    -0.00025424      0.00024240      0.00044884
    -0.00000134      0.00003993      0.00003536
     0.00005172      0.00005726      0.00006036
     0.00066211     -0.00210923     -0.00343680
    -0.03738507     -0.02938578     -0.08166470
    -0.00000911     -0.00007554     -0.00001106
    -0.00002207      0.00002937      0.00006799
     0.00000423      0.00002917     -0.00002177
     0.00004262     -0.00007870     -0.00003222
     0.00000783      0.00002487     -0.00008114
     0.00017123     -0.00007688     -0.00008476
    -0.00016971     -0.00012020     -0.00004901
    -0.00422836      0.01564784     -0.00059755
    -0.07350596     -0.17694006      0.25225342
    -0.00009937     -0.00039456      0.00026156
    -0.01086421      0.01175122      0.03553820
     0.00685926     -0.00192290      0.00563389
     0.53271683      0.23688594      0.68096424
    -0.02163459      0.28876313      0.03687930
    -0.00050157      0.00102639      0.00038901
     0.00030124      0.00097984      0.00018899
     0.00145300      0.00082833     -0.00036219
     0.00079322     -0.00044819      0.00072584
    -0.00023177      0.00117824      0.00026445
    -0.00003065      0.00097142      0.00028977
    -0.00020088     -0.00003593     -0.00017155
    -0.00209086      0.00012251      0.00091942
     0.00022616      0.00000036      0.00016238
    -0.00026544     -0.00027350      0.00086122
     0.00036963     -0.00034462     -0.00069637
vibration 98
     0.00007230      0.00013206      0.00003103
    -0.00010353      0.00013297     -0.00007961
    -0.00003648     -0.00012502     -0.00021617
    -0.00020842     -0.00015500      0.00034776
     0.00004914      0.00003588      0.00004442
     0.00005662      0.00001056      0.00014370
    -0.00004518      0.00011618     -0.00022573
     0.00003729      0.00003019     -0.00004535
     0.00019070     -0.00001374      0.00015807
    -0.00006357     -0.00005684     -0.00003162
    -0.00042824     -0.00142730     -0.00019708
     0.01180906     -0.00883928     -0.02844313
    -0.01815647     -0.06535444      0.04198356
     0.00201710     -0.00347599     -0.00310373
     0.00040677      0.00060939     -0.00027506
    -0.00010422     -0.00001606      0.00001332
    -0.00003801     -0.00003365     -0.00005207
     0.00005743      0.00028819      0.00013956
     0.00009307      0.00010465     -0.00032034
     0.21819653      0.73438318     -0.48987279
     0.00026008     -0.00026609     -0.00049306
    -0.00156701      0.00035828     -0.00148744
     0.00047779      0.00020712      0.00063460
    -0.00001141      0.00032353     -0.00000169
    -0.02012878      0.03967646      0.01977310
     0.00431054      0.01571175      0.00258916
     0.00031734      0.00025076     -0.00019589
     0.00111587     -0.00051400      0.00144971
    -0.00014526      0.00035850      0.00010528
    -0.00003493      0.00001996     -0.00006706
     0.00014526      0.00020151      0.00002720
     0.00084951     -0.00004270     -0.00034364
    -0.00154818     -0.00016657     -0.00122479
    -0.00098700     -0.00191668      0.00289171
    -0.14767062      0.14410702      0.34703468
vibration 99
     0.00013424     -0.00001926      0.00026162
    -0.00002864      0.00001034      0.00015231
     0.00013969     -0.00021138     -0.00049047
     0.00017785      0.00006766     -0.00024948
     0.00000032      0.00005008      0.00008646
     0.00004039      0.00000193      0.00033951
    -0.00002761     -0.00004317      0.00014348
    -0.00003625     -0.00000778      0.00004496
    -0.00005331     -0.00005928     -0.00012948
    -0.00001794      0.00002533     -0.00007252
    -0.00091380     -0.00403592      0.00142629
     0.02912625     -0.03535417     -0.07053332
     0.00742038      0.03590596     -0.01686002
    -0.00076545      0.00127304      0.00214082
    -0.00091086     -0.00013172      0.00082640
     0.00014943     -0.00000423      0.00002983
     0.00013423      0.00001972      0.00001089
    -0.00015362      0.00037213     -0.00005856
    -0.00016599     -0.00030656      0.00045098
    -0.09461714     -0.32308217      0.21139463
    -0.00040599      0.00030021      0.00089007
     0.00068110     -0.00016302      0.00067178
     0.00016498      0.00013758      0.00033313
    -0.00004942     -0.00010577     -0.00007083
     0.00699174     -0.01454228     -0.00894632
     0.00799425      0.03478567      0.00189666
    -0.00104718     -0.00065681      0.00039603
    -0.00090886      0.00047036     -0.00083966
     0.00013589     -0.00007081     -0.00000493
     0.00009260      0.00022484      0.00007330
    -0.00134643     -0.00011278     -0.00187667
    -0.00132344      0.00002581      0.00072696
     0.00276457     -0.00042750      0.00190107
     0.00154775      0.00097025     -0.00439274
    -0.33186744      0.33209635      0.78176597
[INT]
    1.156241
    2.185618
    0.821576
    1.460432
    0.241607
    0.158795
    0.154604
    1.754001
    2.160482
    4.335592
    0.718272
    1.190471
    7.612179
    3.544745
    3.169651
    0.482563
    3.024105
    0.239536
    4.860216
    3.560765
   10.127892
    0.165966
    6.154263
    3.348548
    2.887476
    4.476353
   11.956284
   25.225747
    6.381700
    6.856102
    2.737226
    8.767923
    0.850947
   10.102527
   30.778392
    5.864571
    0.663401
    5.197010
    3.086163
    6.492823
    0.444720
    1.459437
    7.380301
   13.907960
    2.978006
    3.856423
   25.556438
    4.247260
    5.238164
  124.570734
   67.654485
   22.915730
    2.177833
   28.258547
    1.019134
    5.859052
    2.595854
   27.950784
  392.874228
   48.111813
    1.995569
    1.970922
    6.197059
   21.183148
    7.449492
    3.536429
   13.084808
    7.731120
   12.481338
    5.585265
    8.064697
   11.523412
   14.919598
    3.383536
    5.904782
    0.087804
    1.446700
   28.036670
    2.618886
  290.937983
  199.221619
   18.908526
   18.916491
   49.515915
   11.387430
   31.045684
   25.930056
   18.885548
   25.616895
   30.987472
   41.292566
    8.192966
   12.321726
    9.210316
   30.470558
    9.420517
   12.214221
    6.798203
    6.487334

======= END OF MOLDEN-FORMATTED INPUT FILE =======


        *************************************************************
        *                                                           *
        *  Thank you very much for using Q-Chem.  Have a nice day.  *
        *                                                           *
        *************************************************************


