r0062.ten.osc.edu 10.25.152
Q-Chem Developer Version! Running on 10.25.152.*
                  Welcome to Q-Chem
     A Quantum Leap Into The Future Of Chemistry


 Q-Chem 5.0, Q-Chem, Inc., Pleasanton, CA (2017)

 Yihan Shao,  Zhengting Gan,  E. Epifanovsky,  A. T. B. Gilbert,  M. Wormit,  
 J. Kussmann,  A. W. Lange,  A. Behn,  Jia Deng,  Xintian Feng,  D. Ghosh,  
 M. Goldey,  P. R. Horn,  L. D. Jacobson,  I. Kaliman,  T. Kus,  A. Landau,  
 Jie Liu,  E. I. Proynov,  R. M. Richard,  R. P. Steele,  E. J. Sundstrom,  
 H. L. Woodcock III,  P. M. Zimmerman,  D. Zuev,  B. Albrecht,  E. Alguire,  
 S. A. Baeppler,  Z. Benda,  Y. A. Bernard,  E. J. Berquist,  K. B. Bravaya,  
 D. Casanova,  Chun-Min Chang,  Yunqing Chen,  A. Chien,  K. D. Closser,  
 M. P. Coons,  S. Dasgupta,  M. Diedenhofen,  Hainam Do,  R. G. Edgar,  
 Po-Tung Fang,  S. Fatehi,  Qingguo Feng,  Qinghui Ge,  A. Ghysels,  
 J. Gomes,  J. Gonthier,  A. Gunina,  M. W. D. Hanson-Heine,  
 P. H. P. Harbach,  A. W. Hauser,  J. E. Herr,  E. G. Hohenstein,  
 Z. C. Holden,  Kerwin Hui,  T.-C. Jagau,  Hyunjun Ji,  B. Kaduk,  
 K. Khistyaev,  Jaehoon Kim,  P. Klunzinger,  K. Koh,  D. Kosenkov,  
 T. Kowalczyk,  C. M. Krauter,  A. Kunitsa,  Ka Un Lao,  A. Laurent,  
 K. V. Lawler,  Joonho Lee,  D. Lefrancois,  S. Lehtola,  D. S. Levine,  
 Yi-Pei Li,  You-Sheng Lin,  Fenglai Liu,  E. Livshits,  A. Luenser,  
 P. Manohar,  E. Mansoor,  S. F. Manzer,  Shan-Ping Mao,  Yuezhi Mao,  
 N. Mardirossian,  A. V. Marenich,  L. A. Martinez-Martinez,  S. A. Maurer,  
 N. J. Mayhall,  S. C. McKenzie,  J.-M. Mewes,  A. F. Morrison,  K. Nanda,  
 T. S. Nguyen-Beck,  R. Olivares-Amaya,  J. A. Parkhill,  T. M. Perrine,  
 F. Plasser,  S. Prager,  A. Prociuk,  D. R. Rehn,  F. Rob,  M. Schneider,  
 N. Sergueev,  S. M. Sharada,  S. Sharma,  D. W. Small,  T. Stauch,  
 T. Stein,  Yu-Chuan Su,  A. J. W. Thom,  T. Tsuchimochi,  L. Vogt,  
 O. Vydrov,  M. A. Watson,  J. Wenzel,  M. de Wergifosse,  T. A. Wesolowski,  
 A. White,  J. Witte,  A. Yamada,  Jun Yang,  K. Yao,  S. Yeganeh,  
 S. R. Yost,  Zhi-Qiang You,  A. Zech,  Igor Ying Zhang,  Xing Zhang,  
 Yan Zhao,  Ying Zhu,  B. R. Brooks,  G. K. L. Chan,  C. J. Cramer,  
 M. S. Gordon,  W. J. Hehre,  A. Klamt,  M. W. Schmidt,  C. D. Sherrill,  
 D. G. Truhlar,  A. Aspuru-Guzik,  R. Baer,  A. T. Bell,  N. A. Besley,  
 Jeng-Da Chai,  A. Dreuw,  B. D. Dunietz,  T. R. Furlani,  Chao-Ping Hsu,  
 Yousung Jung,  Jing Kong,  D. S. Lambrecht,  WanZhen Liang,  C. Ochsenfeld,  
 V. A. Rassolov,  L. V. Slipchenko,  J. E. Subotnik,  T. Van Voorhis,  
 J. M. Herbert,  A. I. Krylov,  P. M. W. Gill,  M. Head-Gordon

 Contributors to earlier versions of Q-Chem not listed above: 
 R. D. Adamson,  B. Austin,  J. Baker,  G. J. O. Beran,  K. Brandhorst,  
 S. T. Brown,  E. F. C. Byrd,  A. K. Chakraborty,  C.-L. Cheng,  
 Siu Hung Chien,  D. M. Chipman,  D. L. Crittenden,  H. Dachsel,  
 R. A. DiStasio Jr.,  R. J. Doerksen,  A. D. Dutoi,  L. Fusti-Molnar,  
 W. A. Goddard III,  A. Golubeva-Zadorozhnaya,  S. R. Gwaltney,  G. Hawkins,  
 A. Heyden,  S. Hirata,  G. Kedziora,  F. J. Keil,  C. Kelley,  Jihan Kim,  
 R. A. King,  R. Z. Khaliullin,  P. P. Korambath,  W. Kurlancheek,  
 A. M. Lee,  M. S. Lee,  S. V. Levchenko,  Ching Yeh Lin,  D. Liotard,  
 R. C. Lochan,  I. Lotan,  P. E. Maslen,  N. Nair,  D. P. O'Neill,  
 D. Neuhauser,  E. Neuscamman,  C. M. Oana,  R. Olson,  B. Peters,  
 R. Peverati,  P. A. Pieniazek,  Y. M. Rhee,  J. Ritchie,  M. A. Rohrdanz,  
 E. Rosta,  N. J. Russ,  H. F. Schaefer III,  N. E. Schultz,  N. Shenvi,  
 A. C. Simmonett,  A. Sodt,  D. Stuck,  K. S. Thanthiriwatte,  V. Vanovschi,  
 Tao Wang,  A. Warshel,  C. F. Williams,  Q. Wu,  X. Xu,  W. Zhang

 Please cite Q-Chem as follows:
 Y. Shao et al., Mol. Phys. 113, 184-215 (2015)
 DOI: 10.1080/00268976.2014.952696

 Q-Chem 5.0.1 for Intel X86 EM64T Linux

 Parts of Q-Chem use Armadillo 5.200.1 (Boston Tea Smuggler).
 http://arma.sourceforge.net/

 Q-Chem begins on Tue Oct 24 07:47:14 2017  

Host: r0062.ten.osc.edu
0

     Scratch files written to /tmp/pbstmp.1324373/03//
Processing $rem in /users/PAS0291/osu6415/.qchemrc.
molden_format             true

Checking the input file for inconsistencies... 	...done.

--------------------------------------------------------------
User input:
--------------------------------------------------------------
$molecule
0 1
C 0.89133284 -0.72476776 -0.46814613
C 0.49930186 0.83061593 -0.67171951
C -0.15886090 -1.69344506 0.08669408
C -0.99904928 1.15902660 -0.57758459
O -1.42908965 -1.28251186 -0.03563915
O 0.13716821 -2.77735253 0.53487727
O -1.39247435 1.54981271 0.65078167
O -1.75057025 1.14567415 -1.52277421
C -2.79410061 1.82644488 0.79752729
C -2.45059268 -2.20359474 0.38759998
C 2.04295362 -0.63146040 0.62257324
C 1.36749357 -0.25812307 1.93386753
C 0.97218113 1.01277737 1.82435588
C 1.39046870 1.51234582 0.44618846
C 2.70524685 0.71240866 0.27422831
C 1.39602839 -1.40762723 -1.75764587
C 0.90694591 1.38377463 -2.05805259
H -3.09520167 2.65364454 0.15277087
H -2.37827615 -2.38365786 1.46110535
H 0.38314653 1.58191368 2.52746408
H -2.93157387 2.08639264 1.84521304
H -3.38134635 0.94353061 0.54054868
H -3.39297278 -1.72077914 0.13830839
H -2.35239601 -3.15038359 -0.14464996
H 1.44138954 2.59479011 0.32840449
H 2.66491190 -1.52381575 0.63550371
H 1.96533364 1.24767839 -2.26760851
H 0.32716804 0.91694932 -2.85227051
H 0.69687131 2.45595928 -2.09091572
H 1.66232521 -2.44187374 -1.53520386
H 0.62784446 -1.41220173 -2.53485290
H 2.27907856 -0.90872028 -2.15608128
H 3.46083135 0.99832981 1.00715288
H 3.14061699 0.75489244 -0.72373824
H 1.16001477 -0.95105073 2.73771935
$end

$rem
sym_ignore      true
jobtype         ts
method          b3lyp
basis           6-311++G(d,p)
dft_d           d3_op
mem_total       62000
MEM_STATIC      4000
ao2mo_disk      350000
max_scf_cycles  200
geom_opt_max_cycles 1000
geom_opt_tol_displacement 1
GEOM_OPT_TOL_GRADIENT       1
GEOM_OPT_TOL_ENERGY         1
$end

--------------------------------------------------------------
 Adding empirical dispersion correction 
 ----------------------------------------------------------------
 Doing -D3(op) with
 s6 =   1.00000
 s8 =   0.78311
 a1 =   0.30000
 a2 =   4.25000
 n  =  10.00000
 -D3 energy without 3body term =     -0.0472326613 hartrees
 ----------------------------------------------------------------
             Standard Nuclear Orientation (Angstroms)
    I     Atom           X                Y                Z
 ----------------------------------------------------------------
    1      C       0.8913328400    -0.7247677600    -0.4681461300
    2      C       0.4993018600     0.8306159300    -0.6717195100
    3      C      -0.1588609000    -1.6934450600     0.0866940800
    4      C      -0.9990492800     1.1590266000    -0.5775845900
    5      O      -1.4290896500    -1.2825118600    -0.0356391500
    6      O       0.1371682100    -2.7773525300     0.5348772700
    7      O      -1.3924743500     1.5498127100     0.6507816700
    8      O      -1.7505702500     1.1456741500    -1.5227742100
    9      C      -2.7941006100     1.8264448800     0.7975272900
   10      C      -2.4505926800    -2.2035947400     0.3875999800
   11      C       2.0429536200    -0.6314604000     0.6225732400
   12      C       1.3674935700    -0.2581230700     1.9338675300
   13      C       0.9721811300     1.0127773700     1.8243558800
   14      C       1.3904687000     1.5123458200     0.4461884600
   15      C       2.7052468500     0.7124086600     0.2742283100
   16      C       1.3960283900    -1.4076272300    -1.7576458700
   17      C       0.9069459100     1.3837746300    -2.0580525900
   18      H      -3.0952016700     2.6536445400     0.1527708700
   19      H      -2.3782761500    -2.3836578600     1.4611053500
   20      H       0.3831465300     1.5819136800     2.5274640800
   21      H      -2.9315738700     2.0863926400     1.8452130400
   22      H      -3.3813463500     0.9435306100     0.5405486800
   23      H      -3.3929727800    -1.7207791400     0.1383083900
   24      H      -2.3523960100    -3.1503835900    -0.1446499600
   25      H       1.4413895400     2.5947901100     0.3284044900
   26      H       2.6649119000    -1.5238157500     0.6355037100
   27      H       1.9653336400     1.2476783900    -2.2676085100
   28      H       0.3271680400     0.9169493200    -2.8522705100
   29      H       0.6968713100     2.4559592800    -2.0909157200
   30      H       1.6623252100    -2.4418737400    -1.5352038600
   31      H       0.6278444600    -1.4122017300    -2.5348529000
   32      H       2.2790785600    -0.9087202800    -2.1560812800
   33      H       3.4608313500     0.9983298100     1.0071528800
   34      H       3.1406169900     0.7548924400    -0.7237382400
   35      H       1.1600147700    -0.9510507300     2.7377193500
 ----------------------------------------------------------------
 Nuclear Repulsion Energy =  1390.8534963493 hartrees
 There are       64 alpha and       64 beta electrons
 Requested basis set is 6-311++G(d,p)
 There are 192 shells and 500 basis functions

 Total QAlloc Memory Limit  62000 MB
 Mega-Array Size      3911 MB
 MEM_STATIC part      4000 MB
 A cutoff of  1.0D-11 yielded  15473 shell pairs
 There are    107499 function pairs (    114771 Cartesian)
 
 -------------------------------------------------------
 OpenMP Integral Computing Module                       
 Release: version 1.0, May 2013, Q-Chem Inc. Pittsburgh 
 -------------------------------------------------------
 Integral Job Info:
 Integral job number is                      11
 Integral operator is                         1
 short-range coefficients                     0
 long-range coefficients              100000000
 Omega coefficients                           0
 if combine SR and LR in K                    0
 Integral screening is                        0
 Integral computing path is                   2
 max size of driver memory is            800000
 size of driver memory is                593474
 size of scratch memory is              2361544
 max col of scratch BK array               1296
 max len of scratch array in speh3          155
 max len of scratch index in speh4           18
 max int batch size is                      520
 min int batch size is                       52
 fixed nKL is                                52
 max L of basis functions is                  2
 order of int derivative is                   0
 number of shells is                        192
 number of basis is                         517
 number of cartesian basis is               517
 number of contracted shell pairs         15473
 number of primitive shell pairs          33983
 maxK2 (contraction) of shell pair           36
 max number of K2 of shell pair               1
 max number of CS2 of shell pair           2880
 max number of PS2 of shell pair           4920
 mem total for path MDJ                  188440
 -------------------------------------------------------
 Smallest overlap matrix eigenvalue = 7.45E-07

 Q-Chem warning in module /fs/scratch/osu6415/qchem-kaunlao-vdw/stvman/mkSTV.C, line 281:

 Overlap eigenvalue is smaller than square root of threshold

 Linear dependence detected in AO basis
 Number of orthogonalized atomic orbitals = 499
 Maximum deviation from orthogonality = 1.333E-10

 Scale SEOQF with 1.000000e-01/1.000000e-01/1.000000e-01

 Standard Electronic Orientation quadrupole field applied
 Nucleus-field energy     =     0.0000000151 hartrees
 Guess from superposition of atomic densities
 Warning:  Energy on first SCF cycle will be non-variational
 A restricted hybrid HF-DFT SCF calculation will be
 performed using Pulay DIIS extrapolation
 Exchange:     0.2000 Hartree-Fock + 0.0800 Slater + 0.7200 B88
 Correlation:  0.1900 VWN1RPA + 0.8100 LYP
 Using SG-1 standard quadrature grid
 Dispersion:   Grimme D3
 SCF converges when DIIS error is below 1.0E-08
 using 20 threads for integral computing
 -------------------------------------------------------
 OpenMP Integral computing Module                
 Release: version 1.0, May 2013, Q-Chem Inc. Pittsburgh 
 -------------------------------------------------------
 -------------------------------------------------------
 OpenMP BLAS3 based DFT computing Module                
 Release: version 1.0, May 2013, Q-Chem Inc. Pittsburgh 
 -------------------------------------------------------
 ---------------------------------------
  Cycle       Energy         DIIS Error
 ---------------------------------------
    1    -810.8893270412      2.82E-02
    2    -806.9869601451      3.70E-03
    3    -806.4784475762      5.99E-03
    4    -807.3055530269      1.42E-03
    5    -807.3524421283      3.68E-04
    6    -807.3551662478      1.41E-04
    7    -807.3556294159      3.51E-05
    8    -807.3556559928      1.55E-05
    9    -807.3556630892      2.43E-06
   10    -807.3556632229      1.17E-06
   11    -807.3556632565      4.09E-07
   12    -807.3556632603      1.48E-07
   13    -807.3556632607      5.33E-08
   14    -807.3556632607      1.27E-08
   15    -807.3556632654      3.87E-09 Convergence criterion met
 ---------------------------------------
 SCF time:  CPU 1312.12 s  wall 83.61 s
 SCF   energy in the final basis set = -807.35566327
 Total energy in the final basis set = -807.35566327
 
 --------------------------------------------------------------
 
                    Orbital Energies (a.u.)
 --------------------------------------------------------------
 
 Alpha MOs
 -- Occupied --
-19.176 -19.168 -19.113 -19.106 -10.304 -10.300 -10.231 -10.228
-10.214 -10.212 -10.189 -10.186 -10.173 -10.170 -10.169 -10.166
-10.164  -1.119  -1.109  -1.027  -1.020  -0.898  -0.803  -0.778
 -0.744  -0.730  -0.711  -0.688  -0.668  -0.611  -0.586  -0.564
 -0.558  -0.541  -0.534  -0.515  -0.501  -0.490  -0.479  -0.474
 -0.462  -0.453  -0.446  -0.430  -0.421  -0.411  -0.407  -0.398
 -0.391  -0.390  -0.381  -0.376  -0.371  -0.357  -0.351  -0.350
 -0.340  -0.328  -0.320  -0.315  -0.305  -0.283  -0.275  -0.247
 -- Virtual --
 -0.014  -0.008  -0.004   0.002   0.004   0.007   0.010   0.016
  0.019   0.024   0.030   0.034   0.043   0.044   0.046   0.049
  0.050   0.060   0.069   0.070   0.075   0.083   0.086   0.087
  0.091   0.099   0.104   0.108   0.109   0.112   0.113   0.115
  0.119   0.120   0.122   0.124   0.127   0.130   0.135   0.137
  0.140   0.143   0.144   0.146   0.150   0.153   0.154   0.156
  0.161   0.162   0.164   0.168   0.172   0.175   0.176   0.180
  0.182   0.184   0.188   0.190   0.194   0.201   0.203   0.210
  0.211   0.215   0.217   0.218   0.222   0.225   0.231   0.234
  0.239   0.241   0.245   0.250   0.255   0.261   0.265   0.265
  0.271   0.279   0.284   0.290   0.296   0.298   0.303   0.309
  0.313   0.318   0.319   0.328   0.329   0.333   0.336   0.341
  0.346   0.347   0.349   0.354   0.359   0.362   0.365   0.371
  0.372   0.375   0.383   0.386   0.393   0.396   0.408   0.417
  0.418   0.421   0.429   0.434   0.442   0.452   0.469   0.473
  0.485   0.493   0.508   0.512   0.515   0.525   0.527   0.530
  0.539   0.545   0.556   0.569   0.582   0.594   0.600   0.602
  0.609   0.615   0.617   0.636   0.641   0.644   0.651   0.652
  0.655   0.664   0.675   0.679   0.683   0.686   0.699   0.700
  0.709   0.714   0.720   0.724   0.729   0.731   0.733   0.737
  0.744   0.759   0.762   0.769   0.775   0.785   0.795   0.804
  0.807   0.809   0.819   0.822   0.831   0.845   0.852   0.865
  0.872   0.892   0.899   0.913   0.918   0.930   0.953   0.973
  1.001   1.020   1.030   1.043   1.059   1.072   1.083   1.099
  1.120   1.134   1.143   1.153   1.167   1.195   1.215   1.226
  1.227   1.244   1.254   1.275   1.287   1.300   1.309   1.314
  1.318   1.324   1.334   1.362   1.372   1.383   1.408   1.418
  1.431   1.435   1.443   1.452   1.459   1.469   1.475   1.483
  1.496   1.508   1.523   1.529   1.536   1.554   1.568   1.570
  1.580   1.584   1.589   1.594   1.597   1.606   1.615   1.629
  1.648   1.656   1.672   1.683   1.687   1.699   1.705   1.712
  1.716   1.731   1.735   1.739   1.748   1.757   1.765   1.768
  1.777   1.791   1.801   1.805   1.816   1.826   1.835   1.848
  1.859   1.877   1.883   1.902   1.913   1.925   1.926   1.929
  1.946   1.949   1.957   1.973   1.988   1.998   2.003   2.025
  2.036   2.047   2.052   2.077   2.093   2.098   2.121   2.134
  2.141   2.155   2.177   2.178   2.205   2.222   2.226   2.229
  2.251   2.264   2.270   2.293   2.317   2.333   2.338   2.386
  2.408   2.411   2.442   2.454   2.464   2.470   2.499   2.514
  2.517   2.526   2.538   2.541   2.555   2.559   2.567   2.583
  2.589   2.593   2.613   2.622   2.637   2.642   2.648   2.674
  2.681   2.703   2.711   2.731   2.746   2.768   2.778   2.792
  2.817   2.831   2.835   2.856   2.876   2.878   2.888   2.907
  2.915   2.927   2.936   2.965   2.979   2.998   3.026   3.027
  3.041   3.054   3.070   3.074   3.092   3.108   3.125   3.136
  3.141   3.161   3.168   3.195   3.208   3.223   3.256   3.264
  3.275   3.315   3.333   3.344   3.388   3.401   3.456   3.468
  3.495   3.539   3.604   3.624   3.645   3.769   3.778   3.782
  3.785   3.796   3.811   3.832   3.852   3.863   3.871   3.882
  4.059   4.064   4.080   4.102   4.128   4.143   4.173   4.183
  4.190   4.248   4.259   4.289   4.369   4.459   5.067   5.102
  5.141   5.172   5.275   5.285   5.466   5.481   5.633   5.656
  5.911   5.918  23.798  23.844  23.844  23.869  23.883  23.908
 23.940  23.948  23.994  24.011  24.029  24.055  24.330  49.931
 49.966  50.043  50.070
 --------------------------------------------------------------
 
          Ground-State Mulliken Net Atomic Charges

     Atom                 Charge (a.u.)
  ----------------------------------------
      1 C                     0.334596
      2 C                    -0.058895
      3 C                    -0.541595
      4 C                    -0.549181
      5 O                    -0.080200
      6 O                    -0.179466
      7 O                     0.075469
      8 O                    -0.153083
      9 C                    -0.144440
     10 C                    -0.223707
     11 C                     0.277747
     12 C                    -0.436754
     13 C                    -0.381769
     14 C                     0.324045
     15 C                    -0.679691
     16 C                    -0.455880
     17 C                    -0.271853
     18 H                     0.174290
     19 H                     0.193157
     20 H                     0.154322
     21 H                     0.148663
     22 H                     0.166126
     23 H                     0.154871
     24 H                     0.176219
     25 H                     0.262886
     26 H                     0.269270
     27 H                     0.113610
     28 H                     0.192246
     29 H                     0.169466
     30 H                     0.193458
     31 H                     0.171206
     32 H                     0.160454
     33 H                     0.194042
     34 H                     0.093844
     35 H                     0.156526
  ----------------------------------------
  Sum of atomic charges =    -0.000000

 -----------------------------------------------------------------
                    Cartesian Multipole Moments
 -----------------------------------------------------------------
    Charge (ESU x 10^10)
                -0.0000
    Dipole Moment (Debye)
         X      -0.5865      Y       1.1806      Z       0.8504
       Tot       1.5687
    Quadrupole Moments (Debye-Ang)
        XX     -93.9041     XY       3.6772     YY    -104.9376
        XZ      -9.2324     YZ       4.3375     ZZ    -104.3831
    Octopole Moments (Debye-Ang^2)
       XXX     -50.1857    XXY     -10.0569    XYY     -26.8969
       YYY      27.0510    XXZ      13.1757    XYZ      -7.4949
       YYZ      -3.8839    XZZ      -5.3522    YZZ      -7.6080
       ZZZ       9.4996
    Hexadecapole Moments (Debye-Ang^3)
      XXXX   -1752.6629   XXXY      10.5978   XXYY    -502.9850
      XYYY      28.6703   YYYY   -1546.0467   XXXZ     -28.5544
      XXYZ      18.1477   XYYZ      -8.6059   YYYZ      48.4323
      XXZZ    -489.8318   XYZZ       4.5232   YYZZ    -409.4748
      XZZZ     -12.8367   YZZZ      24.4144   ZZZZ    -977.2619
 -----------------------------------------------------------------
 Calculating analytic gradient of the SCF energy
 Gradient of SCF Energy
            1           2           3           4           5           6
    1   0.0004775  -0.0003572  -0.0000159   0.0001045   0.0000298  -0.0001174
    2   0.0000618  -0.0002019   0.0007784   0.0003058   0.0000030  -0.0006184
    3   0.0008368  -0.0006542   0.0012093  -0.0001589  -0.0000388  -0.0012252
            7           8           9          10          11          12
    1   0.0000123  -0.0000545  -0.0000403  -0.0000060  -0.0000164  -0.0000104
    2  -0.0000185  -0.0002080  -0.0000124  -0.0000241   0.0000154  -0.0000459
    3   0.0000246   0.0000103  -0.0000150  -0.0000486  -0.0000045   0.0000339
           13          14          15          16          17          18
    1  -0.0000136   0.0000294   0.0000324  -0.0000237   0.0000389  -0.0000033
    2  -0.0000125  -0.0000439   0.0000218  -0.0000181  -0.0000149  -0.0000043
    3   0.0000171   0.0000208   0.0000168  -0.0000290   0.0000333  -0.0000008
           19          20          21          22          23          24
    1  -0.0000134  -0.0000297  -0.0000211  -0.0000061  -0.0000005   0.0000069
    2  -0.0000170  -0.0000208  -0.0000268  -0.0000182  -0.0000103  -0.0000054
    3  -0.0000482   0.0000101  -0.0000059  -0.0000203  -0.0000535  -0.0000593
           25          26          27          28          29          30
    1  -0.0000503  -0.0000152   0.0000135   0.0000136   0.0000213   0.0000529
    2   0.0000066  -0.0000212   0.0000398   0.0000365   0.0000351   0.0000283
    3   0.0000468  -0.0000340   0.0000224   0.0000094   0.0000282  -0.0000032
           31          32          33          34          35
    1   0.0000123   0.0000058  -0.0000319  -0.0000052  -0.0000191
    2   0.0000073   0.0000419  -0.0000028  -0.0000045  -0.0000318
    3   0.0000011  -0.0000139   0.0000601   0.0000396  -0.0000072
 Max gradient component =       1.225E-03
 RMS gradient           =       2.336E-04
 Gradient time:  CPU 430.02 s  wall 31.77 s
 Geometry Optimization Parameters
   NAtoms,    NIC,     NZ,  NCons,   NDum,   NFix, NCnnct, MaxDiis
       35     275       0       0       0       0       0       0


** GEOMETRY OPTIMIZATION IN DELOCALIZED INTERNAL COORDINATES **
   Searching for a Transition State

   Optimization Cycle:   1

                       Coordinates (Angstroms)
     ATOM                X               Y               Z
      1  C         0.8913328400   -0.7247677600   -0.4681461300
      2  C         0.4993018600    0.8306159300   -0.6717195100
      3  C        -0.1588609000   -1.6934450600    0.0866940800
      4  C        -0.9990492800    1.1590266000   -0.5775845900
      5  O        -1.4290896500   -1.2825118600   -0.0356391500
      6  O         0.1371682100   -2.7773525300    0.5348772700
      7  O        -1.3924743500    1.5498127100    0.6507816700
      8  O        -1.7505702500    1.1456741500   -1.5227742100
      9  C        -2.7941006100    1.8264448800    0.7975272900
     10  C        -2.4505926800   -2.2035947400    0.3875999800
     11  C         2.0429536200   -0.6314604000    0.6225732400
     12  C         1.3674935700   -0.2581230700    1.9338675300
     13  C         0.9721811300    1.0127773700    1.8243558800
     14  C         1.3904687000    1.5123458200    0.4461884600
     15  C         2.7052468500    0.7124086600    0.2742283100
     16  C         1.3960283900   -1.4076272300   -1.7576458700
     17  C         0.9069459100    1.3837746300   -2.0580525900
     18  H        -3.0952016700    2.6536445400    0.1527708700
     19  H        -2.3782761500   -2.3836578600    1.4611053500
     20  H         0.3831465300    1.5819136800    2.5274640800
     21  H        -2.9315738700    2.0863926400    1.8452130400
     22  H        -3.3813463500    0.9435306100    0.5405486800
     23  H        -3.3929727800   -1.7207791400    0.1383083900
     24  H        -2.3523960100   -3.1503835900   -0.1446499600
     25  H         1.4413895400    2.5947901100    0.3284044900
     26  H         2.6649119000   -1.5238157500    0.6355037100
     27  H         1.9653336400    1.2476783900   -2.2676085100
     28  H         0.3271680400    0.9169493200   -2.8522705100
     29  H         0.6968713100    2.4559592800   -2.0909157200
     30  H         1.6623252100   -2.4418737400   -1.5352038600
     31  H         0.6278444600   -1.4122017300   -2.5348529000
     32  H         2.2790785600   -0.9087202800   -2.1560812800
     33  H         3.4608313500    0.9983298100    1.0071528800
     34  H         3.1406169900    0.7548924400   -0.7237382400
     35  H         1.1600147700   -0.9510507300    2.7377193500
   Point Group: c1    Number of degrees of freedom:    99


   Energy is   -807.355663265


 Attempting to Generate Delocalized Internal Coordinates

 99 Hessian modes will be used to form the next step
  Hessian Eigenvalues:
     0.002924    0.003363    0.004225    0.004310    0.004857    0.008916
     0.009702    0.010474    0.010859    0.012735    0.016762    0.017323
     0.020273    0.022559    0.023498    0.028574    0.032728    0.042434
     0.044571    0.045457    0.047173    0.048961    0.050065    0.052656
     0.053833    0.054139    0.056792    0.056929    0.057003    0.059610
     0.067875    0.073113    0.078068    0.088448    0.094404    0.101321
     0.101366    0.105941    0.106177    0.111263    0.117329    0.130607
     0.157282    0.159030    0.160000    0.160000    0.160000    0.160000
     0.160000    0.160000    0.160000    0.160000    0.160000    0.160000
     0.160000    0.160000    0.163484    0.205281    0.210773    0.239050
     0.245960    0.249654    0.249691    0.249841    0.250000    0.250000
     0.250000    0.250000    0.270806    0.278836    0.281707    0.288038
     0.291778    0.296905    0.344608    0.344928    0.346788    0.346893
     0.347087    0.347090    0.347207    0.347469    0.348099    0.348478
     0.348557    0.349856    0.350248    0.350666    0.350687    0.351051
     0.358286    0.360594    0.397099    0.401139    0.515316    0.555068
     0.570620    1.000997    1.010857
**WARNING** Hessian does not have the Desired Local Structure

 Transition State Search - Taking P-RFO Step
 Searching for Lamda that Maximizes Along the Lowest mode
 Value Taken    Lamda =   0.00292445
 Searching for Lamda that Minimizes Along All other modes
 Value Taken    Lamda =  -0.00031949
 Calculated Step too Large.  Step scaled by  0.000824
 Step Taken.  Stepsize is  0.300000

                             Maximum     Tolerance    Cnvgd?
         Gradient           0.000849      0.000001      NO
         Displacement       0.140451      0.000001      NO
         Energy change     *********      0.000000      NO


 New Cartesian Coordinates Obtained by Inverse Iteration

 Displacement from previous Coordinates is:  0.330446
 Adding empirical dispersion correction 
 ----------------------------------------------------------------
 Doing -D3(op) with
 s6 =   1.00000
 s8 =   0.78311
 a1 =   0.30000
 a2 =   4.25000
 n  =  10.00000
 -D3 energy without 3body term =     -0.0472150344 hartrees
 ----------------------------------------------------------------
             Standard Nuclear Orientation (Angstroms)
    I     Atom           X                Y                Z
 ----------------------------------------------------------------
    1      C       0.8923471801    -0.7241339380    -0.4673279473
    2      C       0.4984720924     0.8306228720    -0.6721298562
    3      C      -0.1569012131    -1.6937500861     0.0876609331
    4      C      -1.0003329850     1.1572243757    -0.5789311096
    5      O      -1.4275869384    -1.2845100118    -0.0355988326
    6      O       0.1402762230    -2.7769462676     0.5368027062
    7      O      -1.3948353617     1.5483320506     0.6489871972
    8      O      -1.7513803391     1.1423175265    -1.5244738635
    9      C      -2.7968750924     1.8233170768     0.7948760777
   10      C      -2.4481359530    -2.2065747298     0.3878038008
   11      C       2.0433251361    -0.6286568288     0.6238825184
   12      C       1.3667685710    -0.2552849712     1.9346016245
   13      C       0.9699239481     1.0150476093     1.8240487858
   14      C       1.3882501603     1.5142140959     0.4457475900
   15      C       2.7041080994     0.7158041704     0.2749545997
   16      C       1.3985174639    -1.4072273196    -1.7561255199
   17      C       0.9060890668     1.3833634277    -2.0586376624
   18      H      -3.0986943174     2.6497153584     0.1494281733
   19      H      -2.3761237969    -2.3857677779     1.4614752075
   20      H       0.3798417637     1.5839191306     2.5264925557
   21      H      -2.9351760599     2.0837856571     1.8423235117
   22      H      -3.3828983959     0.9395033232     0.5381990384
   23      H      -3.3910011807    -1.7251303307     0.1376960217
   24      H      -2.3484806713    -3.1536246183    -0.1437101106
   25      H       1.4378766670     2.5966419117     0.3272619144
   26      H       2.6663908528    -1.5202258058     0.6377107493
   27      H       1.9404857855     1.1606575478    -2.3097272645
   28      H       0.2604848801     0.9909889430    -2.8422752317
   29      H       0.7909085416     2.4703428581    -2.0580201310
   30      H       1.6659946744    -2.4409920276    -1.5328616523
   31      H       0.6307163790    -1.4132794792    -2.5337006654
   32      H       2.2811383266    -0.9074873273    -2.1544681704
   33      H       3.4589828412     1.0031592133     1.0080497304
   34      H       3.1399045216     0.7581630623    -0.7228311947
   35      H       1.1597679602    -0.9479325910     2.7388179962
 ----------------------------------------------------------------
 Nuclear Repulsion Energy =  1390.8603332730 hartrees
 There are       64 alpha and       64 beta electrons
 Applying Cartesian multipole field
    Component          Value
    ---------          -----
     (2,0,0)        1.00000E-11
     (0,2,0)        2.00000E-11
     (0,0,2)       -3.00000E-11
 Nucleus-field energy     =     0.0000000151 hartrees
 Requested basis set is 6-311++G(d,p)
 There are 192 shells and 500 basis functions
 A cutoff of  1.0D-11 yielded  15473 shell pairs
 There are    107534 function pairs (    114810 Cartesian)
 Smallest overlap matrix eigenvalue = 7.48E-07

 Q-Chem warning in module /fs/scratch/osu6415/qchem-kaunlao-vdw/stvman/mkSTV.C, line 281:

 Overlap eigenvalue is smaller than square root of threshold

 Linear dependence detected in AO basis
 Number of orthogonalized atomic orbitals = 499
 Maximum deviation from orthogonality = 1.765E-10
 Guess MOs from SCF MO coefficient file
 Reading MOs from coefficient file
 Reading MOs from coefficient file
 A restricted hybrid HF-DFT SCF calculation will be
 performed using Pulay DIIS extrapolation
 Exchange:     0.2000 Hartree-Fock + 0.0800 Slater + 0.7200 B88
 Correlation:  0.1900 VWN1RPA + 0.8100 LYP
 Using SG-1 standard quadrature grid
 Dispersion:   Grimme D3
 SCF converges when DIIS error is below 1.0E-08
 Geometry optimization detected.  Setting ReadMinima to 0
 Setting SaveMinima to 0
 using 20 threads for integral computing
 -------------------------------------------------------
 OpenMP Integral computing Module                
 Release: version 1.0, May 2013, Q-Chem Inc. Pittsburgh 
 -------------------------------------------------------
 -------------------------------------------------------
 OpenMP BLAS3 based DFT computing Module                
 Release: version 1.0, May 2013, Q-Chem Inc. Pittsburgh 
 -------------------------------------------------------
 ---------------------------------------
  Cycle       Energy         DIIS Error
 ---------------------------------------
    1    -807.3506976232      2.12E-04
    2    -807.3553989401      3.13E-05
    3    -807.3553890830      4.29E-05
    4    -807.3554424014      8.86E-06
    5    -807.3554437859      4.39E-06
    6    -807.3554441950      1.18E-06
    7    -807.3554442288      3.87E-07
    8    -807.3554442327      9.53E-08
    9    -807.3554442325      2.91E-08
   10    -807.3554442323      1.21E-08
   11    -807.3554442285      4.70E-09 Convergence criterion met
 ---------------------------------------
 SCF time:  CPU 952.20 s  wall 59.48 s
 SCF   energy in the final basis set = -807.35544423
 Total energy in the final basis set = -807.35544423
 
 --------------------------------------------------------------
 
                    Orbital Energies (a.u.)
 --------------------------------------------------------------
 
 Alpha MOs
 -- Occupied --
-19.176 -19.168 -19.113 -19.106 -10.304 -10.300 -10.231 -10.228
-10.214 -10.212 -10.189 -10.186 -10.173 -10.170 -10.169 -10.166
-10.164  -1.119  -1.109  -1.027  -1.020  -0.898  -0.803  -0.778
 -0.744  -0.730  -0.711  -0.688  -0.668  -0.611  -0.586  -0.564
 -0.558  -0.541  -0.535  -0.515  -0.501  -0.490  -0.479  -0.474
 -0.462  -0.453  -0.446  -0.430  -0.421  -0.411  -0.408  -0.398
 -0.391  -0.390  -0.381  -0.375  -0.371  -0.356  -0.350  -0.350
 -0.339  -0.327  -0.320  -0.315  -0.305  -0.283  -0.275  -0.247
 -- Virtual --
 -0.014  -0.008  -0.004   0.002   0.004   0.007   0.010   0.016
  0.020   0.024   0.030   0.034   0.043   0.044   0.046   0.049
  0.050   0.060   0.068   0.070   0.075   0.083   0.086   0.088
  0.091   0.099   0.104   0.108   0.109   0.112   0.113   0.115
  0.119   0.120   0.122   0.124   0.127   0.130   0.135   0.137
  0.140   0.143   0.145   0.146   0.150   0.153   0.154   0.156
  0.161   0.162   0.164   0.168   0.172   0.175   0.176   0.179
  0.182   0.184   0.188   0.191   0.194   0.200   0.203   0.210
  0.211   0.215   0.218   0.220   0.222   0.225   0.231   0.234
  0.239   0.240   0.244   0.250   0.255   0.261   0.265   0.266
  0.270   0.279   0.284   0.289   0.296   0.299   0.304   0.309
  0.313   0.318   0.319   0.327   0.330   0.333   0.336   0.341
  0.346   0.347   0.350   0.353   0.358   0.362   0.364   0.371
  0.372   0.376   0.382   0.386   0.393   0.397   0.407   0.417
  0.418   0.421   0.426   0.433   0.442   0.453   0.469   0.473
  0.486   0.491   0.508   0.513   0.515   0.525   0.528   0.530
  0.540   0.544   0.557   0.570   0.581   0.592   0.601   0.603
  0.608   0.616   0.617   0.636   0.640   0.647   0.650   0.652
  0.657   0.664   0.673   0.679   0.684   0.685   0.699   0.703
  0.710   0.715   0.721   0.723   0.729   0.731   0.733   0.737
  0.744   0.759   0.763   0.768   0.774   0.788   0.795   0.804
  0.807   0.810   0.820   0.823   0.832   0.846   0.852   0.865
  0.871   0.893   0.897   0.912   0.916   0.932   0.952   0.973
  1.000   1.020   1.029   1.041   1.058   1.073   1.081   1.100
  1.119   1.135   1.143   1.156   1.164   1.194   1.214   1.224
  1.227   1.242   1.252   1.275   1.287   1.301   1.307   1.313
  1.318   1.324   1.335   1.360   1.373   1.384   1.407   1.420
  1.431   1.436   1.442   1.449   1.458   1.469   1.478   1.492
  1.501   1.507   1.525   1.529   1.541   1.552   1.566   1.569
  1.581   1.585   1.589   1.594   1.595   1.608   1.616   1.628
  1.645   1.652   1.672   1.680   1.686   1.699   1.705   1.710
  1.716   1.731   1.734   1.739   1.747   1.756   1.765   1.769
  1.777   1.792   1.800   1.805   1.816   1.824   1.835   1.848
  1.860   1.876   1.885   1.903   1.908   1.924   1.926   1.931
  1.946   1.952   1.955   1.973   1.987   1.996   2.003   2.022
  2.035   2.045   2.052   2.074   2.093   2.102   2.112   2.132
  2.142   2.156   2.179   2.181   2.208   2.220   2.225   2.228
  2.251   2.266   2.272   2.292   2.318   2.333   2.339   2.386
  2.407   2.410   2.441   2.454   2.464   2.471   2.499   2.515
  2.516   2.527   2.539   2.540   2.556   2.558   2.566   2.583
  2.589   2.592   2.615   2.623   2.640   2.643   2.647   2.674
  2.681   2.702   2.712   2.732   2.750   2.774   2.778   2.792
  2.818   2.821   2.835   2.857   2.873   2.879   2.888   2.906
  2.914   2.921   2.936   2.960   2.979   2.998   3.023   3.030
  3.043   3.056   3.071   3.075   3.092   3.108   3.125   3.137
  3.140   3.161   3.170   3.197   3.208   3.222   3.256   3.264
  3.274   3.311   3.331   3.342   3.389   3.400   3.455   3.468
  3.498   3.538   3.603   3.624   3.645   3.768   3.782   3.782
  3.785   3.797   3.810   3.832   3.850   3.865   3.869   3.883
  4.059   4.064   4.080   4.102   4.128   4.143   4.174   4.183
  4.190   4.247   4.259   4.289   4.369   4.460   5.066   5.102
  5.141   5.169   5.275   5.283   5.466   5.481   5.633   5.656
  5.911   5.917  23.798  23.843  23.844  23.869  23.883  23.907
 23.940  23.948  23.992  24.011  24.031  24.054  24.330  49.931
 49.965  50.043  50.071
 --------------------------------------------------------------
 
          Ground-State Mulliken Net Atomic Charges

     Atom                 Charge (a.u.)
  ----------------------------------------
      1 C                     0.334413
      2 C                    -0.022354
      3 C                    -0.544320
      4 C                    -0.575021
      5 O                    -0.080785
      6 O                    -0.179145
      7 O                     0.075505
      8 O                    -0.158719
      9 C                    -0.141743
     10 C                    -0.223424
     11 C                     0.280438
     12 C                    -0.438706
     13 C                    -0.374743
     14 C                     0.310593
     15 C                    -0.677287
     16 C                    -0.448041
     17 C                    -0.280242
     18 H                     0.174000
     19 H                     0.193101
     20 H                     0.154530
     21 H                     0.148662
     22 H                     0.166095
     23 H                     0.154603
     24 H                     0.176223
     25 H                     0.262800
     26 H                     0.268906
     27 H                     0.114160
     28 H                     0.195488
     29 H                     0.165693
     30 H                     0.193596
     31 H                     0.171343
     32 H                     0.158465
     33 H                     0.195604
     34 H                     0.094169
     35 H                     0.156142
  ----------------------------------------
  Sum of atomic charges =    -0.000000

 -----------------------------------------------------------------
                    Cartesian Multipole Moments
 -----------------------------------------------------------------
    Charge (ESU x 10^10)
                -0.0000
    Dipole Moment (Debye)
         X      -0.6013      Y       1.1768      Z       0.8496
       Tot       1.5711
    Quadrupole Moments (Debye-Ang)
        XX     -93.9075     XY       3.6609     YY    -104.9403
        XZ      -9.2047     YZ       4.3342     ZZ    -104.3907
    Octopole Moments (Debye-Ang^2)
       XXX     -50.2798    XXY     -10.1115    XYY     -26.9157
       YYY      26.9579    XXZ      13.1560    XYZ      -7.3918
       YYZ      -3.8405    XZZ      -5.4226    YZZ      -7.5645
       ZZZ       9.4830
    Hexadecapole Moments (Debye-Ang^3)
      XXXX   -1753.1216   XXXY       9.7419   XXYY    -503.1101
      XYYY      29.1362   YYYY   -1545.6784   XXXZ     -28.6308
      XXYZ      18.3522   XYYZ      -8.7057   YYYZ      48.9345
      XXZZ    -489.6090   XYZZ       4.1738   YYZZ    -409.7529
      XZZZ     -12.7560   YZZZ      24.3231   ZZZZ    -977.1940
 -----------------------------------------------------------------
 Calculating analytic gradient of the SCF energy
 Gradient of SCF Energy
            1           2           3           4           5           6
    1   0.0006283  -0.0003524  -0.0000332   0.0002003   0.0000304  -0.0001103
    2   0.0001311  -0.0001383   0.0008014  -0.0000599  -0.0000054  -0.0006331
    3   0.0009056  -0.0003365   0.0012168  -0.0003896  -0.0000254  -0.0012246
            7           8           9          10          11          12
    1   0.0000022   0.0002661  -0.0000251  -0.0000045   0.0000334  -0.0000211
    2   0.0000293  -0.0002462  -0.0000079  -0.0000246  -0.0000462  -0.0000427
    3   0.0001302  -0.0001991  -0.0000249  -0.0000513  -0.0000099   0.0000128
           13          14          15          16          17          18
    1  -0.0000611   0.0000719   0.0000262  -0.0000530  -0.0008794  -0.0000113
    2   0.0000018   0.0001585  -0.0000573   0.0001586   0.0001838  -0.0000052
    3   0.0000300  -0.0001708   0.0001799  -0.0000464  -0.0000134   0.0000009
           19          20          21          22          23          24
    1  -0.0000142  -0.0000229  -0.0000199  -0.0000074  -0.0000001   0.0000080
    2  -0.0000163  -0.0000210  -0.0000269  -0.0000198  -0.0000097  -0.0000048
    3  -0.0000482   0.0000094  -0.0000067  -0.0000238  -0.0000540  -0.0000590
           25          26          27          28          29          30
    1  -0.0000343  -0.0000143   0.0001374  -0.0003774   0.0004277   0.0000757
    2   0.0000799  -0.0000187  -0.0011230   0.0009002  -0.0001781   0.0000439
    3   0.0000761  -0.0000230   0.0000274  -0.0000459  -0.0000284   0.0000000
           31          32          33          34          35
    1   0.0000766  -0.0000163  -0.0000348   0.0001355  -0.0000268
    2  -0.0001857   0.0004950   0.0000036  -0.0000899  -0.0000264
    3   0.0000650  -0.0001095   0.0000538   0.0001871  -0.0000046
 Max gradient component =       1.225E-03
 RMS gradient           =       3.042E-04
 Gradient time:  CPU 427.66 s  wall 31.01 s
 Geometry Optimization Parameters
   NAtoms,    NIC,     NZ,  NCons,   NDum,   NFix, NCnnct, MaxDiis
       35     275       0       0       0       0       0       0

 Cartesian Hessian Update
 Hessian Updated using Powell/Murtagh-Sargent Update
  Mixing factors:     0.000025 Powell
                      0.999975 Murtagh-Sargent


** GEOMETRY OPTIMIZATION IN DELOCALIZED INTERNAL COORDINATES **
   Searching for a Transition State

   Optimization Cycle:   2

                       Coordinates (Angstroms)
     ATOM                X               Y               Z
      1  C         0.8923471801   -0.7241339380   -0.4673279473
      2  C         0.4984720924    0.8306228720   -0.6721298562
      3  C        -0.1569012131   -1.6937500861    0.0876609331
      4  C        -1.0003329850    1.1572243757   -0.5789311096
      5  O        -1.4275869384   -1.2845100118   -0.0355988326
      6  O         0.1402762230   -2.7769462676    0.5368027062
      7  O        -1.3948353617    1.5483320506    0.6489871972
      8  O        -1.7513803391    1.1423175265   -1.5244738635
      9  C        -2.7968750924    1.8233170768    0.7948760777
     10  C        -2.4481359530   -2.2065747298    0.3878038008
     11  C         2.0433251361   -0.6286568288    0.6238825184
     12  C         1.3667685710   -0.2552849712    1.9346016245
     13  C         0.9699239481    1.0150476093    1.8240487858
     14  C         1.3882501603    1.5142140959    0.4457475900
     15  C         2.7041080994    0.7158041704    0.2749545997
     16  C         1.3985174639   -1.4072273196   -1.7561255199
     17  C         0.9060890668    1.3833634277   -2.0586376624
     18  H        -3.0986943174    2.6497153584    0.1494281733
     19  H        -2.3761237969   -2.3857677779    1.4614752075
     20  H         0.3798417637    1.5839191306    2.5264925557
     21  H        -2.9351760599    2.0837856571    1.8423235117
     22  H        -3.3828983959    0.9395033232    0.5381990384
     23  H        -3.3910011807   -1.7251303307    0.1376960217
     24  H        -2.3484806713   -3.1536246183   -0.1437101106
     25  H         1.4378766670    2.5966419117    0.3272619144
     26  H         2.6663908528   -1.5202258058    0.6377107493
     27  H         1.9404857855    1.1606575478   -2.3097272645
     28  H         0.2604848801    0.9909889430   -2.8422752317
     29  H         0.7909085416    2.4703428581   -2.0580201310
     30  H         1.6659946744   -2.4409920276   -1.5328616523
     31  H         0.6307163790   -1.4132794792   -2.5337006654
     32  H         2.2811383266   -0.9074873273   -2.1544681704
     33  H         3.4589828412    1.0031592133    1.0080497304
     34  H         3.1399045216    0.7581630623   -0.7228311947
     35  H         1.1597679602   -0.9479325910    2.7388179962
   Point Group: c1    Number of degrees of freedom:    99


   Energy is   -807.355444229

 Hessian Updated using Powell/Murtagh-Sargent Update
  Mixing factors:     0.949144 Powell
                      0.050856 Murtagh-Sargent

 98 Hessian modes will be used to form the next step
  Hessian Eigenvalues:
     0.002388    0.003854    0.004307    0.004856    0.005583    0.008916
     0.009705    0.010474    0.010859    0.012735    0.016764    0.017345
     0.020276    0.022563    0.023499    0.028724    0.032736    0.042435
     0.044612    0.045458    0.047201    0.048980    0.050206    0.052675
     0.053838    0.054151    0.056793    0.056932    0.057004    0.059612
     0.067880    0.073117    0.078085    0.088448    0.094412    0.101321
     0.101366    0.105941    0.106177    0.111263    0.117373    0.130924
     0.157287    0.159030    0.160000    0.160000    0.160000    0.160000
     0.160000    0.160000    0.160000    0.160000    0.160000    0.160000
     0.160000    0.160631    0.163634    0.205286    0.210809    0.239051
     0.246007    0.249691    0.249769    0.249843    0.250000    0.250000
     0.250067    0.270806    0.278848    0.281715    0.288124    0.291778
     0.296905    0.344630    0.344931    0.346788    0.346893    0.347087
     0.347090    0.347207    0.347469    0.348101    0.348496    0.348560
     0.349856    0.350248    0.350666    0.350687    0.351095    0.358286
     0.360594    0.397099    0.401139    0.515317    0.555072    0.570621
     1.000997    1.010858
**WARNING** Hessian does not have the Desired Local Structure

 Transition State Search - Taking P-RFO Step
 Searching for Lamda that Maximizes Along the Lowest mode
 Value Taken    Lamda =   0.00246209
 Searching for Lamda that Minimizes Along All other modes
 Value Taken    Lamda =  -0.00062476
 Calculated Step too Large.  Step scaled by  0.052022
 Step Taken.  Stepsize is  0.300000

                             Maximum     Tolerance    Cnvgd?
         Gradient           0.001052      0.000001      NO
         Displacement       0.175526      0.000001      NO
         Energy change      0.000219      0.000000      NO


 New Cartesian Coordinates Obtained by Inverse Iteration

 Displacement from previous Coordinates is:  0.433559
 Adding empirical dispersion correction 
 ----------------------------------------------------------------
 Doing -D3(op) with
 s6 =   1.00000
 s8 =   0.78311
 a1 =   0.30000
 a2 =   4.25000
 n  =  10.00000
 -D3 energy without 3body term =     -0.0472396466 hartrees
 ----------------------------------------------------------------
             Standard Nuclear Orientation (Angstroms)
    I     Atom           X                Y                Z
 ----------------------------------------------------------------
    1      C       0.8948985441    -0.7236409365    -0.4719233493
    2      C       0.4985856509     0.8311997532    -0.6741600147
    3      C      -0.1507360310    -1.6897823591     0.0957970110
    4      C      -1.0025038682     1.1532307665    -0.5935316129
    5      O      -1.4218287535    -1.2788377350    -0.0173959587
    6      O       0.1492123928    -2.7696616452     0.5510244083
    7      O      -1.4074242175     1.5443088602     0.6309289022
    8      O      -1.7469746445     1.1355783213    -1.5442270682
    9      C      -2.8110360880     1.8170175462     0.7655169808
   10      C      -2.4400492404    -2.1957762325     0.4224349615
   11      C       2.0548254980    -0.6265477354     0.6097595373
   12      C       1.3817148510    -0.2756788837     1.9279148451
   13      C       0.9628127146     0.9884948902     1.8291721758
   14      C       1.3743344267     1.5103509371     0.4567907195
   15      C       2.6985854252     0.7296679155     0.2726296256
   16      C       1.3872881354    -1.4133935443    -1.7627138218
   17      C       0.9220317873     1.3963178359    -2.0511395433
   18      H      -3.1090239543     2.6424474898     0.1170485994
   19      H      -2.3576586806    -2.3678684707     1.4965225641
   20      H       0.3658765854     1.5412596935     2.5386538529
   21      H      -2.9580597002     2.0780865707     1.8116252365
   22      H      -3.3935564801     0.9320631702     0.5048640045
   23      H      -3.3843284415    -1.7138903759     0.1785674588
   24      H      -2.3478359036    -3.1466059526    -0.1036351933
   25      H       1.4112178964     2.5946641335     0.3523481131
   26      H       2.6877683297    -1.5112426862     0.6095311198
   27      H       1.9411573731     1.1302683154    -2.3204267292
   28      H       0.2493624913     1.0560293084    -2.8364096324
   29      H       0.8623906576     2.4875874048    -2.0214731317
   30      H       1.5856287933    -2.4654868187    -1.5533177169
   31      H       0.6378449749    -1.3580718122    -2.5562110223
   32      H       2.3079415296    -0.9636270246    -2.1329504576
   33      H       3.4533467798     1.0180992930     1.0054246395
   34      H       3.1287152328     0.7882950992    -0.7268752617
   35      H       1.1876247637    -0.9792589922     2.7258372785
 ----------------------------------------------------------------
 Nuclear Repulsion Energy =  1391.1525365829 hartrees
 There are       64 alpha and       64 beta electrons
 Applying Cartesian multipole field
    Component          Value
    ---------          -----
     (2,0,0)        1.00000E-11
     (0,2,0)        2.00000E-11
     (0,0,2)       -3.00000E-11
 Nucleus-field energy     =     0.0000000150 hartrees
 Requested basis set is 6-311++G(d,p)
 There are 192 shells and 500 basis functions
 A cutoff of  1.0D-11 yielded  15471 shell pairs
 There are    107580 function pairs (    114871 Cartesian)
 Smallest overlap matrix eigenvalue = 7.75E-07

 Q-Chem warning in module /fs/scratch/osu6415/qchem-kaunlao-vdw/stvman/mkSTV.C, line 281:

 Overlap eigenvalue is smaller than square root of threshold

 Linear dependence detected in AO basis
 Number of orthogonalized atomic orbitals = 499
 Maximum deviation from orthogonality = 1.975E-10
 Guess MOs from SCF MO coefficient file
 Reading MOs from coefficient file
 Reading MOs from coefficient file
 A restricted hybrid HF-DFT SCF calculation will be
 performed using Pulay DIIS extrapolation
 Exchange:     0.2000 Hartree-Fock + 0.0800 Slater + 0.7200 B88
 Correlation:  0.1900 VWN1RPA + 0.8100 LYP
 Using SG-1 standard quadrature grid
 Dispersion:   Grimme D3
 SCF converges when DIIS error is below 1.0E-08
 Geometry optimization detected.  Setting ReadMinima to 0
 Setting SaveMinima to 0
 using 20 threads for integral computing
 -------------------------------------------------------
 OpenMP Integral computing Module                
 Release: version 1.0, May 2013, Q-Chem Inc. Pittsburgh 
 -------------------------------------------------------
 -------------------------------------------------------
 OpenMP BLAS3 based DFT computing Module                
 Release: version 1.0, May 2013, Q-Chem Inc. Pittsburgh 
 -------------------------------------------------------
 ---------------------------------------
  Cycle       Energy         DIIS Error
 ---------------------------------------
    1    -807.3605386450      4.58E-04
    2    -807.3550608511      6.82E-05
    3    -807.3548524586      1.13E-04
    4    -807.3552078502      2.05E-05
    5    -807.3552161803      8.41E-06
    6    -807.3552178146      2.50E-06
    7    -807.3552179286      1.31E-06
    8    -807.3552179749      2.39E-07
    9    -807.3552179768      6.48E-08
   10    -807.3552179754      2.42E-08
   11    -807.3552179752      9.30E-09 Convergence criterion met
 ---------------------------------------
 SCF time:  CPU 988.12 s  wall 63.05 s
 SCF   energy in the final basis set = -807.35521798
 Total energy in the final basis set = -807.35521798
 
 --------------------------------------------------------------
 
                    Orbital Energies (a.u.)
 --------------------------------------------------------------
 
 Alpha MOs
 -- Occupied --
-19.176 -19.168 -19.113 -19.106 -10.305 -10.300 -10.231 -10.228
-10.214 -10.212 -10.188 -10.186 -10.173 -10.170 -10.169 -10.166
-10.163  -1.119  -1.109  -1.027  -1.020  -0.898  -0.802  -0.779
 -0.744  -0.730  -0.711  -0.688  -0.667  -0.612  -0.586  -0.564
 -0.558  -0.540  -0.535  -0.515  -0.501  -0.490  -0.479  -0.474
 -0.462  -0.453  -0.446  -0.430  -0.422  -0.411  -0.408  -0.398
 -0.392  -0.390  -0.381  -0.375  -0.370  -0.356  -0.351  -0.350
 -0.339  -0.327  -0.320  -0.315  -0.305  -0.283  -0.275  -0.247
 -- Virtual --
 -0.014  -0.008  -0.004   0.002   0.004   0.007   0.010   0.016
  0.020   0.024   0.030   0.034   0.043   0.045   0.047   0.049
  0.050   0.060   0.068   0.070   0.075   0.083   0.086   0.088
  0.091   0.100   0.104   0.108   0.108   0.112   0.113   0.116
  0.119   0.120   0.122   0.124   0.127   0.130   0.135   0.137
  0.140   0.143   0.145   0.146   0.150   0.154   0.154   0.157
  0.161   0.162   0.164   0.168   0.172   0.175   0.176   0.178
  0.181   0.184   0.188   0.192   0.194   0.200   0.203   0.210
  0.211   0.214   0.217   0.220   0.222   0.226   0.231   0.234
  0.239   0.240   0.245   0.251   0.255   0.261   0.264   0.266
  0.270   0.278   0.284   0.289   0.296   0.300   0.304   0.309
  0.313   0.318   0.318   0.327   0.330   0.332   0.337   0.341
  0.345   0.348   0.350   0.353   0.358   0.363   0.364   0.371
  0.372   0.376   0.382   0.386   0.393   0.397   0.406   0.417
  0.419   0.423   0.424   0.433   0.442   0.454   0.469   0.472
  0.486   0.491   0.508   0.513   0.516   0.524   0.528   0.530
  0.541   0.542   0.558   0.571   0.580   0.591   0.601   0.602
  0.609   0.615   0.617   0.636   0.639   0.648   0.650   0.654
  0.658   0.662   0.673   0.678   0.685   0.686   0.698   0.705
  0.709   0.714   0.721   0.723   0.728   0.732   0.733   0.738
  0.743   0.759   0.763   0.769   0.773   0.787   0.796   0.804
  0.806   0.810   0.819   0.826   0.834   0.846   0.851   0.863
  0.869   0.890   0.896   0.913   0.915   0.934   0.949   0.976
  1.000   1.022   1.031   1.039   1.062   1.073   1.078   1.102
  1.116   1.136   1.144   1.155   1.167   1.195   1.215   1.223
  1.230   1.242   1.249   1.275   1.286   1.303   1.305   1.311
  1.320   1.323   1.335   1.363   1.372   1.386   1.407   1.421
  1.430   1.439   1.443   1.448   1.457   1.468   1.478   1.488
  1.503   1.506   1.520   1.529   1.546   1.552   1.565   1.569
  1.581   1.587   1.589   1.592   1.593   1.611   1.617   1.630
  1.642   1.649   1.672   1.679   1.686   1.697   1.705   1.708
  1.716   1.731   1.733   1.741   1.748   1.758   1.767   1.770
  1.777   1.793   1.803   1.807   1.814   1.824   1.838   1.848
  1.860   1.873   1.887   1.902   1.909   1.925   1.928   1.932
  1.946   1.952   1.957   1.970   1.987   1.995   2.002   2.019
  2.035   2.043   2.055   2.074   2.093   2.101   2.108   2.132
  2.143   2.155   2.177   2.179   2.212   2.219   2.226   2.229
  2.249   2.265   2.275   2.292   2.320   2.333   2.343   2.384
  2.405   2.409   2.443   2.454   2.464   2.471   2.500   2.513
  2.515   2.525   2.537   2.540   2.556   2.557   2.565   2.580
  2.590   2.592   2.614   2.624   2.642   2.644   2.650   2.675
  2.679   2.705   2.713   2.733   2.751   2.777   2.780   2.791
  2.812   2.820   2.835   2.859   2.871   2.878   2.891   2.906
  2.914   2.917   2.930   2.958   2.978   2.998   3.020   3.030
  3.042   3.055   3.070   3.076   3.095   3.110   3.125   3.136
  3.140   3.162   3.173   3.194   3.208   3.222   3.256   3.263
  3.270   3.309   3.327   3.339   3.389   3.398   3.457   3.468
  3.494   3.539   3.604   3.624   3.644   3.768   3.782   3.783
  3.788   3.794   3.811   3.831   3.849   3.862   3.867   3.884
  4.059   4.064   4.080   4.102   4.129   4.142   4.175   4.185
  4.191   4.247   4.260   4.287   4.369   4.460   5.064   5.104
  5.143   5.167   5.275   5.284   5.466   5.482   5.634   5.656
  5.912   5.917  23.800  23.842  23.845  23.869  23.882  23.907
 23.940  23.948  23.992  24.011  24.031  24.054  24.330  49.931
 49.966  50.044  50.070
 --------------------------------------------------------------
 
          Ground-State Mulliken Net Atomic Charges

     Atom                 Charge (a.u.)
  ----------------------------------------
      1 C                     0.387480
      2 C                    -0.025165
      3 C                    -0.564793
      4 C                    -0.573671
      5 O                    -0.083965
      6 O                    -0.178723
      7 O                     0.079551
      8 O                    -0.160994
      9 C                    -0.142569
     10 C                    -0.223108
     11 C                     0.274554
     12 C                    -0.440737
     13 C                    -0.366216
     14 C                     0.286740
     15 C                    -0.681407
     16 C                    -0.446265
     17 C                    -0.291939
     18 H                     0.173357
     19 H                     0.193150
     20 H                     0.154360
     21 H                     0.148911
     22 H                     0.167586
     23 H                     0.152409
     24 H                     0.176843
     25 H                     0.263264
     26 H                     0.268671
     27 H                     0.116876
     28 H                     0.196433
     29 H                     0.163453
     30 H                     0.193465
     31 H                     0.172574
     32 H                     0.162491
     33 H                     0.195299
     34 H                     0.095270
     35 H                     0.156814
  ----------------------------------------
  Sum of atomic charges =    -0.000000

 -----------------------------------------------------------------
                    Cartesian Multipole Moments
 -----------------------------------------------------------------
    Charge (ESU x 10^10)
                -0.0000
    Dipole Moment (Debye)
         X      -0.6123      Y       1.1697      Z       0.8632
       Tot       1.5774
    Quadrupole Moments (Debye-Ang)
        XX     -93.8469     XY       3.6203     YY    -104.9068
        XZ      -9.2453     YZ       4.2654     ZZ    -104.5087
    Octopole Moments (Debye-Ang^2)
       XXX     -50.6405    XXY      -9.6870    XYY     -26.9261
       YYY      26.7933    XXZ      13.2880    XYZ      -7.0154
       YYZ      -3.8539    XZZ      -5.2513    YZZ      -7.5620
       ZZZ      10.0595
    Hexadecapole Moments (Debye-Ang^3)
      XXXX   -1754.2296   XXXY      10.3533   XXYY    -503.0865
      XYYY      31.4806   YYYY   -1539.3010   XXXZ     -28.8300
      XXYZ      19.7027   XYYZ      -8.7710   YYYZ      54.7207
      XXZZ    -490.2710   XYZZ       4.8797   YYZZ    -409.5610
      XZZZ     -12.7564   YZZZ      29.8657   ZZZZ    -978.5514
 -----------------------------------------------------------------
 Calculating analytic gradient of the SCF energy
 Gradient of SCF Energy
            1           2           3           4           5           6
    1   0.0006124   0.0000084   0.0002696   0.0001524   0.0000343   0.0000543
    2   0.0000754   0.0000132   0.0004416  -0.0000865   0.0002760  -0.0004831
    3   0.0018512  -0.0012395   0.0004384  -0.0006394   0.0002548  -0.0008943
            7           8           9          10          11          12
    1  -0.0004272   0.0002088  -0.0001029  -0.0000355  -0.0001593   0.0003633
    2  -0.0002302  -0.0000182   0.0000294  -0.0000021   0.0000825  -0.0001990
    3  -0.0001311   0.0000160  -0.0000487  -0.0000292  -0.0000973  -0.0001381
           13          14          15          16          17          18
    1  -0.0003252   0.0002130  -0.0004522   0.0007555  -0.0006554   0.0000019
    2  -0.0005311   0.0004781   0.0002434  -0.0001019   0.0003944   0.0000012
    3   0.0001323  -0.0000996   0.0000372   0.0003840   0.0002688   0.0000007
           19          20          21          22          23          24
    1  -0.0000132   0.0000780  -0.0000234   0.0000045   0.0000086   0.0000033
    2  -0.0000323  -0.0001023  -0.0000290  -0.0000548   0.0000424  -0.0000163
    3  -0.0000399   0.0000377  -0.0000029  -0.0000145  -0.0000654  -0.0000517
           25          26          27          28          29          30
    1  -0.0000074  -0.0000022   0.0001484  -0.0005114   0.0006478  -0.0005095
    2   0.0000921   0.0000129  -0.0009178   0.0009888  -0.0001412  -0.0001244
    3   0.0000188   0.0000653   0.0001031   0.0000295   0.0000747   0.0000248
           31          32          33          34          35
    1   0.0000454  -0.0004012  -0.0000728   0.0001255  -0.0000365
    2  -0.0000387  -0.0000888   0.0001506  -0.0000538  -0.0000707
    3  -0.0001432   0.0000324   0.0000043  -0.0001608   0.0000215
 Max gradient component =       1.851E-03
 RMS gradient           =       3.581E-04
 Gradient time:  CPU 433.20 s  wall 30.76 s
 Geometry Optimization Parameters
   NAtoms,    NIC,     NZ,  NCons,   NDum,   NFix, NCnnct, MaxDiis
       35     275       0       0       0       0       0       0

 Cartesian Hessian Update
 Hessian Updated using Powell/Murtagh-Sargent Update
  Mixing factors:     0.183909 Powell
                      0.816091 Murtagh-Sargent


** GEOMETRY OPTIMIZATION IN DELOCALIZED INTERNAL COORDINATES **
   Searching for a Transition State

   Optimization Cycle:   3

                       Coordinates (Angstroms)
     ATOM                X               Y               Z
      1  C         0.8948985441   -0.7236409365   -0.4719233493
      2  C         0.4985856509    0.8311997532   -0.6741600147
      3  C        -0.1507360310   -1.6897823591    0.0957970110
      4  C        -1.0025038682    1.1532307665   -0.5935316129
      5  O        -1.4218287535   -1.2788377350   -0.0173959587
      6  O         0.1492123928   -2.7696616452    0.5510244083
      7  O        -1.4074242175    1.5443088602    0.6309289022
      8  O        -1.7469746445    1.1355783213   -1.5442270682
      9  C        -2.8110360880    1.8170175462    0.7655169808
     10  C        -2.4400492404   -2.1957762325    0.4224349615
     11  C         2.0548254980   -0.6265477354    0.6097595373
     12  C         1.3817148510   -0.2756788837    1.9279148451
     13  C         0.9628127146    0.9884948902    1.8291721758
     14  C         1.3743344267    1.5103509371    0.4567907195
     15  C         2.6985854252    0.7296679155    0.2726296256
     16  C         1.3872881354   -1.4133935443   -1.7627138218
     17  C         0.9220317873    1.3963178359   -2.0511395433
     18  H        -3.1090239543    2.6424474898    0.1170485994
     19  H        -2.3576586806   -2.3678684707    1.4965225641
     20  H         0.3658765854    1.5412596935    2.5386538529
     21  H        -2.9580597002    2.0780865707    1.8116252365
     22  H        -3.3935564801    0.9320631702    0.5048640045
     23  H        -3.3843284415   -1.7138903759    0.1785674588
     24  H        -2.3478359036   -3.1466059526   -0.1036351933
     25  H         1.4112178964    2.5946641335    0.3523481131
     26  H         2.6877683297   -1.5112426862    0.6095311198
     27  H         1.9411573731    1.1302683154   -2.3204267292
     28  H         0.2493624913    1.0560293084   -2.8364096324
     29  H         0.8623906576    2.4875874048   -2.0214731317
     30  H         1.5856287933   -2.4654868187   -1.5533177169
     31  H         0.6378449749   -1.3580718122   -2.5562110223
     32  H         2.3079415296   -0.9636270246   -2.1329504576
     33  H         3.4533467798    1.0180992930    1.0054246395
     34  H         3.1287152328    0.7882950992   -0.7268752617
     35  H         1.1876247637   -0.9792589922    2.7258372785
   Point Group: c1    Number of degrees of freedom:    99


   Energy is   -807.355217975

 Hessian Updated using Powell/Murtagh-Sargent Update
  Mixing factors:     0.992268 Powell
                      0.007732 Murtagh-Sargent

 89 Hessian modes will be used to form the next step
  Hessian Eigenvalues:
    -0.000160    0.003989    0.004808    0.004976    0.006803    0.008963
     0.010326    0.010484    0.010859    0.012735    0.016767    0.017400
     0.020277    0.022567    0.023499    0.028884    0.032782    0.042445
     0.044619    0.045462    0.047213    0.048990    0.050244    0.052705
     0.053850    0.054159    0.056834    0.056938    0.057004    0.059623
     0.067885    0.073121    0.078181    0.088454    0.094412    0.101321
     0.101366    0.105941    0.106177    0.111336    0.117474    0.131391
     0.157288    0.159033    0.160000    0.160047    0.160640    0.163640
     0.205354    0.210810    0.239055    0.246075    0.249696    0.249788
     0.249851    0.250000    0.250045    0.250124    0.270862    0.278854
     0.281715    0.288162    0.291805    0.296906    0.344630    0.344935
     0.346788    0.346893    0.347087    0.347090    0.347207    0.347469
     0.348101    0.348525    0.348593    0.349857    0.350248    0.350666
     0.350687    0.351095    0.358286    0.360594    0.397099    0.401139
     0.515323    0.555074    0.570622    1.000997    1.010860

 Transition State Search - Taking P-RFO Step
 Searching for Lamda that Maximizes Along the Lowest mode
 Value Taken    Lamda =   0.00060496
 Searching for Lamda that Minimizes Along All other modes
 Value Taken    Lamda =  -0.00073015
 Calculated Step too Large.  Step scaled by  0.314707
 Step Taken.  Stepsize is  0.300000

                             Maximum     Tolerance    Cnvgd?
         Gradient           0.001234      0.000001      NO
         Displacement       0.161057      0.000001      NO
         Energy change      0.000226      0.000000      NO


 New Cartesian Coordinates Obtained by Inverse Iteration

 Displacement from previous Coordinates is:  0.716935
 Adding empirical dispersion correction 
 ----------------------------------------------------------------
 Doing -D3(op) with
 s6 =   1.00000
 s8 =   0.78311
 a1 =   0.30000
 a2 =   4.25000
 n  =  10.00000
 -D3 energy without 3body term =     -0.0470097127 hartrees
 ----------------------------------------------------------------
             Standard Nuclear Orientation (Angstroms)
    I     Atom           X                Y                Z
 ----------------------------------------------------------------
    1      C       0.8938315590    -0.7284100934    -0.4654300185
    2      C       0.4868313432     0.8223760850    -0.6679411363
    3      C      -0.1471040803    -1.7040976601     0.0966472747
    4      C      -1.0136946328     1.1392024780    -0.5649635933
    5      O      -1.4233931200    -1.3289572442    -0.0693954553
    6      O       0.1623438326    -2.7690255779     0.5798018955
    7      O      -1.3832042132     1.6021988581     0.6455724548
    8      O      -1.7819191689     1.0762273793    -1.4947050012
    9      C      -2.7813522213     1.8905630116     0.8018477596
   10      C      -2.4322190849    -2.2621650391     0.3577125322
   11      C       2.0473284855    -0.6222101195     0.6230167500
   12      C       1.3702010759    -0.2555486280     1.9362306167
   13      C       0.9614877439     1.0112369065     1.8272767174
   14      C       1.3714733214     1.5139170279     0.4486152377
   15      C       2.6950218137     0.7285320172     0.2741901012
   16      C       1.4001756500    -1.4085068370    -1.7561457186
   17      C       0.8890431832     1.3792183818    -2.0553187388
   18      H      -3.0930664622     2.6789047960     0.1148018355
   19      H      -2.3832032072    -2.4058597129     1.4379927899
   20      H       0.3666451513     1.5745235709     2.5303928078
   21      H      -2.8987897620     2.2126710923     1.8345739296
   22      H      -3.3748725183     0.9957629164     0.6084644720
   23      H      -3.3797893362    -1.8123720752     0.0694432346
   24      H      -2.2965554642    -3.2225784738    -0.1407695520
   25      H       1.4093325949     2.5967633376     0.3312099129
   26      H       2.6792518466    -1.5076019968     0.6330255841
   27      H       1.8908715365     1.0852503821    -2.3571152071
   28      H       0.1844116458     1.0596413170    -2.8209764460
   29      H       0.8617101561     2.4718339631    -2.0211576936
   30      H       1.5422646131    -2.4738459998    -1.5695214951
   31      H       0.6855038913    -1.2947049560    -2.5748715880
   32      H       2.3559097081    -0.9946160262    -2.0781310899
   33      H       3.4493547599     1.0212193170     1.0057908117
   34      H       3.1269535076     0.7763997026    -0.7247204340
   35      H       1.1713646818    -0.9503460009     2.7405579698
 ----------------------------------------------------------------
 Nuclear Repulsion Energy =  1389.5534652683 hartrees
 There are       64 alpha and       64 beta electrons
 Applying Cartesian multipole field
    Component          Value
    ---------          -----
     (2,0,0)        1.00000E-11
     (0,2,0)        2.00000E-11
     (0,0,2)       -3.00000E-11
 Nucleus-field energy     =     0.0000000155 hartrees
 Requested basis set is 6-311++G(d,p)
 There are 192 shells and 500 basis functions
 A cutoff of  1.0D-11 yielded  15459 shell pairs
 There are    107421 function pairs (    114689 Cartesian)
 Smallest overlap matrix eigenvalue = 7.76E-07

 Q-Chem warning in module /fs/scratch/osu6415/qchem-kaunlao-vdw/stvman/mkSTV.C, line 281:

 Overlap eigenvalue is smaller than square root of threshold

 Linear dependence detected in AO basis
 Number of orthogonalized atomic orbitals = 499
 Maximum deviation from orthogonality = 2.255E-10
 Guess MOs from SCF MO coefficient file
 Reading MOs from coefficient file
 Reading MOs from coefficient file
 A restricted hybrid HF-DFT SCF calculation will be
 performed using Pulay DIIS extrapolation
 Exchange:     0.2000 Hartree-Fock + 0.0800 Slater + 0.7200 B88
 Correlation:  0.1900 VWN1RPA + 0.8100 LYP
 Using SG-1 standard quadrature grid
 Dispersion:   Grimme D3
 SCF converges when DIIS error is below 1.0E-08
 Geometry optimization detected.  Setting ReadMinima to 0
 Setting SaveMinima to 0
 using 20 threads for integral computing
 -------------------------------------------------------
 OpenMP Integral computing Module                
 Release: version 1.0, May 2013, Q-Chem Inc. Pittsburgh 
 -------------------------------------------------------
 -------------------------------------------------------
 OpenMP BLAS3 based DFT computing Module                
 Release: version 1.0, May 2013, Q-Chem Inc. Pittsburgh 
 -------------------------------------------------------
 ---------------------------------------
  Cycle       Energy         DIIS Error
 ---------------------------------------
    1    -807.3307289120      8.72E-04
    2    -807.3543026117      1.16E-04
    3    -807.3538738668      1.78E-04
    4    -807.3547398047      4.20E-05
    5    -807.3547753848      1.42E-05
    6    -807.3547795023      5.21E-06
    7    -807.3547801247      2.08E-06
    8    -807.3547802326      7.13E-07
    9    -807.3547802466      1.85E-07
   10    -807.3547802491      9.83E-08
   11    -807.3547802494      2.61E-08
   12    -807.3547802481      1.34E-08
   13    -807.3547802574      3.84E-09 Convergence criterion met
 ---------------------------------------
 SCF time:  CPU 1149.78 s  wall 71.63 s
 SCF   energy in the final basis set = -807.35478026
 Total energy in the final basis set = -807.35478026
 
 --------------------------------------------------------------
 
                    Orbital Energies (a.u.)
 --------------------------------------------------------------
 
 Alpha MOs
 -- Occupied --
-19.175 -19.170 -19.112 -19.106 -10.304 -10.300 -10.231 -10.228
-10.214 -10.211 -10.188 -10.186 -10.173 -10.170 -10.168 -10.165
-10.164  -1.119  -1.110  -1.026  -1.020  -0.898  -0.802  -0.778
 -0.743  -0.730  -0.711  -0.688  -0.668  -0.611  -0.586  -0.565
 -0.557  -0.541  -0.534  -0.515  -0.501  -0.490  -0.479  -0.475
 -0.462  -0.453  -0.446  -0.430  -0.421  -0.411  -0.408  -0.398
 -0.391  -0.389  -0.380  -0.375  -0.370  -0.356  -0.351  -0.349
 -0.339  -0.328  -0.319  -0.314  -0.306  -0.282  -0.275  -0.247
 -- Virtual --
 -0.013  -0.008  -0.004   0.002   0.004   0.007   0.010   0.016
  0.020   0.025   0.030   0.034   0.043   0.044   0.047   0.049
  0.050   0.059   0.068   0.070   0.075   0.083   0.085   0.088
  0.092   0.099   0.104   0.108   0.108   0.111   0.113   0.116
  0.119   0.120   0.123   0.124   0.127   0.130   0.134   0.137
  0.140   0.143   0.145   0.146   0.150   0.153   0.153   0.157
  0.160   0.163   0.165   0.169   0.171   0.176   0.177   0.178
  0.180   0.184   0.188   0.191   0.193   0.199   0.203   0.209
  0.211   0.213   0.217   0.220   0.222   0.227   0.231   0.234
  0.239   0.241   0.245   0.252   0.255   0.262   0.264   0.266
  0.270   0.279   0.283   0.290   0.297   0.301   0.303   0.309
  0.312   0.318   0.320   0.327   0.330   0.332   0.337   0.342
  0.345   0.345   0.350   0.355   0.358   0.362   0.365   0.371
  0.373   0.377   0.384   0.386   0.394   0.399   0.406   0.417
  0.419   0.422   0.424   0.435   0.444   0.455   0.469   0.470
  0.485   0.490   0.508   0.514   0.516   0.525   0.529   0.530
  0.541   0.544   0.556   0.572   0.581   0.592   0.602   0.603
  0.609   0.616   0.617   0.636   0.639   0.646   0.649   0.652
  0.658   0.662   0.673   0.675   0.685   0.688   0.698   0.703
  0.709   0.711   0.720   0.722   0.728   0.732   0.733   0.738
  0.746   0.759   0.763   0.769   0.773   0.787   0.793   0.803
  0.808   0.810   0.817   0.828   0.833   0.846   0.848   0.858
  0.867   0.887   0.898   0.913   0.914   0.933   0.949   0.977
  0.996   1.024   1.035   1.037   1.062   1.074   1.082   1.098
  1.113   1.132   1.137   1.155   1.167   1.189   1.211   1.221
  1.234   1.241   1.249   1.276   1.288   1.298   1.305   1.314
  1.319   1.333   1.341   1.366   1.369   1.387   1.401   1.420
  1.431   1.433   1.440   1.444   1.453   1.470   1.479   1.484
  1.499   1.505   1.522   1.531   1.547   1.554   1.564   1.571
  1.581   1.585   1.588   1.590   1.593   1.610   1.615   1.631
  1.640   1.650   1.668   1.678   1.686   1.700   1.701   1.710
  1.714   1.731   1.735   1.745   1.750   1.758   1.768   1.774
  1.780   1.794   1.803   1.808   1.811   1.825   1.841   1.848
  1.858   1.869   1.887   1.899   1.909   1.929   1.929   1.932
  1.945   1.951   1.961   1.970   1.987   1.995   2.001   2.020
  2.034   2.040   2.053   2.071   2.090   2.099   2.106   2.132
  2.146   2.153   2.175   2.179   2.210   2.217   2.224   2.233
  2.249   2.267   2.278   2.288   2.318   2.333   2.343   2.380
  2.406   2.407   2.444   2.455   2.460   2.471   2.498   2.510
  2.518   2.520   2.534   2.539   2.555   2.559   2.565   2.582
  2.588   2.593   2.616   2.622   2.640   2.645   2.654   2.674
  2.675   2.708   2.718   2.731   2.752   2.777   2.780   2.783
  2.809   2.818   2.836   2.858   2.868   2.877   2.891   2.903
  2.914   2.915   2.930   2.960   2.980   3.002   3.016   3.028
  3.044   3.055   3.066   3.079   3.096   3.113   3.119   3.138
  3.140   3.160   3.170   3.189   3.206   3.225   3.256   3.264
  3.266   3.303   3.323   3.338   3.391   3.398   3.455   3.466
  3.485   3.540   3.603   3.625   3.645   3.769   3.779   3.783
  3.792   3.794   3.809   3.831   3.846   3.852   3.867   3.884
  4.063   4.064   4.078   4.102   4.130   4.143   4.172   4.187
  4.190   4.250   4.261   4.287   4.369   4.459   5.076   5.093
  5.140   5.166   5.275   5.284   5.458   5.476   5.633   5.657
  5.910   5.920  23.799  23.841  23.843  23.869  23.882  23.905
 23.940  23.948  23.993  24.012  24.030  24.055  24.330  49.933
 49.958  50.044  50.070
 --------------------------------------------------------------
 
          Ground-State Mulliken Net Atomic Charges

     Atom                 Charge (a.u.)
  ----------------------------------------
      1 C                     0.397963
      2 C                     0.035693
      3 C                    -0.574988
      4 C                    -0.646486
      5 O                    -0.071270
      6 O                    -0.177300
      7 O                     0.079257
      8 O                    -0.162016
      9 C                    -0.140256
     10 C                    -0.227395
     11 C                     0.282145
     12 C                    -0.442636
     13 C                    -0.366653
     14 C                     0.298009
     15 C                    -0.695616
     16 C                    -0.466195
     17 C                    -0.288808
     18 H                     0.173508
     19 H                     0.190807
     20 H                     0.155361
     21 H                     0.146837
     22 H                     0.163793
     23 H                     0.160369
     24 H                     0.176479
     25 H                     0.265105
     26 H                     0.271114
     27 H                     0.127515
     28 H                     0.198581
     29 H                     0.157745
     30 H                     0.192708
     31 H                     0.172540
     32 H                     0.165135
     33 H                     0.195445
     34 H                     0.096774
     35 H                     0.156736
  ----------------------------------------
  Sum of atomic charges =    -0.000000

 -----------------------------------------------------------------
                    Cartesian Multipole Moments
 -----------------------------------------------------------------
    Charge (ESU x 10^10)
                -0.0000
    Dipole Moment (Debye)
         X      -0.6111      Y       1.2357      Z       0.7558
       Tot       1.5721
    Quadrupole Moments (Debye-Ang)
        XX     -94.1775     XY       3.4308     YY    -104.3739
        XZ      -9.2589     YZ       4.3492     ZZ    -104.3409
    Octopole Moments (Debye-Ang^2)
       XXX     -49.1840    XXY      -9.2116    XYY     -28.6078
       YYY      26.7120    XXZ      12.8773    XYZ      -6.9037
       YYZ      -5.1406    XZZ      -5.5229    YZZ      -6.0252
       ZZZ       8.0775
    Hexadecapole Moments (Debye-Ang^3)
      XXXX   -1745.8145   XXXY      10.7590   XXYY    -503.2714
      XYYY      32.2208   YYYY   -1563.1051   XXXZ     -31.8887
      XXYZ      16.8840   XYYZ     -10.1187   YYYZ      46.7602
      XXZZ    -487.3297   XYZZ       2.7599   YYZZ    -413.2720
      XZZZ     -15.0193   YZZZ      18.4327   ZZZZ    -973.8484
 -----------------------------------------------------------------
 Calculating analytic gradient of the SCF energy
 Gradient of SCF Energy
            1           2           3           4           5           6
    1   0.0009903  -0.0010072   0.0001849  -0.0003679  -0.0003493  -0.0002255
    2  -0.0002553   0.0001011   0.0011594  -0.0020747  -0.0005210  -0.0006007
    3   0.0000520  -0.0010950   0.0016620   0.0019046  -0.0007683  -0.0014510
            7           8           9          10          11          12
    1   0.0008191  -0.0000552   0.0003433   0.0000941   0.0003950  -0.0001126
    2   0.0015079  -0.0002688  -0.0001192  -0.0001412   0.0002824   0.0001730
    3  -0.0002329  -0.0005199  -0.0000255  -0.0000617   0.0000748   0.0000247
           13          14          15          16          17          18
    1  -0.0000220  -0.0006139   0.0003976   0.0008786   0.0000105  -0.0000764
    2   0.0003687   0.0002054  -0.0001257   0.0004520  -0.0004519  -0.0000218
[...]
    -0.00004765     -0.00003011     -0.00001007
    -0.00004683     -0.00005785     -0.00008146
    -0.00022513     -0.00030925     -0.00074955
    -0.00863971      0.01208105      0.00009351
    -0.00008023     -0.00061854      0.00034558
    -0.00014042      0.00010887      0.00005870
     0.00007284     -0.00456017      0.00055465
    -0.00035550      0.00020950      0.00815062
     0.07406264     -0.03403609      0.03539104
    -0.00738727     -0.00415232     -0.00495038
     0.00007377     -0.00023459      0.00019744
     0.00111067     -0.00138573      0.00502159
     0.00121806     -0.00129065     -0.00153270
    -0.00006780      0.00021894      0.00062580
     0.00038859      0.00061317      0.00007863
     0.00150022     -0.00088066     -0.00002321
    -0.00014501      0.00579104      0.00404406
     0.00122698      0.05128702     -0.00389580
     0.09896304     -0.13893912     -0.00359265
     0.04795205     -0.00552714     -0.00842666
     0.04677686      0.03927890      0.06829720
    -0.00682719      0.01820109     -0.00115311
    -0.13467752      0.59443743     -0.10739187
    -0.44042715      0.01522635     -0.45793154
    -0.30652063     -0.20482673      0.13500608
    -0.02970684     -0.01046648     -0.03011482
     0.03149621      0.00722386     -0.06748991
     0.00165801      0.00746703     -0.00682108
vibration 90
    -0.00001513      0.00000152      0.00000037
    -0.00016523      0.00001174      0.00004768
    -0.00022436     -0.00001267      0.00009714
     0.00013623      0.00007292     -0.00010435
     0.00010297      0.00001016     -0.00002880
     0.00005384     -0.00001794     -0.00003573
    -0.00004735      0.00029365     -0.00007067
     0.00002019      0.00016041     -0.00006836
    -0.01479396     -0.08357392      0.03321001
     0.00120570     -0.00269017     -0.00182843
     0.00375459     -0.00507762      0.00004781
    -0.00000895      0.00040132     -0.00022302
     0.00006072     -0.00008685      0.00000868
     0.00000739      0.00033128      0.00015113
     0.00189997      0.00154166      0.01678281
     0.00398960      0.00605487     -0.00124245
    -0.00288360      0.01135364      0.00897921
    -0.18102048      0.44350374     -0.47434264
     0.00140621     -0.00189541      0.00553338
    -0.00013073     -0.00027214     -0.00029508
    -0.00005233     -0.02454844     -0.01434445
     0.35703482      0.57047191      0.09519621
    -0.01532795      0.00818417     -0.00161365
    -0.00007650      0.02508840      0.01780696
    -0.00020500     -0.00387347     -0.00022401
    -0.04273304      0.05954990      0.00064435
     0.08354940     -0.00751980     -0.01193683
    -0.06575389     -0.05095469     -0.09248865
     0.01731623     -0.07874372      0.00035717
     0.01266994     -0.04445442      0.00840531
    -0.01182685      0.00189299     -0.01313145
    -0.04802146     -0.02972038      0.01893055
    -0.07881163     -0.02883244     -0.07954817
     0.05457792      0.01156448     -0.12422961
    -0.00086374     -0.00313805      0.00260620
vibration 91
     0.00017999      0.00001870     -0.00007502
     0.00049230     -0.00090544      0.00010806
     0.00014100      0.00009445     -0.00020718
    -0.00025882      0.00001593     -0.00018245
    -0.00003163     -0.00000618      0.00002797
    -0.00000920      0.00001481      0.00012532
    -0.00001325      0.00013004      0.00005724
    -0.00012927      0.00009286      0.00022929
    -0.00417676     -0.02320711      0.00938688
     0.00048186     -0.00014079      0.00075556
    -0.01309635      0.01776699     -0.00015051
     0.00007131     -0.00117253      0.00059697
    -0.00016575      0.00033381      0.00002931
    -0.00020466     -0.00566884     -0.00010718
    -0.00641435     -0.00515922     -0.05598876
    -0.01449773     -0.02071911      0.00399921
     0.01200612     -0.04372143     -0.03351620
    -0.05032319      0.12327687     -0.13183817
    -0.00145533      0.00182312     -0.00708948
     0.00078894     -0.00035504      0.00025142
     0.00023390     -0.00753844     -0.00577651
     0.09951007      0.15892839      0.02652122
    -0.00433227      0.00233725     -0.00016433
     0.00023652     -0.00257314     -0.00162700
     0.00289254      0.06608081     -0.00298663
     0.14882078     -0.20732385     -0.00227654
    -0.32304436      0.02921560      0.04653543
     0.24460146      0.18862648      0.34329255
    -0.06776379      0.31097944     -0.00145499
    -0.04298498      0.14923063     -0.02817662
     0.04519513     -0.00681798      0.04995835
     0.16944939      0.10490956     -0.06708722
     0.26335160      0.09647062      0.26574674
    -0.18167211     -0.03871115      0.41415126
     0.00233583      0.00965323     -0.00776873
vibration 92
     0.00041408     -0.00051505     -0.00031247
    -0.00035424      0.00014052     -0.00046181
     0.00016257     -0.00088606      0.00031542
    -0.00022679      0.00004325     -0.00009412
    -0.00007736      0.00012222     -0.00001505
    -0.00029772      0.00037706     -0.00012197
     0.00004437     -0.00000723      0.00002164
     0.00002795      0.00000716      0.00014518
    -0.00010523      0.00007182     -0.00001308
     0.00021797      0.00085960      0.00220381
     0.04635319     -0.06570283     -0.00175882
     0.00020128      0.00359127     -0.00225373
    -0.00017100      0.00012663      0.00046870
    -0.00037828      0.00382629     -0.00030826
     0.00538866      0.00169833     -0.01580309
     0.01284924     -0.00562638      0.00443196
    -0.00047670     -0.01537117     -0.01341731
     0.00046534     -0.00101762      0.00104708
    -0.00336593      0.00440368     -0.01649310
     0.00072991      0.00031536     -0.00045524
     0.00013512     -0.00032037     -0.00086683
     0.00039227      0.00047213      0.00004388
     0.00037915      0.00006856      0.00042158
     0.00052436     -0.01490635     -0.01016522
    -0.00087448     -0.03504604      0.00314635
    -0.54196209      0.75796317      0.01146599
    -0.07657513      0.00612786      0.00989785
     0.10373619      0.08154585      0.14772840
    -0.02296114      0.09896969     -0.00044260
    -0.02491338      0.10925396     -0.01775764
    -0.06117859      0.00311569     -0.06250707
    -0.06762908     -0.04358533      0.02984161
     0.02050844      0.00557847      0.01932158
    -0.07485876     -0.01795223      0.17158528
    -0.00828889     -0.03723216      0.03523128
vibration 93
    -0.00003531     -0.00007753     -0.00022481
    -0.00000312     -0.00000962     -0.00000506
     0.00009991     -0.00002088      0.00017952
    -0.00005503     -0.00004340     -0.00018334
     0.00004093      0.00009394      0.00036836
     0.00008370      0.00009711      0.00010107
    -0.00001508     -0.00000001      0.00007003
     0.00005415      0.00002709      0.00008066
     0.00041068      0.00207704     -0.00027327
    -0.01589918     -0.03084664     -0.08829453
     0.00102182     -0.00150653     -0.00004308
    -0.00001585     -0.00006257      0.00008133
    -0.00003189      0.00004053      0.00003200
    -0.00000786      0.00023739     -0.00003650
     0.00010074     -0.00002601     -0.00145588
    -0.00039762      0.00004455     -0.00024745
     0.00024022     -0.00094825     -0.00077552
     0.00357132     -0.00886878      0.00960552
     0.13459422     -0.17651632      0.65149984
     0.00023784     -0.00005981     -0.00015855
     0.00059192     -0.00103315     -0.00401785
    -0.00918888     -0.01449518     -0.00257072
     0.06994389     -0.04704153     -0.01005428
    -0.01783025      0.58855002      0.40236641
    -0.00004833     -0.00245304      0.00025915
    -0.01230904      0.01715544      0.00027346
    -0.00724354      0.00064949      0.00103511
     0.00565462      0.00435392      0.00804813
    -0.00143043      0.00646433     -0.00000138
     0.00013343     -0.00118062      0.00021636
     0.00327326     -0.00016559      0.00361994
     0.00148077      0.00093208     -0.00059805
     0.00481164      0.00169339      0.00478877
    -0.00569862     -0.00126814      0.01293763
     0.00036934      0.00062125     -0.00063914
vibration 94
    -0.00054193     -0.00135433      0.00018611
    -0.00007185      0.00052328      0.00043806
     0.00046355     -0.00051927     -0.00024630
     0.00012043     -0.00001454      0.00029679
    -0.00008927      0.00006498      0.00005183
    -0.00026474      0.00034532      0.00013790
     0.00002914     -0.00001323     -0.00005328
     0.00005836      0.00000222     -0.00023101
    -0.00008975     -0.00033568     -0.00011144
    -0.00036122      0.00032510     -0.00026976
     0.00476138     -0.00651847     -0.00002756
     0.00006487      0.00048561     -0.00032728
     0.00005594     -0.00005013     -0.00000216
    -0.00000609      0.00051877     -0.00015667
     0.00039748      0.00057901      0.00833645
    -0.03855563     -0.07243179      0.02466196
     0.01569862      0.01864345      0.01972339
    -0.00032244      0.00082013     -0.00089478
     0.00065293     -0.00085493      0.00349708
     0.00013618     -0.00000301     -0.00029481
    -0.00022766      0.00072491      0.00193001
     0.00168760      0.00263548      0.00042847
     0.00397916     -0.00223812      0.00039287
     0.00002319     -0.00037373     -0.00037120
    -0.00029726     -0.00557994     -0.00016944
    -0.05585331      0.07726898      0.00134676
    -0.04068475      0.00849295      0.00997796
    -0.17158910     -0.13796233     -0.24773181
     0.02693172     -0.09824692      0.00140879
    -0.14943037      0.54183429     -0.10167987
     0.02288143     -0.01683704      0.03781283
     0.58859847      0.35213701     -0.23122894
    -0.03347830     -0.01218192     -0.03348647
     0.02744149      0.00472659     -0.06855360
    -0.00113295     -0.00451930      0.00399246
vibration 95
     0.00001361      0.00003188     -0.00000054
     0.00008037      0.00002111      0.00009449
    -0.00010106     -0.00003319      0.00002749
    -0.00119114      0.00008344     -0.00057083
     0.00001826      0.00000005      0.00001022
     0.00002475      0.00000122     -0.00000223
    -0.00005843      0.00010797      0.00037534
     0.00049353      0.00000362      0.00031894
    -0.01153929     -0.03257990     -0.08777605
     0.00444695     -0.00449419      0.00019195
     0.00000891     -0.00002952     -0.00001875
    -0.00001232     -0.00002532      0.00004389
     0.00007291     -0.00006218     -0.00007545
    -0.00000205     -0.00008363     -0.00004077
     0.00007239     -0.00003272     -0.00102857
     0.00094248      0.00083960     -0.00017991
     0.00396971      0.00058760      0.00123329
     0.07533170     -0.21719139      0.19817706
    -0.00200774      0.00242362     -0.01412094
    -0.00024032      0.00040989      0.00081958
    -0.10216236      0.32324984      0.81833930
     0.16988757      0.27962479      0.02330186
    -0.05057227      0.02850495     -0.00523658
     0.00034690      0.02223459      0.01676657
     0.00010008      0.00092484     -0.00012072
    -0.00021847      0.00031709      0.00006749
    -0.03394638      0.00428945      0.00574858
    -0.01413699     -0.01214924     -0.02116944
     0.00048653      0.00115056      0.00029980
     0.00130032     -0.00449286      0.00084470
    -0.00255141      0.00035731     -0.00275295
    -0.01013935     -0.00610379      0.00410916
     0.00353185      0.00123842      0.00348288
    -0.00412232     -0.00085356      0.00960229
     0.00008518      0.00026291     -0.00032048
vibration 96
    -0.00026763     -0.00023996      0.00004069
    -0.00092650      0.00002113     -0.00068453
     0.00001518      0.00000206     -0.00009762
    -0.00022148     -0.00002975     -0.00105741
     0.00002801     -0.00000426      0.00002699
    -0.00001676      0.00002327      0.00002451
    -0.00000983      0.00004644      0.00015654
     0.00008084      0.00003229      0.00057793
    -0.00046014     -0.00158548     -0.00416606
     0.00081213     -0.00076733     -0.00001829
    -0.00026446      0.00057477      0.00014271
     0.00007897      0.00019586     -0.00016043
     0.00015274     -0.00005887     -0.00006395
     0.00009434     -0.00063499      0.00059176
    -0.00237973      0.00017828      0.01560799
    -0.01907781     -0.01404792      0.00217514
    -0.08299261     -0.01198778     -0.02634271
     0.00345220     -0.00995804      0.00888589
    -0.00021542      0.00022714     -0.00166535
    -0.00079898      0.00030495      0.00016339
    -0.00484053      0.01552105      0.03928180
     0.00794439      0.01311659      0.00099893
    -0.00928044      0.00531097     -0.00097419
     0.00005192      0.00396992      0.00296362
    -0.00013319      0.00727802      0.00020914
     0.00409050     -0.00577200      0.00011391
     0.70994437     -0.08944389     -0.11978604
     0.29856841      0.25858654      0.45228541
    -0.00999538     -0.03302821     -0.00625587
    -0.01909529      0.06226181     -0.01169249
     0.05906171     -0.00619558      0.06457744
     0.19155117      0.11601569     -0.07814602
    -0.04129576     -0.01483949     -0.04071295
     0.06544709      0.01389382     -0.15616578
    -0.00034800     -0.00088643      0.00052956
vibration 97
     0.00001679     -0.00003132      0.00001355
    -0.00001445     -0.00001856      0.00000089
     0.00037352      0.00112646     -0.00051127
    -0.00021931      0.00004991     -0.00003019
     0.00020361     -0.00024705      0.00009461
    -0.00004438     -0.00052474      0.00017885
     0.00004223     -0.00000187     -0.00000218
     0.00008907     -0.00001164      0.00004791
    -0.00154007     -0.00436107     -0.00504872
    -0.06794069      0.06473766     -0.00992976
    -0.00010602      0.00012478      0.00000894
    -0.00003171     -0.00012938      0.00013074
     0.00005693     -0.00005038     -0.00007832
     0.00000584      0.00009697     -0.00000271
    -0.00000884      0.00000266      0.00009670
     0.00000078      0.00031767     -0.00013758
    -0.00086240     -0.00002911     -0.00022672
     0.00155109     -0.00519795      0.00350829
     0.04006174     -0.05027911      0.25844686
    -0.00077747      0.00064307      0.00085440
    -0.00642726      0.01993094      0.05165309
     0.02341218      0.03743375      0.00481188
     0.76849934     -0.43621790      0.07748268
    -0.00627587     -0.28464577     -0.21662988
    -0.00005874     -0.00128431      0.00009223
     0.00128976     -0.00166824      0.00000047
     0.00765665     -0.00089819     -0.00129600
     0.00268537      0.00243072      0.00422524
     0.00007316     -0.00137390     -0.00002594
     0.00096077     -0.00316385      0.00046448
     0.00059044      0.00007623      0.00053287
    -0.00168673     -0.00101586      0.00067586
    -0.00033056     -0.00017748     -0.00033695
     0.00039431      0.00010493     -0.00094716
     0.00045553      0.00149585     -0.00147005
vibration 98
     0.00015533     -0.00009796      0.00013220
    -0.00006430     -0.00015100     -0.00001716
    -0.00001114      0.00046677     -0.00026322
    -0.00004427      0.00009630      0.00012910
     0.00000660     -0.00004967      0.00001499
     0.00006341     -0.00016529      0.00017375
    -0.00005333     -0.00002362     -0.00013793
    -0.00001184     -0.00002751     -0.00005177
     0.00009454     -0.00002273     -0.00010639
    -0.00019830      0.00009759     -0.00019006
    -0.00311212      0.00380480      0.00152731
     0.01393218      0.05382647     -0.05612049
    -0.01882562      0.01407088      0.02353014
     0.00014263      0.00152069     -0.00020133
    -0.00029958     -0.00056419      0.00028731
     0.00000431      0.00011089     -0.00002215
     0.00013121      0.00003734      0.00000293
    -0.00016773      0.00015341     -0.00011311
     0.00024118     -0.00050269      0.00187250
     0.23954920     -0.20460723     -0.27416798
    -0.00015903      0.00051143      0.00123346
    -0.00050033     -0.00055545     -0.00010347
     0.00178977     -0.00106656      0.00020979
    -0.00008905      0.00027383      0.00018185
    -0.00126442     -0.01650585      0.00172826
     0.02982796     -0.03997930     -0.00412605
    -0.00115388      0.00013325      0.00021673
    -0.00019177     -0.00023277      0.00005281
     0.00005381     -0.00013063      0.00007050
     0.00033718     -0.00093254      0.00010508
    -0.00045739     -0.00014117     -0.00104503
    -0.00059863     -0.00036972      0.00034904
     0.00137114      0.00091990      0.00146615
     0.00075876      0.00127245     -0.00221956
    -0.17303704     -0.60554337      0.64712683
vibration 99
    -0.00004313      0.00007131      0.00017213
     0.00004805      0.00008483      0.00026369
     0.00014287      0.00017541     -0.00012850
     0.00026384     -0.00019235     -0.00032598
    -0.00007411     -0.00000236      0.00002729
    -0.00001556     -0.00007118      0.00007722
     0.00005071      0.00004278      0.00032750
    -0.00004288      0.00004811      0.00009121
    -0.00010803      0.00010535      0.00008970
     0.00000376     -0.00002450     -0.00011607
    -0.00140085      0.00171648      0.00157658
     0.00443209      0.03170344     -0.02666829
     0.04677106     -0.04591786     -0.05178610
    -0.00043398     -0.00360374      0.00232867
    -0.00109430     -0.00014452      0.00064699
     0.00011829      0.00004068      0.00000849
     0.00010943     -0.00001870      0.00001969
     0.00042851     -0.00066675      0.00057455
     0.00013382     -0.00040425      0.00100601
    -0.51837449      0.44993058      0.59087106
     0.00014296     -0.00039989     -0.00117140
     0.00024317      0.00014505     -0.00003664
    -0.00031025      0.00009851     -0.00004136
    -0.00005003      0.00052812      0.00044721
     0.00193734      0.03447165     -0.00705184
     0.01127660     -0.01549115     -0.00334909
    -0.00111839      0.00012827      0.00036321
    -0.00065509     -0.00060485     -0.00151668
     0.00004638      0.00035698      0.00003465
     0.00017773     -0.00023546      0.00005288
    -0.00079712      0.00004201     -0.00091720
    -0.00090680     -0.00056937      0.00048149
     0.00316120      0.00101625      0.00312341
     0.00216512      0.00013972     -0.00416463
    -0.07736055     -0.27820273      0.29312704
[INT]
    2.443358
    2.139530
    0.234658
    0.610655
    0.808564
    0.856418
    0.251881
    0.080699
    1.253333
    3.489298
    0.975656
    5.669401
    1.429353
    3.945312
    0.540458
    3.487058
    0.496487
    6.287590
    2.621156
   13.183490
    0.273341
    2.871026
    3.393164
    6.601559
    3.671531
    1.931206
   18.078092
   36.621232
    0.737750
    8.639665
    1.546196
    9.861384
    9.558075
   12.028168
   14.978443
    8.821388
    2.545919
    9.808368
    2.505201
    2.826149
    0.024780
    1.560034
   13.973832
   18.602355
    3.593301
   22.668219
    3.088839
    4.146630
    4.372780
    4.671374
   50.411543
   77.200064
    6.076210
    0.675048
    0.430587
   19.394212
    8.671160
   19.597591
  395.648203
   51.781520
    2.817306
   13.120702
  102.267198
   11.416331
    8.107705
    6.401101
   16.220896
    3.852385
   19.693088
    8.106515
    7.590485
   15.301632
    2.197661
    9.447114
    9.808746
    0.716438
    2.279858
   24.363533
    1.962028
  218.182557
  237.362663
   11.241844
   34.457950
   22.136761
   38.916969
   29.251432
   33.705825
   16.087819
    8.325700
   20.063192
   28.558606
   30.094973
   15.801292
   11.329530
   15.269027
   19.683605
   12.079043
    3.412148
    9.384729

======= END OF MOLDEN-FORMATTED INPUT FILE =======


        *************************************************************
        *                                                           *
        *  Thank you very much for using Q-Chem.  Have a nice day.  *
        *                                                           *
        *************************************************************


