r0018.ten.osc.edu 10.25.151
Q-Chem Developer Version! Running on 10.25.151.*
                  Welcome to Q-Chem
     A Quantum Leap Into The Future Of Chemistry


 Q-Chem 5.0, Q-Chem, Inc., Pleasanton, CA (2017)

 Yihan Shao,  Zhengting Gan,  E. Epifanovsky,  A. T. B. Gilbert,  M. Wormit,  
 J. Kussmann,  A. W. Lange,  A. Behn,  Jia Deng,  Xintian Feng,  D. Ghosh,  
 M. Goldey,  P. R. Horn,  L. D. Jacobson,  I. Kaliman,  T. Kus,  A. Landau,  
 Jie Liu,  E. I. Proynov,  R. M. Richard,  R. P. Steele,  E. J. Sundstrom,  
 H. L. Woodcock III,  P. M. Zimmerman,  D. Zuev,  B. Albrecht,  E. Alguire,  
 S. A. Baeppler,  Z. Benda,  Y. A. Bernard,  E. J. Berquist,  K. B. Bravaya,  
 D. Casanova,  Chun-Min Chang,  Yunqing Chen,  A. Chien,  K. D. Closser,  
 M. P. Coons,  S. Dasgupta,  M. Diedenhofen,  Hainam Do,  R. G. Edgar,  
 Po-Tung Fang,  S. Fatehi,  Qingguo Feng,  Qinghui Ge,  A. Ghysels,  
 J. Gomes,  J. Gonthier,  A. Gunina,  M. W. D. Hanson-Heine,  
 P. H. P. Harbach,  A. W. Hauser,  J. E. Herr,  E. G. Hohenstein,  
 Z. C. Holden,  Kerwin Hui,  T.-C. Jagau,  Hyunjun Ji,  B. Kaduk,  
 K. Khistyaev,  Jaehoon Kim,  P. Klunzinger,  K. Koh,  D. Kosenkov,  
 T. Kowalczyk,  C. M. Krauter,  A. Kunitsa,  Ka Un Lao,  A. Laurent,  
 K. V. Lawler,  Joonho Lee,  D. Lefrancois,  S. Lehtola,  D. S. Levine,  
 Yi-Pei Li,  You-Sheng Lin,  Fenglai Liu,  E. Livshits,  A. Luenser,  
 P. Manohar,  E. Mansoor,  S. F. Manzer,  Shan-Ping Mao,  Yuezhi Mao,  
 N. Mardirossian,  A. V. Marenich,  L. A. Martinez-Martinez,  S. A. Maurer,  
 N. J. Mayhall,  S. C. McKenzie,  J.-M. Mewes,  A. F. Morrison,  K. Nanda,  
 T. S. Nguyen-Beck,  R. Olivares-Amaya,  J. A. Parkhill,  T. M. Perrine,  
 F. Plasser,  S. Prager,  A. Prociuk,  D. R. Rehn,  F. Rob,  M. Schneider,  
 N. Sergueev,  S. M. Sharada,  S. Sharma,  D. W. Small,  T. Stauch,  
 T. Stein,  Yu-Chuan Su,  A. J. W. Thom,  T. Tsuchimochi,  L. Vogt,  
 O. Vydrov,  M. A. Watson,  J. Wenzel,  M. de Wergifosse,  T. A. Wesolowski,  
 A. White,  J. Witte,  A. Yamada,  Jun Yang,  K. Yao,  S. Yeganeh,  
 S. R. Yost,  Zhi-Qiang You,  A. Zech,  Igor Ying Zhang,  Xing Zhang,  
 Yan Zhao,  Ying Zhu,  B. R. Brooks,  G. K. L. Chan,  C. J. Cramer,  
 M. S. Gordon,  W. J. Hehre,  A. Klamt,  M. W. Schmidt,  C. D. Sherrill,  
 D. G. Truhlar,  A. Aspuru-Guzik,  R. Baer,  A. T. Bell,  N. A. Besley,  
 Jeng-Da Chai,  A. Dreuw,  B. D. Dunietz,  T. R. Furlani,  Chao-Ping Hsu,  
 Yousung Jung,  Jing Kong,  D. S. Lambrecht,  WanZhen Liang,  C. Ochsenfeld,  
 V. A. Rassolov,  L. V. Slipchenko,  J. E. Subotnik,  T. Van Voorhis,  
 J. M. Herbert,  A. I. Krylov,  P. M. W. Gill,  M. Head-Gordon

 Contributors to earlier versions of Q-Chem not listed above: 
 R. D. Adamson,  B. Austin,  J. Baker,  G. J. O. Beran,  K. Brandhorst,  
 S. T. Brown,  E. F. C. Byrd,  A. K. Chakraborty,  C.-L. Cheng,  
 Siu Hung Chien,  D. M. Chipman,  D. L. Crittenden,  H. Dachsel,  
 R. A. DiStasio Jr.,  R. J. Doerksen,  A. D. Dutoi,  L. Fusti-Molnar,  
 W. A. Goddard III,  A. Golubeva-Zadorozhnaya,  S. R. Gwaltney,  G. Hawkins,  
 A. Heyden,  S. Hirata,  G. Kedziora,  F. J. Keil,  C. Kelley,  Jihan Kim,  
 R. A. King,  R. Z. Khaliullin,  P. P. Korambath,  W. Kurlancheek,  
 A. M. Lee,  M. S. Lee,  S. V. Levchenko,  Ching Yeh Lin,  D. Liotard,  
 R. C. Lochan,  I. Lotan,  P. E. Maslen,  N. Nair,  D. P. O'Neill,  
 D. Neuhauser,  E. Neuscamman,  C. M. Oana,  R. Olson,  B. Peters,  
 R. Peverati,  P. A. Pieniazek,  Y. M. Rhee,  J. Ritchie,  M. A. Rohrdanz,  
 E. Rosta,  N. J. Russ,  H. F. Schaefer III,  N. E. Schultz,  N. Shenvi,  
 A. C. Simmonett,  A. Sodt,  D. Stuck,  K. S. Thanthiriwatte,  V. Vanovschi,  
 Tao Wang,  A. Warshel,  C. F. Williams,  Q. Wu,  X. Xu,  W. Zhang

 Please cite Q-Chem as follows:
 Y. Shao et al., Mol. Phys. 113, 184-215 (2015)
 DOI: 10.1080/00268976.2014.952696

 Q-Chem 5.0.1 for Intel X86 EM64T Linux

 Parts of Q-Chem use Armadillo 5.200.1 (Boston Tea Smuggler).
 http://arma.sourceforge.net/

 Q-Chem begins on Tue Oct 24 07:53:21 2017  

Host: r0018.ten.osc.edu
0

     Scratch files written to /tmp/pbstmp.1324374/04//
Processing $rem in /users/PAS0291/osu6415/.qchemrc.
molden_format             true

Checking the input file for inconsistencies... 	...done.

--------------------------------------------------------------
User input:
--------------------------------------------------------------
$molecule
0 1
C 1.21265674 -0.25957660 -0.41077702
C 0.16496872 0.95670980 -0.56678863
C 0.55766830 -1.63757484 -0.24616589
C -1.28658220 0.48735077 -0.60554300
O -0.40712299 -1.66020164 0.69649231
O 0.87032778 -2.61924704 -0.87518751
O -2.06922860 1.10068584 0.30176244
O -1.72146060 -0.27044097 -1.44163368
C -3.46457199 0.75022655 0.26694566
C -1.16542240 -2.87828098 0.79387575
C 2.00066485 0.18789881 0.90122497
C 1.06848134 0.16679393 2.10162848
C 0.20582093 1.17558872 1.95865891
C 0.54526516 1.88482435 0.65854031
C 2.08065989 1.71484415 0.67039667
C 2.19424478 -0.38896997 -1.58626409
C 0.31031733 1.74995164 -1.88763451
H -3.89619347 0.99135962 -0.70550203
H -0.50976330 -3.72960146 0.97921866
H -0.65605853 1.39431664 2.57153888
H -3.93162270 1.34036460 1.05255708
H -3.59176469 -0.31584221 0.46091130
H -1.84685074 -2.72821381 1.62897775
H -1.72095590 -3.04116302 -0.13149865
H 0.15289827 2.89499318 0.54807638
H 2.93980933 -0.35472564 1.01132965
H 1.28961647 2.21791464 -1.97494439
H 0.14693378 1.10840009 -2.75307075
H -0.43964384 2.54607069 -1.91215382
H 2.90367285 -1.19094581 -1.38123311
H 1.67549516 -0.64976909 -2.50900242
H 2.75507283 0.52982065 -1.74954331
H 2.54586384 2.23211298 1.51012499
H 2.57973889 2.00855695 -0.25275442
H 1.05204443 -0.60667806 2.85672033
$end

$rem
sym_ignore      true
jobtype         opt
method          b3lyp
basis           6-311++G(d,p)
dft_d           d3_op
mem_total       62000
MEM_STATIC      4000
ao2mo_disk      350000
max_scf_cycles  200
geom_opt_max_cycles 1000
geom_opt_tol_displacement 1
GEOM_OPT_TOL_GRADIENT       1
GEOM_OPT_TOL_ENERGY         1
$end

--------------------------------------------------------------
 Adding empirical dispersion correction 
 ----------------------------------------------------------------
 Doing -D3(op) with
 s6 =   1.00000
 s8 =   0.78311
 a1 =   0.30000
 a2 =   4.25000
 n  =  10.00000
 -D3 energy without 3body term =     -0.0478080428 hartrees
 ----------------------------------------------------------------
             Standard Nuclear Orientation (Angstroms)
    I     Atom           X                Y                Z
 ----------------------------------------------------------------
    1      C       1.2126567400    -0.2595766000    -0.4107770200
    2      C       0.1649687200     0.9567098000    -0.5667886300
    3      C       0.5576683000    -1.6375748400    -0.2461658900
    4      C      -1.2865822000     0.4873507700    -0.6055430000
    5      O      -0.4071229900    -1.6602016400     0.6964923100
    6      O       0.8703277800    -2.6192470400    -0.8751875100
    7      O      -2.0692286000     1.1006858400     0.3017624400
    8      O      -1.7214606000    -0.2704409700    -1.4416336800
    9      C      -3.4645719900     0.7502265500     0.2669456600
   10      C      -1.1654224000    -2.8782809800     0.7938757500
   11      C       2.0006648500     0.1878988100     0.9012249700
   12      C       1.0684813400     0.1667939300     2.1016284800
   13      C       0.2058209300     1.1755887200     1.9586589100
   14      C       0.5452651600     1.8848243500     0.6585403100
   15      C       2.0806598900     1.7148441500     0.6703966700
   16      C       2.1942447800    -0.3889699700    -1.5862640900
   17      C       0.3103173300     1.7499516400    -1.8876345100
   18      H      -3.8961934700     0.9913596200    -0.7055020300
   19      H      -0.5097633000    -3.7296014600     0.9792186600
   20      H      -0.6560585300     1.3943166400     2.5715388800
   21      H      -3.9316227000     1.3403646000     1.0525570800
   22      H      -3.5917646900    -0.3158422100     0.4609113000
   23      H      -1.8468507400    -2.7282138100     1.6289777500
   24      H      -1.7209559000    -3.0411630200    -0.1314986500
   25      H       0.1528982700     2.8949931800     0.5480763800
   26      H       2.9398093300    -0.3547256400     1.0113296500
   27      H       1.2896164700     2.2179146400    -1.9749443900
   28      H       0.1469337800     1.1084000900    -2.7530707500
   29      H      -0.4396438400     2.5460706900    -1.9121538200
   30      H       2.9036728500    -1.1909458100    -1.3812331100
   31      H       1.6754951600    -0.6497690900    -2.5090024200
   32      H       2.7550728300     0.5298206500    -1.7495433100
   33      H       2.5458638400     2.2321129800     1.5101249900
   34      H       2.5797388900     2.0085569500    -0.2527544200
   35      H       1.0520444300    -0.6066780600     2.8567203300
 ----------------------------------------------------------------
 Nuclear Repulsion Energy =  1395.3534442077 hartrees
 There are       64 alpha and       64 beta electrons
 Requested basis set is 6-311++G(d,p)
 There are 192 shells and 500 basis functions

 Total QAlloc Memory Limit  62000 MB
 Mega-Array Size      3911 MB
 MEM_STATIC part      4000 MB
 A cutoff of  1.0D-11 yielded  15488 shell pairs
 There are    107576 function pairs (    114842 Cartesian)
 
 -------------------------------------------------------
 OpenMP Integral Computing Module                       
 Release: version 1.0, May 2013, Q-Chem Inc. Pittsburgh 
 -------------------------------------------------------
 Integral Job Info:
 Integral job number is                      11
 Integral operator is                         1
 short-range coefficients                     0
 long-range coefficients              100000000
 Omega coefficients                           0
 if combine SR and LR in K                    0
 Integral screening is                        0
 Integral computing path is                   2
 max size of driver memory is            800000
 size of driver memory is                593474
 size of scratch memory is              2361544
 max col of scratch BK array               1296
 max len of scratch array in speh3          155
 max len of scratch index in speh4           18
 max int batch size is                      520
 min int batch size is                       52
 fixed nKL is                                52
 max L of basis functions is                  2
 order of int derivative is                   0
 number of shells is                        192
 number of basis is                         517
 number of cartesian basis is               517
 number of contracted shell pairs         15488
 number of primitive shell pairs          34018
 maxK2 (contraction) of shell pair           36
 max number of K2 of shell pair               1
 max number of CS2 of shell pair           2883
 max number of PS2 of shell pair           4950
 mem total for path MDJ                  189272
 -------------------------------------------------------
 Smallest overlap matrix eigenvalue = 7.20E-07

 Q-Chem warning in module /fs/scratch/osu6415/qchem-kaunlao-vdw/stvman/mkSTV.C, line 281:

 Overlap eigenvalue is smaller than square root of threshold

 Linear dependence detected in AO basis
 Number of orthogonalized atomic orbitals = 498
 Maximum deviation from orthogonality = 1.705E-10

 Scale SEOQF with 1.000000e-01/1.000000e-01/1.000000e-01

 Standard Electronic Orientation quadrupole field applied
 Nucleus-field energy     =     0.0000000141 hartrees
 Guess from superposition of atomic densities
 Warning:  Energy on first SCF cycle will be non-variational
 A restricted hybrid HF-DFT SCF calculation will be
 performed using Pulay DIIS extrapolation
 Exchange:     0.2000 Hartree-Fock + 0.0800 Slater + 0.7200 B88
 Correlation:  0.1900 VWN1RPA + 0.8100 LYP
 Using SG-1 standard quadrature grid
 Dispersion:   Grimme D3
 SCF converges when DIIS error is below 1.0E-08
 using 20 threads for integral computing
 -------------------------------------------------------
 OpenMP Integral computing Module                
 Release: version 1.0, May 2013, Q-Chem Inc. Pittsburgh 
 -------------------------------------------------------
 -------------------------------------------------------
 OpenMP BLAS3 based DFT computing Module                
 Release: version 1.0, May 2013, Q-Chem Inc. Pittsburgh 
 -------------------------------------------------------
 ---------------------------------------
  Cycle       Energy         DIIS Error
 ---------------------------------------
    1    -810.8916764327      2.82E-02
    2    -806.9904304966      3.70E-03
    3    -806.4912049396      5.96E-03
    4    -807.3102731016      1.41E-03
    5    -807.3560328644      3.77E-04
    6    -807.3588961129      1.40E-04
    7    -807.3593520779      3.19E-05
    8    -807.3593733098      1.27E-05
    9    -807.3593777881      2.79E-06
   10    -807.3593779530      1.47E-06
   11    -807.3593780035      4.54E-07
   12    -807.3593780088      1.37E-07
   13    -807.3593780086      5.39E-08
   14    -807.3593780087      1.38E-08
   15    -807.3593780096      3.66E-09 Convergence criterion met
 ---------------------------------------
 SCF time:  CPU 1309.93 s  wall 72.16 s
 SCF   energy in the final basis set = -807.35937801
 Total energy in the final basis set = -807.35937801
 
 --------------------------------------------------------------
 
                    Orbital Energies (a.u.)
 --------------------------------------------------------------
 
 Alpha MOs
 -- Occupied --
-19.175 -19.166 -19.112 -19.109 -10.304 -10.298 -10.232 -10.224
-10.213 -10.211 -10.192 -10.188 -10.175 -10.172 -10.167 -10.166
-10.160  -1.117  -1.108  -1.026  -1.020  -0.899  -0.803  -0.779
 -0.741  -0.729  -0.711  -0.688  -0.667  -0.611  -0.585  -0.569
 -0.553  -0.539  -0.535  -0.517  -0.501  -0.485  -0.482  -0.474
 -0.458  -0.456  -0.444  -0.425  -0.422  -0.411  -0.404  -0.399
 -0.395  -0.382  -0.379  -0.375  -0.373  -0.362  -0.353  -0.351
 -0.345  -0.328  -0.317  -0.315  -0.306  -0.282  -0.276  -0.244
 -- Virtual --
 -0.014  -0.011  -0.003   0.001   0.003   0.007   0.011   0.016
  0.020   0.023   0.029   0.035   0.040   0.045   0.047   0.052
  0.052   0.060   0.065   0.068   0.077   0.082   0.085   0.089
  0.098   0.099   0.104   0.106   0.108   0.109   0.113   0.113
  0.117   0.118   0.122   0.124   0.128   0.132   0.136   0.139
  0.141   0.143   0.146   0.149   0.151   0.153   0.156   0.159
  0.160   0.163   0.165   0.166   0.172   0.176   0.178   0.182
  0.185   0.189   0.190   0.192   0.193   0.204   0.205   0.209
  0.214   0.215   0.219   0.221   0.223   0.226   0.231   0.234
  0.238   0.240   0.249   0.252   0.260   0.266   0.270   0.270
  0.274   0.277   0.278   0.288   0.296   0.300   0.307   0.309
  0.313   0.318   0.322   0.329   0.332   0.337   0.338   0.342
  0.346   0.349   0.351   0.357   0.362   0.366   0.368   0.374
  0.376   0.385   0.391   0.392   0.398   0.404   0.406   0.413
  0.419   0.430   0.438   0.444   0.455   0.462   0.472   0.482
  0.494   0.507   0.509   0.518   0.530   0.532   0.541   0.545
  0.548   0.559   0.567   0.584   0.598   0.602   0.606   0.608
  0.617   0.628   0.629   0.632   0.635   0.642   0.653   0.654
  0.662   0.668   0.676   0.681   0.687   0.692   0.697   0.703
  0.707   0.715   0.721   0.724   0.726   0.734   0.740   0.747
  0.754   0.759   0.767   0.773   0.787   0.788   0.791   0.799
  0.804   0.812   0.826   0.834   0.837   0.839   0.853   0.862
  0.881   0.896   0.910   0.917   0.959   0.966   0.985   0.989
  1.036   1.055   1.066   1.073   1.086   1.097   1.104   1.113
  1.127   1.150   1.155   1.163   1.167   1.203   1.224   1.229
  1.238   1.254   1.281   1.283   1.300   1.315   1.319   1.332
  1.336   1.344   1.364   1.373   1.386   1.395   1.407   1.423
  1.427   1.443   1.456   1.464   1.470   1.475   1.498   1.501
  1.508   1.512   1.528   1.532   1.550   1.557   1.570   1.578
  1.583   1.587   1.593   1.606   1.616   1.623   1.637   1.639
  1.658   1.668   1.676   1.691   1.697   1.703   1.707   1.721
  1.729   1.735   1.747   1.751   1.757   1.766   1.771   1.784
  1.791   1.798   1.807   1.815   1.831   1.837   1.851   1.869
  1.874   1.881   1.892   1.905   1.908   1.930   1.939   1.950
  1.954   1.968   1.973   2.003   2.010   2.014   2.026   2.035
  2.045   2.050   2.063   2.075   2.120   2.125   2.134   2.156
  2.164   2.169   2.178   2.200   2.209   2.217   2.241   2.251
  2.257   2.274   2.283   2.313   2.320   2.330   2.368   2.405
  2.425   2.444   2.452   2.458   2.480   2.493   2.512   2.525
  2.529   2.536   2.546   2.548   2.559   2.574   2.584   2.590
  2.607   2.615   2.624   2.636   2.637   2.662   2.674   2.682
  2.699   2.716   2.731   2.743   2.751   2.774   2.781   2.806
  2.824   2.837   2.844   2.855   2.865   2.879   2.895   2.915
  2.940   2.947   2.959   2.986   2.993   3.014   3.040   3.051
  3.053   3.069   3.079   3.093   3.106   3.112   3.129   3.145
  3.158   3.173   3.200   3.226   3.229   3.242   3.260   3.280
  3.321   3.343   3.359   3.386   3.406   3.432   3.473   3.496
  3.545   3.616   3.624   3.644   3.761   3.775   3.778   3.789
  3.801   3.810   3.831   3.850   3.863   3.871   3.874   4.058
  4.069   4.084   4.090   4.119   4.145   4.172   4.184   4.202
  4.231   4.258   4.304   4.382   4.467   5.070   5.116   5.158
  5.205   5.280   5.283   5.431   5.472   5.645   5.657   5.896
  5.919  23.817  23.837  23.850  23.879  23.896  23.907  23.936
 23.951  24.002  24.014  24.035  24.068  24.328  49.933  49.947
 50.041  50.075
 --------------------------------------------------------------
 
          Ground-State Mulliken Net Atomic Charges

     Atom                 Charge (a.u.)
  ----------------------------------------
      1 C                    -0.098201
      2 C                    -0.296956
      3 C                    -0.363568
      4 C                    -0.106314
      5 O                    -0.038306
      6 O                    -0.193983
      7 O                     0.032206
      8 O                    -0.177455
      9 C                    -0.168597
     10 C                    -0.210371
     11 C                     0.297722
     12 C                    -0.434150
     13 C                    -0.360264
     14 C                     0.296286
     15 C                    -0.727105
     16 C                    -0.292876
     17 C                    -0.311297
     18 H                     0.172431
     19 H                     0.184450
     20 H                     0.151603
     21 H                     0.151534
     22 H                     0.170414
     23 H                     0.149715
     24 H                     0.206439
     25 H                     0.263133
     26 H                     0.262393
     27 H                     0.147103
     28 H                     0.174651
     29 H                     0.176456
     30 H                     0.197119
     31 H                     0.205706
     32 H                     0.107263
     33 H                     0.189352
     34 H                     0.098534
     35 H                     0.144935
  ----------------------------------------
  Sum of atomic charges =    -0.000000

 -----------------------------------------------------------------
                    Cartesian Multipole Moments
 -----------------------------------------------------------------
    Charge (ESU x 10^10)
                -0.0000
    Dipole Moment (Debye)
         X      -1.1451      Y       2.1082      Z       2.1075
       Tot       3.1933
    Quadrupole Moments (Debye-Ang)
        XX     -93.1060     XY       2.7329     YY    -103.4363
        XZ      -4.4442     YZ      -8.8817     ZZ    -105.6429
    Octopole Moments (Debye-Ang^2)
       XXX     -51.0077    XXY       1.3134    XYY     -25.7373
       YYY      -6.4897    XXZ       9.3317    XYZ      -2.6694
       YYZ      13.6678    XZZ      -7.0423    YZZ      -3.5925
       ZZZ      -4.0707
    Hexadecapole Moments (Debye-Ang^3)
      XXXX   -1620.9014   XXXY     -64.7432   XXYY    -529.8288
      XYYY      19.1129   YYYY   -1519.3359   XXXZ     -13.5201
      XXYZ     -16.8450   XYYZ       7.7412   YYYZ     -66.8094
      XXZZ    -467.4761   XYZZ     -20.4726   YYZZ    -425.0266
      XZZZ     -14.7615   YZZZ     -31.3457   ZZZZ   -1014.9073
 -----------------------------------------------------------------
 Calculating analytic gradient of the SCF energy
 Gradient of SCF Energy
            1           2           3           4           5           6
    1  -0.0000848  -0.0001340   0.0004222   0.0005083   0.0000087  -0.0003131
    2   0.0001638   0.0003708  -0.0001534  -0.0016032   0.0000182   0.0000883
    3   0.0013991  -0.0021344   0.0003710   0.0016587  -0.0000705  -0.0004156
            7           8           9          10          11          12
    1   0.0000198  -0.0003578  -0.0000316  -0.0000178  -0.0000408   0.0000122
    2   0.0000338   0.0011608  -0.0000094  -0.0000370   0.0000371  -0.0000162
    3   0.0000367  -0.0008792   0.0000154  -0.0000345  -0.0000544   0.0000276
           13          14          15          16          17          18
    1   0.0000071   0.0000228   0.0000478  -0.0000288  -0.0000221   0.0000029
    2  -0.0000442  -0.0000441   0.0000095   0.0000101   0.0000224   0.0000306
    3   0.0000125   0.0000464   0.0000532  -0.0000088   0.0000383   0.0000217
           19          20          21          22          23          24
    1  -0.0000060   0.0000054   0.0000070   0.0000005  -0.0000046  -0.0000083
    2  -0.0000122  -0.0000314  -0.0000068   0.0000038  -0.0000186   0.0000071
    3  -0.0000642   0.0000122   0.0000293  -0.0000066  -0.0000446  -0.0000497
           25          26          27          28          29          30
    1   0.0000067  -0.0000028  -0.0000004   0.0000151   0.0000011  -0.0000165
    2  -0.0000045  -0.0000480   0.0000500   0.0000459   0.0000343  -0.0000016
    3   0.0000336  -0.0000128   0.0000317   0.0000125   0.0000355  -0.0000408
           31          32          33          34          35
    1  -0.0000119   0.0000087   0.0000010  -0.0000208   0.0000047
    2   0.0000585   0.0000154  -0.0000316  -0.0000330  -0.0000653
    3  -0.0000236  -0.0000002   0.0000316   0.0000078  -0.0000348
 Max gradient component =       2.134E-03
 RMS gradient           =       3.808E-04
 Gradient time:  CPU 431.43 s  wall 30.67 s
 Geometry Optimization Parameters
   NAtoms,    NIC,     NZ,  NCons,   NDum,   NFix, NCnnct, MaxDiis
       35     275       0       0       0       0       0       0


** GEOMETRY OPTIMIZATION IN DELOCALIZED INTERNAL COORDINATES **
   Searching for a Minimum

   Optimization Cycle:   1

                       Coordinates (Angstroms)
     ATOM                X               Y               Z
      1  C         1.2126567400   -0.2595766000   -0.4107770200
      2  C         0.1649687200    0.9567098000   -0.5667886300
      3  C         0.5576683000   -1.6375748400   -0.2461658900
      4  C        -1.2865822000    0.4873507700   -0.6055430000
      5  O        -0.4071229900   -1.6602016400    0.6964923100
      6  O         0.8703277800   -2.6192470400   -0.8751875100
      7  O        -2.0692286000    1.1006858400    0.3017624400
      8  O        -1.7214606000   -0.2704409700   -1.4416336800
      9  C        -3.4645719900    0.7502265500    0.2669456600
     10  C        -1.1654224000   -2.8782809800    0.7938757500
     11  C         2.0006648500    0.1878988100    0.9012249700
     12  C         1.0684813400    0.1667939300    2.1016284800
     13  C         0.2058209300    1.1755887200    1.9586589100
     14  C         0.5452651600    1.8848243500    0.6585403100
     15  C         2.0806598900    1.7148441500    0.6703966700
     16  C         2.1942447800   -0.3889699700   -1.5862640900
     17  C         0.3103173300    1.7499516400   -1.8876345100
     18  H        -3.8961934700    0.9913596200   -0.7055020300
     19  H        -0.5097633000   -3.7296014600    0.9792186600
     20  H        -0.6560585300    1.3943166400    2.5715388800
     21  H        -3.9316227000    1.3403646000    1.0525570800
     22  H        -3.5917646900   -0.3158422100    0.4609113000
     23  H        -1.8468507400   -2.7282138100    1.6289777500
     24  H        -1.7209559000   -3.0411630200   -0.1314986500
     25  H         0.1528982700    2.8949931800    0.5480763800
     26  H         2.9398093300   -0.3547256400    1.0113296500
     27  H         1.2896164700    2.2179146400   -1.9749443900
     28  H         0.1469337800    1.1084000900   -2.7530707500
     29  H        -0.4396438400    2.5460706900   -1.9121538200
     30  H         2.9036728500   -1.1909458100   -1.3812331100
     31  H         1.6754951600   -0.6497690900   -2.5090024200
     32  H         2.7550728300    0.5298206500   -1.7495433100
     33  H         2.5458638400    2.2321129800    1.5101249900
     34  H         2.5797388900    2.0085569500   -0.2527544200
     35  H         1.0520444300   -0.6066780600    2.8567203300
   Point Group: c1    Number of degrees of freedom:    99


   Energy is   -807.359378010


 Attempting to Generate Delocalized Internal Coordinates

 99 Hessian modes will be used to form the next step
  Hessian Eigenvalues:
     0.002885    0.004191    0.004299    0.004602    0.005734    0.008909
     0.010336    0.010473    0.010601    0.013063    0.017105    0.017202
     0.020427    0.022385    0.022779    0.028404    0.033448    0.041709
     0.044835    0.047211    0.048044    0.049474    0.052640    0.053391
     0.053639    0.054254    0.055836    0.056797    0.056835    0.057357
     0.068102    0.071703    0.078126    0.087507    0.095239    0.101276
     0.101472    0.105927    0.106262    0.109685    0.116425    0.131427
     0.156554    0.158567    0.160000    0.160000    0.160000    0.160000
     0.160000    0.160000    0.160000    0.160000    0.160000    0.160000
     0.160000    0.160000    0.163130    0.206790    0.209990    0.238212
     0.244190    0.248047    0.249138    0.249984    0.250000    0.250000
     0.250000    0.250000    0.272860    0.278582    0.287963    0.290030
     0.297921    0.299781    0.343538    0.346349    0.346962    0.347070
     0.347583    0.347656    0.347881    0.347884    0.347919    0.348415
     0.348571    0.348926    0.349435    0.349581    0.350172    0.350533
     0.358664    0.359999    0.397087    0.398430    0.516650    0.552238
     0.558649    1.002839    1.013322

 Minimum Search - Taking Simple RFO Step
 Searching for Lamda that Minimizes Along All modes
 Value Taken    Lamda =  -0.00036058
 Step Taken.  Stepsize is  0.225574

                             Maximum     Tolerance    Cnvgd?
         Gradient           0.000684      0.000001      NO
         Displacement       0.105991      0.000001      NO
         Energy change     *********      0.000000      NO


 New Cartesian Coordinates Obtained by Inverse Iteration

 Displacement from previous Coordinates is:  0.326363
 Adding empirical dispersion correction 
 ----------------------------------------------------------------
 Doing -D3(op) with
 s6 =   1.00000
 s8 =   0.78311
 a1 =   0.30000
 a2 =   4.25000
 n  =  10.00000
 -D3 energy without 3body term =     -0.0478431084 hartrees
 ----------------------------------------------------------------
             Standard Nuclear Orientation (Angstroms)
    I     Atom           X                Y                Z
 ----------------------------------------------------------------
    1      C       1.2106902098    -0.2580212039    -0.4148725292
    2      C       0.1640053754     0.9599028748    -0.5607439438
    3      C       0.5550824175    -1.6359104839    -0.2520039135
    4      C      -1.2882978663     0.4930159990    -0.6019764060
    5      O      -0.4202145548    -1.6552289748     0.6798955210
    6      O       0.8921744332    -2.6254450617    -0.8555184456
    7      O      -2.0831321453     1.1409658075     0.2699461270
    8      O      -1.7006890667    -0.3437979194    -1.3714315596
    9      C      -3.4710095171     0.7607969145     0.2570499379
   10      C      -1.1689762309    -2.8785984931     0.7840778586
   11      C       2.0022110607     0.1845783472     0.8971044756
   12      C       1.0732404671     0.1605681334     2.1000878980
   13      C       0.2122609925     1.1718272348     1.9641480409
   14      C       0.5482775170     1.8848666851     0.6652765013
   15      C       2.0834336275     1.7124730852     0.6717733234
   16      C       2.1896806133    -0.3837123067    -1.5929318927
   17      C       0.3090936993     1.7545485319    -1.8807674227
   18      H      -3.9074560047     0.9364231738    -0.7272086087
   19      H      -0.5081547091    -3.7217485581     0.9875475350
   20      H      -0.6470683032     1.3898138614     2.5808643855
   21      H      -3.9500092214     1.3857535994     1.0077643377
   22      H      -3.5764620411    -0.2946329662     0.5125038175
   23      H      -1.8611535453    -2.7241008286     1.6094776943
   24      H      -1.7125105770    -3.0579326888    -0.1453706514
   25      H       0.1567402774     2.8957743430     0.5587938929
   26      H       2.9411492245    -0.3592000607     1.0030657707
   27      H       1.2901186911     2.2184918940    -1.9700070380
   28      H       0.1406617050     1.1149560381    -2.7466873648
   29      H      -0.4376403913     2.5537815434    -1.9020677413
   30      H       2.9005058740    -1.1852865410    -1.3912175866
   31      H       1.6691507903    -0.6431265359    -2.5150517031
   32      H       2.7490932872     0.5360842005    -1.7553877601
   33      H       2.5518688407     2.2258605019     1.5120902054
   34      H       2.5803577463     2.0092197773    -0.2515783105
   35      H       1.0579570446    -0.6154064635     2.8526388451
 ----------------------------------------------------------------
 Nuclear Repulsion Energy =  1396.0080231395 hartrees
 There are       64 alpha and       64 beta electrons
 Applying Cartesian multipole field
    Component          Value
    ---------          -----
     (2,0,0)        1.00000E-11
     (0,2,0)        2.00000E-11
     (0,0,2)       -3.00000E-11
 Nucleus-field energy     =     0.0000000145 hartrees
 Requested basis set is 6-311++G(d,p)
 There are 192 shells and 500 basis functions
 A cutoff of  1.0D-11 yielded  15481 shell pairs
 There are    107462 function pairs (    114718 Cartesian)
 Smallest overlap matrix eigenvalue = 7.27E-07

 Q-Chem warning in module /fs/scratch/osu6415/qchem-kaunlao-vdw/stvman/mkSTV.C, line 281:

 Overlap eigenvalue is smaller than square root of threshold

 Linear dependence detected in AO basis
 Number of orthogonalized atomic orbitals = 499
 Maximum deviation from orthogonality = 2.867E-10
 No. of orbitals has changed due to linear dependencies.  Generating new SCF guess.
 Guess from superposition of atomic densities
 Warning:  Energy on first SCF cycle will be non-variational
 A restricted hybrid HF-DFT SCF calculation will be
 performed using Pulay DIIS extrapolation
 Exchange:     0.2000 Hartree-Fock + 0.0800 Slater + 0.7200 B88
 Correlation:  0.1900 VWN1RPA + 0.8100 LYP
 Using SG-1 standard quadrature grid
 Dispersion:   Grimme D3
 SCF converges when DIIS error is below 1.0E-08
 Geometry optimization detected.  Setting ReadMinima to 0
 Setting SaveMinima to 0
 using 20 threads for integral computing
 -------------------------------------------------------
 OpenMP Integral computing Module                
 Release: version 1.0, May 2013, Q-Chem Inc. Pittsburgh 
 -------------------------------------------------------
 -------------------------------------------------------
 OpenMP BLAS3 based DFT computing Module                
 Release: version 1.0, May 2013, Q-Chem Inc. Pittsburgh 
 -------------------------------------------------------
 ---------------------------------------
  Cycle       Energy         DIIS Error
 ---------------------------------------
    1    -810.8926115737      2.82E-02
    2    -806.9909012045      3.69E-03
    3    -806.4982573034      5.93E-03
    4    -807.3113727965      1.39E-03
    5    -807.3558445861      3.74E-04
    6    -807.3586829743      1.39E-04
    7    -807.3591342255      3.17E-05
    8    -807.3591553750      1.27E-05
    9    -807.3591598709      2.84E-06
   10    -807.3591600410      1.50E-06
   11    -807.3591600929      4.53E-07
   12    -807.3591600980      1.38E-07
   13    -807.3591600979      5.35E-08
   14    -807.3591600977      1.38E-08
   15    -807.3591600987      3.67E-09 Convergence criterion met
 ---------------------------------------
 SCF time:  CPU 1311.26 s  wall 72.63 s
 SCF   energy in the final basis set = -807.35916010
 Total energy in the final basis set = -807.35916010
 
 --------------------------------------------------------------
 
                    Orbital Energies (a.u.)
 --------------------------------------------------------------
 
 Alpha MOs
 -- Occupied --
-19.176 -19.163 -19.112 -19.107 -10.304 -10.297 -10.232 -10.222
-10.213 -10.211 -10.192 -10.188 -10.175 -10.173 -10.168 -10.166
-10.160  -1.117  -1.107  -1.026  -1.019  -0.899  -0.804  -0.779
 -0.741  -0.728  -0.711  -0.688  -0.667  -0.611  -0.584  -0.569
 -0.552  -0.539  -0.535  -0.517  -0.501  -0.484  -0.482  -0.473
 -0.458  -0.456  -0.444  -0.425  -0.422  -0.411  -0.404  -0.399
 -0.394  -0.383  -0.379  -0.375  -0.372  -0.361  -0.353  -0.351
 -0.345  -0.328  -0.317  -0.316  -0.303  -0.282  -0.275  -0.244
 -- Virtual --
 -0.015  -0.010  -0.003   0.000   0.003   0.008   0.012   0.016
  0.020   0.023   0.029   0.035   0.040   0.045   0.047   0.052
  0.052   0.060   0.065   0.068   0.077   0.082   0.084   0.090
  0.098   0.099   0.104   0.106   0.108   0.109   0.112   0.114
  0.117   0.118   0.121   0.123   0.128   0.132   0.136   0.139
  0.140   0.143   0.146   0.148   0.151   0.153   0.156   0.159
  0.160   0.163   0.165   0.166   0.172   0.173   0.178   0.183
  0.184   0.189   0.189   0.191   0.193   0.204   0.205   0.208
  0.213   0.214   0.218   0.220   0.223   0.226   0.231   0.234
  0.237   0.239   0.249   0.251   0.261   0.265   0.268   0.270
  0.274   0.276   0.278   0.288   0.296   0.299   0.301   0.308
  0.312   0.315   0.322   0.325   0.329   0.333   0.338   0.339
  0.345   0.347   0.350   0.355   0.361   0.365   0.367   0.371
  0.375   0.378   0.385   0.392   0.396   0.403   0.406   0.412
  0.419   0.424   0.432   0.441   0.445   0.458   0.465   0.470
  0.483   0.497   0.506   0.513   0.521   0.532   0.538   0.543
  0.548   0.552   0.560   0.568   0.587   0.598   0.602   0.606
  0.609   0.618   0.628   0.629   0.633   0.636   0.652   0.654
  0.662   0.662   0.668   0.677   0.683   0.685   0.693   0.699
  0.707   0.712   0.717   0.724   0.725   0.726   0.735   0.742
  0.746   0.756   0.758   0.770   0.776   0.789   0.791   0.797
  0.798   0.809   0.815   0.826   0.833   0.835   0.846   0.853
  0.862   0.884   0.894   0.911   0.919   0.957   0.969   0.984
  0.990   1.040   1.058   1.064   1.072   1.085   1.098   1.109
  1.117   1.128   1.150   1.155   1.165   1.166   1.201   1.225
  1.227   1.242   1.259   1.278   1.283   1.298   1.319   1.324
  1.330   1.337   1.348   1.365   1.375   1.388   1.398   1.409
  1.421   1.434   1.445   1.457   1.468   1.471   1.477   1.500
  1.504   1.506   1.513   1.529   1.532   1.552   1.556   1.572
  1.578   1.584   1.587   1.597   1.607   1.616   1.623   1.640
  1.645   1.658   1.668   1.680   1.689   1.698   1.703   1.710
  1.721   1.734   1.738   1.749   1.751   1.757   1.766   1.775
  1.784   1.789   1.795   1.808   1.817   1.830   1.835   1.849
  1.870   1.872   1.882   1.889   1.907   1.910   1.930   1.938
  1.949   1.951   1.964   1.977   2.003   2.009   2.015   2.035
  2.040   2.041   2.047   2.063   2.073   2.121   2.126   2.136
  2.158   2.166   2.169   2.176   2.199   2.209   2.220   2.239
  2.253   2.258   2.272   2.285   2.316   2.321   2.334   2.368
  2.406   2.424   2.444   2.452   2.458   2.481   2.498   2.512
  2.528   2.531   2.537   2.547   2.549   2.560   2.574   2.584
  2.592   2.608   2.617   2.629   2.636   2.637   2.665   2.676
  2.681   2.702   2.717   2.732   2.743   2.752   2.779   2.781
  2.808   2.824   2.838   2.846   2.860   2.866   2.880   2.898
  2.918   2.940   2.951   2.962   2.985   2.994   3.017   3.039
  3.053   3.055   3.069   3.078   3.093   3.106   3.115   3.132
  3.143   3.161   3.175   3.200   3.226   3.230   3.244   3.265
  3.277   3.320   3.345   3.359   3.389   3.406   3.432   3.472
  3.499   3.546   3.616   3.626   3.644   3.761   3.777   3.778
  3.790   3.800   3.811   3.832   3.850   3.863   3.870   3.876
  4.057   4.070   4.081   4.092   4.118   4.147   4.173   4.184
  4.202   4.230   4.257   4.306   4.381   4.469   5.060   5.112
  5.154   5.235   5.281   5.291   5.425   5.474   5.646   5.658
  5.895   5.922  23.819  23.837  23.852  23.878  23.895  23.907
 23.936  23.954  24.002  24.015  24.037  24.071  24.328  49.929
 49.949  50.039  50.079
 --------------------------------------------------------------
 
          Ground-State Mulliken Net Atomic Charges

     Atom                 Charge (a.u.)
  ----------------------------------------
      1 C                    -0.071545
      2 C                     0.038582
      3 C                    -0.432750
      4 C                    -0.579264
      5 O                    -0.034440
      6 O                    -0.198940
      7 O                     0.027436
      8 O                    -0.187685
      9 C                    -0.166176
     10 C                    -0.208947
     11 C                     0.254200
     12 C                    -0.363986
     13 C                    -0.499916
     14 C                     0.503732
     15 C                    -0.704468
     16 C                    -0.282971
     17 C                    -0.244400
     18 H                     0.173235
     19 H                     0.185788
     20 H                     0.147506
     21 H                     0.154786
     22 H                     0.169043
     23 H                     0.148446
     24 H                     0.204405
     25 H                     0.265306
     26 H                     0.261806
     27 H                     0.152107
     28 H                     0.174187
     29 H                     0.172151
     30 H                     0.196901
     31 H                     0.205071
     32 H                     0.107833
     33 H                     0.192251
     34 H                     0.096852
     35 H                     0.143862
  ----------------------------------------
  Sum of atomic charges =    -0.000000

 -----------------------------------------------------------------
                    Cartesian Multipole Moments
 -----------------------------------------------------------------
    Charge (ESU x 10^10)
                -0.0000
    Dipole Moment (Debye)
         X      -1.2030      Y       2.2400      Z       1.9862
       Tot       3.2264
    Quadrupole Moments (Debye-Ang)
        XX     -93.0352     XY       2.7664     YY    -103.9007
        XZ      -4.1364     YZ      -8.8354     ZZ    -105.0931
    Octopole Moments (Debye-Ang^2)
       XXX     -51.7928    XXY       1.9647    XYY     -25.6611
       YYY      -5.6100    XXZ       8.5817    XYZ      -2.6108
       YYZ      13.4542    XZZ      -7.9256    YZZ      -3.5029
       ZZZ      -5.5013
    Hexadecapole Moments (Debye-Ang^3)
      XXXX   -1621.7594   XXXY     -64.6292   XXYY    -533.1685
      XYYY      21.7415   YYYY   -1528.6407   XXXZ     -11.4369
      XXYZ     -17.4473   XYYZ       7.6471   YYYZ     -66.6101
      XXZZ    -464.7853   XYZZ     -20.5174   YYZZ    -424.2288
      XZZZ     -11.8570   YZZZ     -32.1023   ZZZZ   -1003.6834
 -----------------------------------------------------------------
 Calculating analytic gradient of the SCF energy
 Gradient of SCF Energy
            1           2           3           4           5           6
    1   0.0013068   0.0005540  -0.0007817  -0.0013961  -0.0012459   0.0001366
    2  -0.0002233  -0.0011264   0.0006576   0.0057669   0.0010176  -0.0000622
    3   0.0013144   0.0001537  -0.0027117  -0.0038240  -0.0010674   0.0007579
            7           8           9          10          11          12
    1  -0.0003999   0.0011366   0.0001945  -0.0002385  -0.0000988   0.0000593
    2  -0.0017100  -0.0036591  -0.0000771  -0.0003216   0.0001763   0.0001690
    3   0.0014469   0.0027855   0.0001156   0.0001064  -0.0001302   0.0000970
           13          14          15          16          17          18
    1   0.0003933   0.0000596   0.0000548  -0.0000605   0.0002692   0.0000455
    2   0.0001395  -0.0001307  -0.0000132   0.0000185  -0.0005875   0.0000073
    3   0.0004314   0.0002570   0.0001188  -0.0001506  -0.0000484  -0.0000336
           19          20          21          22          23          24
    1  -0.0000342   0.0001713  -0.0000088  -0.0002079   0.0000281   0.0000146
    2   0.0000047  -0.0000464  -0.0000271   0.0000201   0.0000005  -0.0001125
    3  -0.0001052  -0.0000321   0.0000770   0.0000243  -0.0000411  -0.0001138
           25          26          27          28          29          30
    1  -0.0000334   0.0000385   0.0000798  -0.0000744  -0.0000221   0.0000990
    2   0.0000146  -0.0000300   0.0000145   0.0001337  -0.0000805  -0.0000154
    3   0.0000111  -0.0000269   0.0002495   0.0002284   0.0000824  -0.0000788
           31          32          33          34          35
    1   0.0000098  -0.0000149  -0.0000136  -0.0000260   0.0000055
    2   0.0000756   0.0000595  -0.0000320  -0.0000108  -0.0000105
    3   0.0000349   0.0000464   0.0000287   0.0000113  -0.0000149
 Max gradient component =       5.767E-03
 RMS gradient           =       9.602E-04
 Gradient time:  CPU 435.34 s  wall 30.45 s
 Geometry Optimization Parameters
   NAtoms,    NIC,     NZ,  NCons,   NDum,   NFix, NCnnct, MaxDiis
       35     275       0       0       0       0       0       0

 Cartesian Hessian Update
 Hessian Updated using BFGS Update


** GEOMETRY OPTIMIZATION IN DELOCALIZED INTERNAL COORDINATES **
   Searching for a Minimum

   Optimization Cycle:   2

                       Coordinates (Angstroms)
     ATOM                X               Y               Z
      1  C         1.2106902098   -0.2580212039   -0.4148725292
      2  C         0.1640053754    0.9599028748   -0.5607439438
      3  C         0.5550824175   -1.6359104839   -0.2520039135
      4  C        -1.2882978663    0.4930159990   -0.6019764060
      5  O        -0.4202145548   -1.6552289748    0.6798955210
      6  O         0.8921744332   -2.6254450617   -0.8555184456
      7  O        -2.0831321453    1.1409658075    0.2699461270
      8  O        -1.7006890667   -0.3437979194   -1.3714315596
      9  C        -3.4710095171    0.7607969145    0.2570499379
     10  C        -1.1689762309   -2.8785984931    0.7840778586
     11  C         2.0022110607    0.1845783472    0.8971044756
     12  C         1.0732404671    0.1605681334    2.1000878980
     13  C         0.2122609925    1.1718272348    1.9641480409
     14  C         0.5482775170    1.8848666851    0.6652765013
     15  C         2.0834336275    1.7124730852    0.6717733234
     16  C         2.1896806133   -0.3837123067   -1.5929318927
     17  C         0.3090936993    1.7545485319   -1.8807674227
     18  H        -3.9074560047    0.9364231738   -0.7272086087
     19  H        -0.5081547091   -3.7217485581    0.9875475350
     20  H        -0.6470683032    1.3898138614    2.5808643855
     21  H        -3.9500092214    1.3857535994    1.0077643377
     22  H        -3.5764620411   -0.2946329662    0.5125038175
     23  H        -1.8611535453   -2.7241008286    1.6094776943
     24  H        -1.7125105770   -3.0579326888   -0.1453706514
     25  H         0.1567402774    2.8957743430    0.5587938929
     26  H         2.9411492245   -0.3592000607    1.0030657707
     27  H         1.2901186911    2.2184918940   -1.9700070380
     28  H         0.1406617050    1.1149560381   -2.7466873648
     29  H        -0.4376403913    2.5537815434   -1.9020677413
     30  H         2.9005058740   -1.1852865410   -1.3912175866
     31  H         1.6691507903   -0.6431265359   -2.5150517031
     32  H         2.7490932872    0.5360842005   -1.7553877601
     33  H         2.5518688407    2.2258605019    1.5120902054
     34  H         2.5803577463    2.0092197773   -0.2515783105
     35  H         1.0579570446   -0.6154064635    2.8526388451
   Point Group: c1    Number of degrees of freedom:    99


   Energy is   -807.359160099

 Hessian Updated using BFGS Update

 87 Hessian modes will be used to form the next step
  Hessian Eigenvalues:
     0.002877    0.003324    0.004299    0.004507    0.005948    0.008610
     0.010473    0.010601    0.013062    0.017043    0.017193    0.020308
     0.022328    0.022773    0.025211    0.031057    0.035377    0.041863
     0.044923    0.048010    0.048455    0.050854    0.053389    0.053637
     0.054250    0.055409    0.056618    0.056835    0.057353    0.060996
     0.068577    0.072582    0.078771    0.094333    0.095940    0.101280
     0.101481    0.105928    0.106272    0.109724    0.116421    0.146729
     0.156769    0.158591    0.159998    0.160268    0.168795    0.209083
     0.213967    0.238379    0.244431    0.248106    0.249196    0.249984
     0.249999    0.256706    0.272875    0.279268    0.287978    0.290444
     0.298363    0.299796    0.343543    0.346354    0.346962    0.347071
     0.347584    0.347658    0.347883    0.347886    0.347926    0.348415
     0.348624    0.348927    0.349437    0.349582    0.350172    0.350534
     0.358665    0.360030    0.397085    0.398621    0.516816    0.552367
     0.558762    1.002953    1.013424

 Minimum Search - Taking Simple RFO Step
 Searching for Lamda that Minimizes Along All modes
 Value Taken    Lamda =  -0.00085658
 Step Taken.  Stepsize is  0.160358

                             Maximum     Tolerance    Cnvgd?
         Gradient           0.005585      0.000001      NO
         Displacement       0.087498      0.000001      NO
         Energy change      0.000218      0.000000      NO


 New Cartesian Coordinates Obtained by Inverse Iteration

 Displacement from previous Coordinates is:  0.831587
 Adding empirical dispersion correction 
 ----------------------------------------------------------------
 Doing -D3(op) with
 s6 =   1.00000
 s8 =   0.78311
 a1 =   0.30000
 a2 =   4.25000
 n  =  10.00000
 -D3 energy without 3body term =     -0.0475403659 hartrees
 ----------------------------------------------------------------
             Standard Nuclear Orientation (Angstroms)
    I     Atom           X                Y                Z
 ----------------------------------------------------------------
    1      C       1.1986027138    -0.2636814928    -0.4248962467
    2      C       0.1521704313     0.9578972767    -0.5516285086
    3      C       0.5523451672    -1.6451852120    -0.2530668202
    4      C      -1.3023952144     0.5012530898    -0.6132460289
    5      O      -0.3646916092    -1.6853441395     0.7354855280
    6      O       0.8765594302    -2.6285389991    -0.8735573855
    7      O      -2.1076216863     1.1782597792     0.2262812899
    8      O      -1.7155872519    -0.3124656383    -1.4065659363
    9      C      -3.5039637828     0.8348442206     0.1705938867
   10      C      -1.0933350443    -2.9176272472     0.8701865631
   11      C       2.0043383884     0.1707138157     0.8814981399
   12      C       1.0877821071     0.1215011653     2.0930666618
   13      C       0.2141516127     1.1245118517     1.9773748968
   14      C       0.5350476914     1.8629107913     0.6887190703
   15      C       2.0713138438     1.7025278339     0.6788376115
   16      C       2.1639756596    -0.3836186521    -1.6146659683
   17      C       0.3056069132     1.7750956300    -1.8572793414
   18      H      -3.9031264677     1.0125403548    -0.8289877925
   19      H      -0.4130233896    -3.7560070248     1.0228846229
   20      H      -0.6427300159     1.3243298295     2.6037005529
   21      H      -3.9905817017     1.4792002273     0.8996779324
   22      H      -3.6453081396    -0.2150553594     0.4314287041
   23      H      -1.7355061409    -2.7800637415     1.7379282660
   24      H      -1.6907502010    -3.0918098126    -0.0265633741
   25      H       0.1352285831     2.8724827937     0.6025189396
   26      H       2.9483622645    -0.3673100614     0.9699571604
   27      H       1.2889838440     2.2359872171    -1.9354456868
   28      H       0.1373921808     1.1514940673    -2.7349433483
   29      H      -0.4373175018     2.5781262218    -1.8672976400
   30      H       2.8786527647    -1.1842716839    -1.4233749565
   31      H       1.6333532959    -0.6416215954    -2.5314401077
   32      H       2.7196145395     0.5377685191    -1.7809462015
   33      H       2.5434147767     2.2065045492     1.5228003172
   34      H       2.5576380445     2.0176384550    -0.2440797388
   35      H       1.0863836146    -0.6654335690     2.8343282288
 ----------------------------------------------------------------
 Nuclear Repulsion Energy =  1392.6321671432 hartrees
 There are       64 alpha and       64 beta electrons
 Applying Cartesian multipole field
    Component          Value
    ---------          -----
     (2,0,0)        1.00000E-11
     (0,2,0)        2.00000E-11
     (0,0,2)       -3.00000E-11
 Nucleus-field energy     =     0.0000000145 hartrees
 Requested basis set is 6-311++G(d,p)
 There are 192 shells and 500 basis functions
 A cutoff of  1.0D-11 yielded  15466 shell pairs
 There are    107334 function pairs (    114561 Cartesian)
 Smallest overlap matrix eigenvalue = 7.33E-07

 Q-Chem warning in module /fs/scratch/osu6415/qchem-kaunlao-vdw/stvman/mkSTV.C, line 281:

 Overlap eigenvalue is smaller than square root of threshold

 Linear dependence detected in AO basis
 Number of orthogonalized atomic orbitals = 499
 Maximum deviation from orthogonality = 1.696E-10
 Guess MOs from SCF MO coefficient file
 Reading MOs from coefficient file
 Reading MOs from coefficient file
 A restricted hybrid HF-DFT SCF calculation will be
 performed using Pulay DIIS extrapolation
 Exchange:     0.2000 Hartree-Fock + 0.0800 Slater + 0.7200 B88
 Correlation:  0.1900 VWN1RPA + 0.8100 LYP
 Using SG-1 standard quadrature grid
 Dispersion:   Grimme D3
 SCF converges when DIIS error is below 1.0E-08
 Geometry optimization detected.  Setting ReadMinima to 0
 Setting SaveMinima to 0
 using 20 threads for integral computing
 -------------------------------------------------------
 OpenMP Integral computing Module                
 Release: version 1.0, May 2013, Q-Chem Inc. Pittsburgh 
 -------------------------------------------------------
 -------------------------------------------------------
 OpenMP BLAS3 based DFT computing Module                
 Release: version 1.0, May 2013, Q-Chem Inc. Pittsburgh 
 -------------------------------------------------------
 ---------------------------------------
  Cycle       Energy         DIIS Error
 ---------------------------------------
    1    -807.3478151076      8.12E-04
    2    -807.3587609221      1.22E-04
    3    -807.3578320653      2.36E-04
    4    -807.3592063666      3.34E-05
    5    -807.3592288858      1.31E-05
    6    -807.3592326080      4.75E-06
    7    -807.3592331159      1.87E-06
    8    -807.3592332115      6.70E-07
    9    -807.3592332215      2.19E-07
   10    -807.3592332222      7.86E-08
   11    -807.3592332225      3.30E-08
   12    -807.3592332212      1.14E-08
   13    -807.3592332231      4.84E-09 Convergence criterion met
 ---------------------------------------
 SCF time:  CPU 1143.82 s  wall 62.61 s
 SCF   energy in the final basis set = -807.35923322
 Total energy in the final basis set = -807.35923322
 
 --------------------------------------------------------------
 
                    Orbital Energies (a.u.)
 --------------------------------------------------------------
 
 Alpha MOs
 -- Occupied --
-19.176 -19.164 -19.113 -19.107 -10.304 -10.297 -10.232 -10.223
-10.213 -10.211 -10.192 -10.188 -10.175 -10.173 -10.168 -10.166
-10.159  -1.117  -1.107  -1.027  -1.019  -0.898  -0.804  -0.779
 -0.741  -0.728  -0.711  -0.688  -0.667  -0.611  -0.584  -0.569
 -0.552  -0.539  -0.535  -0.517  -0.500  -0.484  -0.482  -0.474
 -0.458  -0.456  -0.444  -0.426  -0.422  -0.411  -0.404  -0.399
 -0.394  -0.383  -0.379  -0.375  -0.372  -0.362  -0.353  -0.351
 -0.345  -0.328  -0.317  -0.315  -0.305  -0.283  -0.275  -0.243
 -- Virtual --
 -0.014  -0.011  -0.003   0.001   0.003   0.008   0.012   0.016
  0.019   0.023   0.029   0.035   0.040   0.045   0.047   0.051
  0.052   0.059   0.064   0.067   0.077   0.083   0.084   0.089
  0.098   0.100   0.104   0.106   0.107   0.109   0.113   0.114
  0.117   0.118   0.120   0.123   0.128   0.131   0.136   0.139
  0.140   0.143   0.146   0.148   0.151   0.154   0.156   0.159
  0.160   0.163   0.164   0.165   0.171   0.172   0.177   0.182
  0.184   0.188   0.190   0.191   0.192   0.204   0.206   0.207
  0.213   0.214   0.218   0.220   0.222   0.226   0.231   0.235
  0.237   0.239   0.247   0.252   0.260   0.266   0.269   0.270
  0.274   0.275   0.279   0.288   0.295   0.299   0.301   0.309
  0.312   0.315   0.322   0.323   0.328   0.333   0.337   0.338
  0.346   0.347   0.348   0.355   0.361   0.365   0.366   0.372
  0.373   0.378   0.385   0.394   0.395   0.404   0.405   0.412
  0.420   0.424   0.432   0.442   0.445   0.456   0.461   0.469
  0.483   0.497   0.506   0.514   0.523   0.531   0.535   0.539
  0.546   0.553   0.559   0.567   0.586   0.597   0.604   0.606
  0.611   0.615   0.629   0.630   0.632   0.637   0.652   0.654
  0.661   0.662   0.668   0.676   0.682   0.684   0.693   0.698
  0.707   0.710   0.715   0.723   0.724   0.727   0.734   0.742
  0.747   0.756   0.758   0.770   0.775   0.783   0.792   0.797
  0.800   0.809   0.816   0.827   0.832   0.836   0.847   0.853
  0.862   0.885   0.897   0.911   0.923   0.957   0.970   0.983
  0.995   1.040   1.054   1.064   1.070   1.088   1.100   1.111
  1.114   1.131   1.144   1.156   1.166   1.170   1.198   1.223
  1.225   1.244   1.252   1.284   1.287   1.297   1.317   1.321
  1.327   1.336   1.344   1.363   1.374   1.384   1.398   1.404
  1.418   1.433   1.445   1.458   1.463   1.469   1.474   1.490
  1.502   1.506   1.511   1.531   1.534   1.550   1.556   1.569
  1.579   1.583   1.585   1.591   1.605   1.614   1.623   1.641
  1.647   1.656   1.669   1.680   1.685   1.699   1.701   1.708
  1.721   1.733   1.739   1.746   1.752   1.754   1.766   1.776
  1.783   1.789   1.795   1.809   1.815   1.832   1.835   1.849
  1.871   1.872   1.884   1.889   1.906   1.910   1.926   1.939
  1.947   1.953   1.967   1.977   2.002   2.005   2.015   2.033
  2.035   2.044   2.052   2.061   2.073   2.121   2.126   2.135
  2.158   2.163   2.171   2.176   2.199   2.211   2.217   2.240
  2.255   2.259   2.269   2.286   2.316   2.322   2.336   2.369
  2.406   2.425   2.445   2.451   2.457   2.481   2.499   2.510
  2.525   2.526   2.537   2.547   2.548   2.561   2.573   2.583
  2.593   2.606   2.616   2.627   2.634   2.636   2.663   2.676
  2.681   2.701   2.716   2.731   2.744   2.753   2.780   2.786
  2.806   2.823   2.836   2.846   2.862   2.863   2.883   2.898
  2.914   2.937   2.945   2.958   2.978   2.993   3.018   3.039
  3.052   3.053   3.068   3.081   3.094   3.104   3.117   3.128
  3.144   3.159   3.176   3.199   3.225   3.231   3.240   3.260
  3.280   3.320   3.344   3.361   3.389   3.406   3.430   3.472
  3.496   3.545   3.614   3.627   3.645   3.759   3.775   3.779
  3.788   3.800   3.812   3.832   3.850   3.863   3.870   3.875
  4.057   4.073   4.085   4.090   4.120   4.144   4.172   4.185
  4.203   4.230   4.257   4.305   4.379   4.468   5.063   5.115
  5.159   5.213   5.281   5.286   5.425   5.472   5.645   5.658
  5.894   5.918  23.814  23.836  23.853  23.878  23.893  23.909
 23.935  23.952  24.001  24.016  24.037  24.073  24.328  49.926
 49.950  50.041  50.074
 --------------------------------------------------------------
 
          Ground-State Mulliken Net Atomic Charges

     Atom                 Charge (a.u.)
  ----------------------------------------
      1 C                    -0.110046
      2 C                     0.098058
      3 C                    -0.444948
      4 C                    -0.586572
      5 O                    -0.037761
      6 O                    -0.192974
      7 O                     0.022974
      8 O                    -0.187717
      9 C                    -0.175751
     10 C                    -0.198869
     11 C                     0.272143
     12 C                    -0.356824
     13 C                    -0.516792
     14 C                     0.502064
     15 C                    -0.716878
     16 C                    -0.271499
     17 C                    -0.249405
     18 H                     0.173630
     19 H                     0.186355
     20 H                     0.147943
     21 H                     0.153325
     22 H                     0.169872
     23 H                     0.150828
     24 H                     0.199330
     25 H                     0.266021
     26 H                     0.261701
     27 H                     0.151448
     28 H                     0.172384
     29 H                     0.172098
     30 H                     0.194695
     31 H                     0.208349
     32 H                     0.109418
     33 H                     0.192231
     34 H                     0.096413
     35 H                     0.144757
  ----------------------------------------
  Sum of atomic charges =    -0.000000

 -----------------------------------------------------------------
                    Cartesian Multipole Moments
 -----------------------------------------------------------------
    Charge (ESU x 10^10)
                -0.0000
    Dipole Moment (Debye)
         X      -1.1746      Y       2.2093      Z       2.0385
       Tot       3.2274
    Quadrupole Moments (Debye-Ang)
        XX     -92.9641     XY       2.4140     YY    -103.5905
        XZ      -4.0641     YZ      -9.1864     ZZ    -105.3047
    Octopole Moments (Debye-Ang^2)
       XXX     -52.0788    XXY       3.0430    XYY     -25.1416
       YYY      -5.9013    XXZ       7.9373    XYZ      -2.2448
       YYZ      14.7104    XZZ      -7.6296    YZZ      -3.3752
       ZZZ      -4.6266
    Hexadecapole Moments (Debye-Ang^3)
      XXXX   -1615.4907   XXXY     -52.9272   XXYY    -533.9380
      XYYY      36.1006   YYYY   -1541.8323   XXXZ     -18.0760
      XXYZ     -13.9360   XYYZ       4.1489   YYYZ     -58.0960
      XXZZ    -467.8646   XYZZ     -14.2086   YYZZ    -428.2571
      XZZZ     -22.2671   YZZZ     -22.0074   ZZZZ   -1015.8275
 -----------------------------------------------------------------
 Calculating analytic gradient of the SCF energy
 Gradient of SCF Energy
            1           2           3           4           5           6
    1   0.0012022   0.0000141  -0.0041522  -0.0012768   0.0027974   0.0014701
    2  -0.0011229   0.0004476   0.0012853   0.0014387  -0.0002237  -0.0004514
    3   0.0014988  -0.0004690  -0.0043065  -0.0001584   0.0026444   0.0018070
            7           8           9          10          11          12
    1  -0.0010703  -0.0001307   0.0004294  -0.0001285  -0.0000750   0.0001452
    2  -0.0003202   0.0004206  -0.0000650  -0.0000799   0.0000026  -0.0004550
    3  -0.0008908  -0.0004909   0.0000510  -0.0000346  -0.0007219  -0.0005833
           13          14          15          16          17          18
    1  -0.0001802   0.0000737  -0.0001013   0.0000659   0.0005245  -0.0000410
    2  -0.0006770   0.0001427   0.0002017   0.0000558  -0.0006749  -0.0000160
    3   0.0004495   0.0005034  -0.0000057  -0.0001645   0.0004725  -0.0000121
           19          20          21          22          23          24
    1  -0.0000261   0.0003510  -0.0000207   0.0000014   0.0000777   0.0000251
    2  -0.0000074  -0.0000410  -0.0000036   0.0000277  -0.0000327   0.0000934
    3  -0.0000147  -0.0000164   0.0000556   0.0000327  -0.0000283  -0.0000367
           25          26          27          28          29          30
    1  -0.0000480   0.0000428   0.0002633  -0.0000474  -0.0000189   0.0000579
    2   0.0000848  -0.0000007   0.0000127   0.0000511  -0.0000552  -0.0000233
    3   0.0000342   0.0000091   0.0002346   0.0001613   0.0000248  -0.0000322
           31          32          33          34          35
    1   0.0000349  -0.0000326  -0.0000474  -0.0001360  -0.0000434
    2   0.0000710  -0.0000438   0.0000058   0.0001550  -0.0002029
    3   0.0000122  -0.0001119   0.0000272   0.0000213   0.0000382
 Max gradient component =       4.306E-03
 RMS gradient           =       8.354E-04
 Gradient time:  CPU 430.95 s  wall 29.84 s
 Geometry Optimization Parameters
   NAtoms,    NIC,     NZ,  NCons,   NDum,   NFix, NCnnct, MaxDiis
       35     275       0       0       0       0       0       0

 Cartesian Hessian Update
 Hessian Updated using BFGS Update


** GEOMETRY OPTIMIZATION IN DELOCALIZED INTERNAL COORDINATES **
   Searching for a Minimum

   Optimization Cycle:   3

                       Coordinates (Angstroms)
     ATOM                X               Y               Z
      1  C         1.1986027138   -0.2636814928   -0.4248962467
      2  C         0.1521704313    0.9578972767   -0.5516285086
      3  C         0.5523451672   -1.6451852120   -0.2530668202
      4  C        -1.3023952144    0.5012530898   -0.6132460289
      5  O        -0.3646916092   -1.6853441395    0.7354855280
      6  O         0.8765594302   -2.6285389991   -0.8735573855
      7  O        -2.1076216863    1.1782597792    0.2262812899
      8  O        -1.7155872519   -0.3124656383   -1.4065659363
      9  C        -3.5039637828    0.8348442206    0.1705938867
     10  C        -1.0933350443   -2.9176272472    0.8701865631
     11  C         2.0043383884    0.1707138157    0.8814981399
     12  C         1.0877821071    0.1215011653    2.0930666618
     13  C         0.2141516127    1.1245118517    1.9773748968
     14  C         0.5350476914    1.8629107913    0.6887190703
     15  C         2.0713138438    1.7025278339    0.6788376115
     16  C         2.1639756596   -0.3836186521   -1.6146659683
     17  C         0.3056069132    1.7750956300   -1.8572793414
     18  H        -3.9031264677    1.0125403548   -0.8289877925
     19  H        -0.4130233896   -3.7560070248    1.0228846229
     20  H        -0.6427300159    1.3243298295    2.6037005529
     21  H        -3.9905817017    1.4792002273    0.8996779324
     22  H        -3.6453081396   -0.2150553594    0.4314287041
     23  H        -1.7355061409   -2.7800637415    1.7379282660
     24  H        -1.6907502010   -3.0918098126   -0.0265633741
     25  H         0.1352285831    2.8724827937    0.6025189396
     26  H         2.9483622645   -0.3673100614    0.9699571604
     27  H         1.2889838440    2.2359872171   -1.9354456868
     28  H         0.1373921808    1.1514940673   -2.7349433483
     29  H        -0.4373175018    2.5781262218   -1.8672976400
     30  H         2.8786527647   -1.1842716839   -1.4233749565
     31  H         1.6333532959   -0.6416215954   -2.5314401077
     32  H         2.7196145395    0.5377685191   -1.7809462015
     33  H         2.5434147767    2.2065045492    1.5228003172
     34  H         2.5576380445    2.0176384550   -0.2440797388
     35  H         1.0863836146   -0.6654335690    2.8343282288
   Point Group: c1    Number of degrees of freedom:    99


   Energy is   -807.359233223

 Hessian Updated using BFGS Update

 89 Hessian modes will be used to form the next step
  Hessian Eigenvalues:
     0.002882    0.004278    0.004320    0.004600    0.006059    0.009042
     0.010473    0.010601    0.013062    0.016976    0.017195    0.020225
     0.022347    0.022752    0.025520    0.031689    0.037358    0.042006
     0.045100    0.048010    0.048751    0.052316    0.053388    0.053616
     0.054250    0.055454    0.056690    0.056835    0.057354    0.065044
     0.069009    0.072414    0.078732    0.092451    0.096014    0.101277
     0.101483    0.105931    0.106262    0.109724    0.116457    0.150296
     0.157030    0.158577    0.159917    0.160000    0.160100    0.178090
     0.207950    0.227658    0.238815    0.244685    0.247772    0.248918
     0.249670    0.249986    0.250000    0.259875    0.274025    0.279064
     0.288025    0.289982    0.299319    0.301341    0.343537    0.346359
     0.346963    0.347071    0.347583    0.347656    0.347880    0.347884
     0.347917    0.348416    0.348560    0.348932    0.349475    0.349591
     0.350172    0.350533    0.358702    0.360019    0.397200    0.398509
     0.517093    0.552233    0.558947    1.002819    1.013315

 Minimum Search - Taking Simple RFO Step
 Searching for Lamda that Minimizes Along All modes
 Value Taken    Lamda =  -0.00143029
 Calculated Step too Large.  Step scaled by  0.881807
 Step Taken.  Stepsize is  0.300000

                             Maximum     Tolerance    Cnvgd?
         Gradient           0.006362      0.000001      NO
         Displacement       0.112556      0.000001      NO
         Energy change     -0.000073      0.000000      NO


 New Cartesian Coordinates Obtained by Inverse Iteration

 Displacement from previous Coordinates is:  0.747612
 Adding empirical dispersion correction 
 ----------------------------------------------------------------
 Doing -D3(op) with
 s6 =   1.00000
 s8 =   0.78311
 a1 =   0.30000
 a2 =   4.25000
 n  =  10.00000
 -D3 energy without 3body term =     -0.0475583621 hartrees
 ----------------------------------------------------------------
             Standard Nuclear Orientation (Angstroms)
    I     Atom           X                Y                Z
 ----------------------------------------------------------------
    1      C       1.2206185742    -0.2704836148    -0.3993500171
    2      C       0.1540205189     0.9318822270    -0.5395884563
    3      C       0.6036267687    -1.6651972755    -0.2193540677
    4      C      -1.2925508276     0.4524044699    -0.5576550916
    5      O      -0.3767159804    -1.7046242803     0.7062008683
    6      O       0.9058558392    -2.6290623156    -0.8804076660
    7      O      -2.0805403176     1.1515796788     0.2800867137
    8      O      -1.7324407860    -0.3140484284    -1.3829021912
    9      C      -3.4860635423     0.8475242738     0.2211087157
   10      C      -1.1313423045    -2.9265346822     0.7728603278
   11      C       2.0152830431     0.1905272895     0.9056031103
   12      C       1.0938676309     0.1671836052     2.1154331548
   13      C       0.2210813747     1.1681493409     1.9773993660
   14      C       0.5416603725     1.8728981413     0.6712588304
   15      C       2.0788381508     1.7165215175     0.6668262525
   16      C       2.1916421859    -0.3822028358    -1.5849064140
   17      C       0.2639163200     1.7237207493    -1.8667001774
   18      H      -3.8783166488     1.0387023154    -0.7786718749
   19      H      -0.4754647370    -3.7781208181     0.9564702954
   20      H      -0.6377353073     1.3814838860     2.5970846655
   21      H      -3.9557721033     1.5035264993     0.9508416075
   22      H      -3.6565275209    -0.1987626346     0.4790724220
   23      H      -1.8275090758    -2.7916194699     1.5983963203
   24      H      -1.6708896466    -3.0774457922    -0.1638925728
   25      H       0.1387351346     2.8785259539     0.5586956300
   26      H       2.9606695486    -0.3421772733     1.0098466534
   27      H       1.2361303386     2.2007374905    -1.9781798666
   28      H       0.0879082071     1.0783502552    -2.7271794048
   29      H      -0.4935468638     2.5131481945    -1.8772831175
   30      H       2.9195285872    -1.1685431564    -1.3847981495
   31      H       1.6687948109    -0.6568415671    -2.5014011398
   32      H       2.7315005497     0.5476266261    -1.7562828000
   33      H       2.5487527289     2.2416190354     1.4990650477
   34      H       2.5662813385     2.0097900281    -0.2626890612
   35      H       1.0916833589    -0.6026839734     2.8742753771
 ----------------------------------------------------------------
 Nuclear Repulsion Energy =  1392.9689607419 hartrees
 There are       64 alpha and       64 beta electrons
 Applying Cartesian multipole field
    Component          Value
    ---------          -----
     (2,0,0)        1.00000E-11
     (0,2,0)        2.00000E-11
     (0,0,2)       -3.00000E-11
 Nucleus-field energy     =     0.0000000148 hartrees
 Requested basis set is 6-311++G(d,p)
 There are 192 shells and 500 basis functions
 A cutoff of  1.0D-11 yielded  15472 shell pairs
 There are    107396 function pairs (    114648 Cartesian)
 Smallest overlap matrix eigenvalue = 7.11E-07

 Q-Chem warning in module /fs/scratch/osu6415/qchem-kaunlao-vdw/stvman/mkSTV.C, line 281:

 Overlap eigenvalue is smaller than square root of threshold

 Linear dependence detected in AO basis
 Number of orthogonalized atomic orbitals = 499
 Maximum deviation from orthogonality = 1.969E-10
 Guess MOs from SCF MO coefficient file
 Reading MOs from coefficient file
 Reading MOs from coefficient file
 A restricted hybrid HF-DFT SCF calculation will be
 performed using Pulay DIIS extrapolation
 Exchange:     0.2000 Hartree-Fock + 0.0800 Slater + 0.7200 B88
 Correlation:  0.1900 VWN1RPA + 0.8100 LYP
 Using SG-1 standard quadrature grid
 Dispersion:   Grimme D3
 SCF converges when DIIS error is below 1.0E-08
 Geometry optimization detected.  Setting ReadMinima to 0
 Setting SaveMinima to 0
 using 20 threads for integral computing
 -------------------------------------------------------
 OpenMP Integral computing Module                
 Release: version 1.0, May 2013, Q-Chem Inc. Pittsburgh 
 -------------------------------------------------------
 -------------------------------------------------------
 OpenMP BLAS3 based DFT computing Module                
 Release: version 1.0, May 2013, Q-Chem Inc. Pittsburgh 
 -------------------------------------------------------
 ---------------------------------------
  Cycle       Energy         DIIS Error
 ---------------------------------------
    1    -807.3565777461      1.08E-03
    2    -807.3574537521      1.78E-04
    3    -807.3553869626      3.43E-04
    4    -807.3583931031      4.94E-05
    5    -807.3584432771      1.76E-05
    6    -807.3584506563      5.58E-06
    7    -807.3584512670      3.25E-06
    8    -807.3584515385      8.72E-07
    9    -807.3584515551      3.43E-07
   10    -807.3584515579      9.06E-08
   11    -807.3584515579      3.04E-08
   12    -807.3584515566      8.93E-09 Convergence criterion met
 ---------------------------------------
 SCF time:  CPU 1087.07 s  wall 59.25 s
 SCF   energy in the final basis set = -807.35845156
 Total energy in the final basis set = -807.35845156
 
 --------------------------------------------------------------
 
                    Orbital Energies (a.u.)
 --------------------------------------------------------------
 
 Alpha MOs
 -- Occupied --
-19.175 -19.166 -19.111 -19.108 -10.304 -10.298 -10.231 -10.223
-10.213 -10.211 -10.191 -10.187 -10.175 -10.173 -10.168 -10.166
-10.160  -1.117  -1.108  -1.026  -1.020  -0.899  -0.803  -0.780
 -0.741  -0.728  -0.711  -0.688  -0.667  -0.611  -0.584  -0.569
 -0.553  -0.539  -0.535  -0.517  -0.500  -0.484  -0.482  -0.474
 -0.458  -0.456  -0.444  -0.425  -0.422  -0.411  -0.404  -0.399
 -0.394  -0.382  -0.380  -0.375  -0.372  -0.361  -0.353  -0.351
 -0.345  -0.328  -0.317  -0.315  -0.305  -0.282  -0.275  -0.245
 -- Virtual --
 -0.013  -0.013  -0.003   0.000   0.003   0.007   0.011   0.016
  0.020   0.023   0.029   0.035   0.040   0.046   0.048   0.052
  0.052   0.059   0.065   0.068   0.077   0.082   0.085   0.089
  0.098   0.099   0.103   0.106   0.108   0.109   0.113   0.114
  0.117   0.118   0.121   0.124   0.128   0.132   0.136   0.139
  0.140   0.143   0.145   0.147   0.151   0.154   0.155   0.158
  0.160   0.163   0.165   0.166   0.171   0.173   0.178   0.183
  0.185   0.188   0.190   0.191   0.192   0.204   0.205   0.208
  0.213   0.214   0.218   0.220   0.223   0.226   0.232   0.234
  0.237   0.239   0.248   0.253   0.262   0.265   0.268   0.271
  0.273   0.276   0.276   0.288   0.295   0.297   0.302   0.310
  0.312   0.316   0.321   0.323   0.328   0.332   0.337   0.338
  0.345   0.347   0.348   0.355   0.362   0.366   0.369   0.371
  0.373   0.376   0.386   0.393   0.395   0.403   0.408   0.410
  0.417   0.421   0.430   0.440   0.444   0.457   0.461   0.468
  0.481   0.498   0.508   0.513   0.522   0.530   0.534   0.539
  0.546   0.553   0.555   0.569   0.585   0.597   0.600   0.607
  0.610   0.617   0.627   0.630   0.634   0.637   0.652   0.653
  0.662   0.665   0.671   0.674   0.684   0.684   0.695   0.698
  0.705   0.712   0.715   0.722   0.724   0.727   0.731   0.742
  0.748   0.755   0.759   0.768   0.775   0.788   0.791   0.796
  0.799   0.808   0.817   0.828   0.832   0.837   0.845   0.850
  0.861   0.883   0.900   0.913   0.921   0.960   0.968   0.982
  0.994   1.038   1.057   1.064   1.074   1.087   1.096   1.102
  1.114   1.131   1.142   1.150   1.163   1.173   1.198   1.220
  1.229   1.236   1.255   1.280   1.283   1.297   1.313   1.322
  1.325   1.336   1.348   1.364   1.373   1.385   1.396   1.404
  1.422   1.431   1.443   1.456   1.469   1.472   1.477   1.502
  1.504   1.507   1.512   1.528   1.536   1.548   1.558   1.571
  1.577   1.582   1.584   1.594   1.606   1.615   1.622   1.639
  1.649   1.658   1.670   1.681   1.686   1.697   1.702   1.709
  1.721   1.731   1.735   1.748   1.748   1.756   1.764   1.772
  1.784   1.789   1.799   1.810   1.818   1.829   1.837   1.852
  1.870   1.874   1.879   1.887   1.907   1.908   1.927   1.942
  1.950   1.954   1.963   1.974   2.003   2.006   2.015   2.030
  2.037   2.045   2.052   2.064   2.074   2.120   2.125   2.134
  2.153   2.164   2.167   2.177   2.199   2.208   2.220   2.241
  2.251   2.256   2.277   2.285   2.315   2.320   2.337   2.368
  2.405   2.425   2.443   2.452   2.457   2.481   2.496   2.510
  2.525   2.527   2.538   2.547   2.547   2.560   2.574   2.584
  2.589   2.610   2.615   2.626   2.637   2.638   2.665   2.676
  2.683   2.701   2.712   2.732   2.742   2.749   2.771   2.782
  2.808   2.826   2.834   2.850   2.862   2.864   2.879   2.899
  2.914   2.938   2.947   2.959   2.987   2.992   3.018   3.039
  3.050   3.058   3.069   3.077   3.096   3.101   3.114   3.128
  3.144   3.161   3.176   3.194   3.228   3.231   3.236   3.253
  3.284   3.321   3.343   3.361   3.386   3.406   3.434   3.477
  3.500   3.543   3.616   3.626   3.642   3.762   3.775   3.779
  3.789   3.799   3.810   3.831   3.849   3.864   3.870   3.873
  4.060   4.067   4.082   4.091   4.117   4.147   4.174   4.181
  4.203   4.232   4.258   4.306   4.379   4.468   5.069   5.116
  5.155   5.218   5.281   5.287   5.427   5.466   5.645   5.657
  5.895   5.920  23.816  23.837  23.846  23.879  23.895  23.906
 23.936  23.952  24.002  24.013  24.035  24.071  24.327  49.928
 49.948  50.039  50.076
 --------------------------------------------------------------
 
          Ground-State Mulliken Net Atomic Charges

     Atom                 Charge (a.u.)
  ----------------------------------------
      1 C                    -0.091499
      2 C                    -0.057925
      3 C                    -0.399577
      4 C                    -0.537049
      5 O                    -0.033376
      6 O                    -0.191819
      7 O                     0.020670
      8 O                    -0.187299
      9 C                    -0.170857
     10 C                    -0.194069
     11 C                     0.275314
     12 C                    -0.387342
     13 C                    -0.513285
     14 C                     0.544062
     15 C                    -0.720127
     16 C                    -0.280140
     17 C                    -0.234158
     18 H                     0.173776
     19 H                     0.185266
     20 H                     0.149011
     21 H                     0.152254
     22 H                     0.171042
     23 H                     0.149312
     24 H                     0.202694
     25 H                     0.267522
     26 H                     0.263298
     27 H                     0.154353
     28 H                     0.178420
     29 H                     0.173073
     30 H                     0.195693
     31 H                     0.206139
     32 H                     0.105909
     33 H                     0.191563
     34 H                     0.096508
     35 H                     0.142641
  ----------------------------------------
  Sum of atomic charges =    -0.000000

 -----------------------------------------------------------------
                    Cartesian Multipole Moments
 -----------------------------------------------------------------
    Charge (ESU x 10^10)
                -0.0000
    Dipole Moment (Debye)
         X      -1.1565      Y       2.1680      Z       2.0378
       Tot       3.1922
    Quadrupole Moments (Debye-Ang)
        XX     -93.1713     XY       2.4315     YY    -103.3622
        XZ      -4.0814     YZ      -8.8974     ZZ    -105.4052
    Octopole Moments (Debye-Ang^2)
       XXX     -52.8480    XXY       3.4386    XYY     -26.8440
       YYY      -5.5574    XXZ       8.0931    XYZ      -2.9389
       YYZ      13.2276    XZZ      -7.8918    YZZ      -2.7601
       ZZZ      -7.1314
    Hexadecapole Moments (Debye-Ang^3)
      XXXX   -1630.2872   XXXY     -55.2356   XXYY    -535.1292
      XYYY      34.7894   YYYY   -1539.9622   XXXZ     -19.1568
      XXYZ     -18.8259   XYYZ       5.0965   YYYZ     -70.4743
      XXZZ    -467.8833   XYZZ     -15.4763   YYZZ    -428.0202
      XZZZ     -19.7035   YZZZ     -34.6659   ZZZZ   -1003.2898
 -----------------------------------------------------------------
 Calculating analytic gradient of the SCF energy
 Gradient of SCF Energy
            1           2           3           4           5           6
    1  -0.0022388  -0.0019174   0.0088588   0.0018295  -0.0029007  -0.0031270
    2   0.0001751   0.0029875  -0.0032845  -0.0090615  -0.0003100   0.0013817
    3  -0.0027634  -0.0019827   0.0086894   0.0096536  -0.0029514  -0.0031512
            7           8           9          10          11          12
    1   0.0006041  -0.0005750  -0.0000248   0.0002395  -0.0003654   0.0000985
    2   0.0022770   0.0046877   0.0000674   0.0002991  -0.0006863   0.0006820
    3  -0.0038062  -0.0035550  -0.0001718  -0.0001417   0.0002700   0.0004223
           13          14          15          16          17          18
    1   0.0001925  -0.0003603  -0.0000350  -0.0002121   0.0001941  -0.0001318
    2   0.0004417  -0.0000719  -0.0002380   0.0000462   0.0005167   0.0000038
    3   0.0001460  -0.0000789  -0.0003263   0.0000022   0.0004682   0.0000982
           19          20          21          22          23          24
    1   0.0000641  -0.0000702   0.0000137   0.0003213  -0.0000644  -0.0000886
    2  -0.0000180  -0.0000132   0.0000562  -0.0000307  -0.0000268  -0.0001333
    3  -0.0000928   0.0000318  -0.0000417   0.0000281  -0.0000467  -0.0000373
           25          26          27          28          29          30
    1  -0.0000444  -0.0000598  -0.0003342  -0.0001172  -0.0000090  -0.0001453
    2   0.0000715  -0.0000104  -0.0000023   0.0000290   0.0002062   0.0000350
    3   0.0001496  -0.0001611  -0.0003551  -0.0001566  -0.0000981   0.0000968
           31          32          33          34          35
    1   0.0000504   0.0001238   0.0000679   0.0001290   0.0000340
    2  -0.0000257   0.0001638  -0.0001897  -0.0001279   0.0001027
[...]
    -0.00013907      0.00001102      0.00007976
    -0.00052443      0.00133928     -0.00126892
    -0.00024486      0.00035770     -0.00015451
    -0.00749791      0.00501088     -0.00070141
     0.00014573     -0.00022698     -0.00014439
    -0.00291325      0.00155771      0.00114304
     0.02978334     -0.07458278      0.00866702
    -0.00734107     -0.00441274      0.00834588
     0.00137063      0.00007342      0.00141600
     0.02019343     -0.01278937     -0.00982035
     0.00590370     -0.00282547      0.01470491
     0.00318102     -0.00409845      0.00080268
     0.03540760     -0.01148082     -0.02188197
     0.00076932     -0.00109567     -0.00169023
    -0.00104103     -0.01150191      0.00246053
    -0.00034909      0.00007076      0.00040015
     0.00026311      0.00000389      0.00059451
    -0.34141666      0.86832462     -0.09214397
     0.08197544     -0.04737006      0.00844073
    -0.13576021     -0.06862450      0.00737826
     0.02646501      0.08429434      0.11013548
    -0.13285758      0.14124698     -0.00485454
    -0.00556205      0.00663660     -0.00161457
    -0.00830416     -0.00413834     -0.01540556
    -0.00158418     -0.00356371      0.00042249
     0.01147554      0.01020337      0.02005782
     0.06531579      0.03762563     -0.12112669
    -0.00076428      0.00343741     -0.00317523
vibration 90
     0.00040203      0.00026875      0.00008357
     0.00044281     -0.00000946      0.00004107
     0.00033975     -0.00016307     -0.00036436
     0.00009353     -0.00013358     -0.00021565
    -0.00009549      0.00001600      0.00013215
    -0.00017499      0.00007387      0.00015414
    -0.00007206      0.00006182      0.00008013
    -0.00002737      0.00005117      0.00012053
     0.00009395     -0.00066147      0.00091280
     0.00030055     -0.00016463      0.00074150
     0.00159878     -0.00145690     -0.00092391
     0.00026572     -0.00020571      0.00006145
    -0.00046046      0.00043751      0.00016911
     0.00106322     -0.00359373     -0.00058616
     0.00155091     -0.01087887     -0.09033534
     0.00311527     -0.01932450      0.00316117
     0.00277947     -0.01322415     -0.01148680
    -0.00310607      0.00146535     -0.00784160
    -0.00277974      0.00344299     -0.00061790
     0.00152776      0.00012778      0.00048180
     0.00088838     -0.00138864     -0.00133964
     0.00090762      0.00776791     -0.00167120
     0.00231442     -0.00060129     -0.00282209
    -0.00316336     -0.00086909     -0.00535925
    -0.01591221      0.04032847     -0.00244238
    -0.02095615      0.01175865     -0.00102299
    -0.00433009     -0.00523769     -0.00024008
     0.02664389      0.10406471      0.13896333
    -0.05922643      0.05922895     -0.00308147
    -0.11036868      0.11968140     -0.03204862
     0.00638088     -0.00246779      0.01147999
     0.06440750      0.11082531     -0.01652615
     0.28866298      0.31792157      0.51298072
    -0.30433573     -0.18346416      0.57630925
     0.00036936     -0.00106490      0.00276293
vibration 91
     0.00001864      0.00002563     -0.00000757
     0.00005412     -0.00017355      0.00015885
    -0.00010075     -0.00001818      0.00006465
     0.00002632      0.00009502     -0.00016670
     0.00002976      0.00002234     -0.00004595
     0.00002816      0.00000123     -0.00003818
    -0.00010411      0.00028583     -0.00022827
    -0.00006922      0.00010535     -0.00007623
     0.01477365     -0.06705757      0.06522493
     0.00426126     -0.00263265      0.00322329
    -0.00022609      0.00015131     -0.00000766
    -0.00000453      0.00004082     -0.00003939
     0.00000974      0.00000515      0.00000027
     0.00056485     -0.00140162      0.00018650
    -0.00016229      0.00004243      0.00123172
    -0.00031256      0.00073317     -0.00032485
     0.00040636     -0.00053564     -0.00033658
    -0.25458615      0.11843267     -0.64066472
    -0.02981843      0.03700164     -0.00705503
    -0.00004797     -0.00024627     -0.00013567
     0.00106959     -0.01060865      0.01564028
     0.07923528      0.68495961     -0.14624135
    -0.00103675      0.00013227      0.00270946
    -0.01953794     -0.00594425     -0.03363588
    -0.00629650      0.01625377     -0.00170585
     0.00245566     -0.00139983      0.00021900
    -0.00192004     -0.00101752      0.00011690
     0.00096092      0.00299115      0.00396137
    -0.00408915      0.00452103     -0.00015617
     0.00502463     -0.00557666      0.00142796
     0.00110055      0.00070883      0.00184687
    -0.00231260     -0.00388614      0.00054738
    -0.00316923     -0.00350942     -0.00563170
     0.00497246      0.00294754     -0.00928486
    -0.00007732     -0.00022786      0.00017236
vibration 92
    -0.00012533      0.00004014     -0.00011637
     0.00002414      0.00002141      0.00000535
    -0.00001617      0.00007846      0.00028653
    -0.00010540     -0.00020430     -0.00010861
     0.00023259     -0.00005973      0.00016123
     0.00000445     -0.00019573      0.00011353
     0.00000610      0.00004843      0.00000743
     0.00007391      0.00013671      0.00002623
     0.00080023     -0.00389213      0.00442368
    -0.06163255      0.03576963     -0.06242940
    -0.00005413     -0.00002248     -0.00001852
     0.00001047     -0.00008811      0.00007695
     0.00002130     -0.00000547     -0.00002042
    -0.00004615      0.00013187     -0.00003200
    -0.00001168     -0.00006927     -0.00042414
     0.00195264     -0.00119990      0.00187334
    -0.00027529      0.00033529      0.00035916
    -0.01644016      0.00783206     -0.04134690
     0.43940788     -0.54233763      0.09889159
    -0.00046168      0.00009023      0.00023898
     0.00205851     -0.00313721     -0.00226027
     0.00504539      0.04104390     -0.00890304
    -0.05687953      0.01702034      0.04577326
     0.34856496      0.10220662      0.59287244
     0.00061365     -0.00158432      0.00023028
     0.00059453     -0.00029436      0.00003731
     0.00229206      0.00124554     -0.00014268
    -0.00089975     -0.00309540     -0.00399753
     0.00202266     -0.00214014      0.00003185
    -0.01500395      0.01721095     -0.00425303
    -0.01036395     -0.00556091     -0.01791789
     0.00214684      0.00281042     -0.00012327
     0.00150474      0.00156301      0.00260607
    -0.00135389     -0.00082748      0.00248745
     0.00007173      0.00120952     -0.00085825
vibration 93
    -0.00092756      0.00043892     -0.00072379
     0.00062345     -0.00010431     -0.00012005
     0.00008095      0.00007273      0.00011156
     0.00001503     -0.00008678     -0.00000759
    -0.00001890     -0.00000725     -0.00001046
     0.00024802     -0.00001063      0.00005256
    -0.00004118      0.00003001      0.00002472
    -0.00002291      0.00000521      0.00002437
    -0.00005595      0.00035207     -0.00021925
    -0.00186059      0.00108725     -0.00204712
    -0.00567113      0.00330653     -0.00041519
     0.00012069     -0.00031902      0.00022700
     0.00008894      0.00001624     -0.00011433
    -0.00049679      0.00108084     -0.00027691
     0.00081182     -0.00076131     -0.01021956
    -0.06347110      0.02752397     -0.05795595
     0.01463814      0.00214127     -0.00076858
     0.00085163     -0.00039887      0.00221870
     0.01351973     -0.01665758      0.00298826
    -0.00084436      0.00019508      0.00091669
     0.00026848     -0.00033386     -0.00055628
    -0.00040172     -0.00331454      0.00069419
    -0.00259605      0.00069852      0.00239392
     0.01099028      0.00320458      0.01871435
     0.00568254     -0.01340744      0.00167599
     0.06821538     -0.03829061      0.00946619
    -0.14154073     -0.06766782      0.01051924
     0.00306942     -0.00103431     -0.00177421
    -0.03874703      0.04446059      0.00057394
     0.44068977     -0.50732159      0.12247888
     0.33260917      0.17629426      0.57904202
    -0.01687094     -0.00204035     -0.01025627
     0.02911511      0.03211785      0.05173129
    -0.03844557     -0.02257516      0.07297584
    -0.00016582      0.00205491     -0.00165476
vibration 94
    -0.00003583      0.00080908      0.00022916
    -0.00059452     -0.00045219     -0.00076469
    -0.00045584      0.00031201      0.00056970
     0.00013371     -0.00013508     -0.00053163
     0.00011415     -0.00003373     -0.00009242
     0.00023584     -0.00014940     -0.00025287
    -0.00005537      0.00001365      0.00007729
     0.00001184      0.00007623      0.00031947
    -0.00014263      0.00071894      0.00007283
     0.00001143     -0.00014689     -0.00103274
    -0.00087843      0.00048924     -0.00028745
     0.00002380     -0.00000912     -0.00002859
    -0.00002976      0.00004229      0.00000797
     0.00044853     -0.00100843      0.00046460
     0.00009056      0.00010703     -0.00169025
     0.01128953      0.05252596     -0.00078010
    -0.05023932     -0.04708049     -0.03151158
     0.00055382     -0.00015720      0.00134948
     0.00064225     -0.00076474      0.00000702
    -0.00032285     -0.00007085      0.00017325
     0.00206828     -0.00286008     -0.00347299
    -0.00065786     -0.00567820      0.00131880
    -0.00475984      0.00106154      0.00584498
     0.00385706      0.00109516      0.00631246
    -0.00482128      0.01144344     -0.00032578
     0.01193477     -0.00606494      0.00143022
     0.54142189      0.24550994     -0.04699680
     0.07352806      0.32461356      0.43409578
    -0.01235559     -0.00927991     -0.00649653
     0.18073221     -0.18705386      0.05325151
    -0.06606519     -0.02162991     -0.11742597
    -0.24784271     -0.42434910      0.06926401
     0.00438461      0.00491284      0.00792461
    -0.00643508     -0.00306961      0.01313675
     0.00005461      0.00032897     -0.00010406
vibration 95
    -0.00019975     -0.00096176     -0.00033098
    -0.00072724     -0.00025174     -0.00023374
     0.00055113     -0.00024374     -0.00070884
     0.00005688     -0.00018468     -0.00042099
    -0.00007063      0.00003142      0.00009587
    -0.00021174      0.00016042      0.00030151
    -0.00001164      0.00003947      0.00005542
     0.00001762      0.00013256      0.00023785
    -0.00029086      0.00099288      0.00132028
    -0.00522318      0.00375575      0.00704410
    -0.00002986      0.00013467      0.00035507
     0.00001521      0.00025665     -0.00016321
     0.00024133     -0.00003167     -0.00008909
     0.00051831     -0.00095299      0.00041869
    -0.00402321     -0.00118045      0.01758596
    -0.03109624     -0.06548506     -0.01158361
    -0.03826186     -0.02955667     -0.01774023
    -0.00246364      0.00153447     -0.00608316
     0.02391023     -0.02932320      0.00774872
    -0.00117661      0.00013067      0.00028563
     0.00663891     -0.00907691     -0.01070474
    -0.00045170     -0.00415592      0.00130438
     0.05389905     -0.01210028     -0.06825780
    -0.01577850     -0.00282031     -0.02306905
    -0.00490748      0.01193693     -0.00078569
    -0.00076891      0.00000389      0.00029010
     0.41125310      0.18682917     -0.03429155
     0.03987374      0.19018789      0.25369187
     0.01391307     -0.02703276     -0.00368235
    -0.13599835      0.13125992     -0.04140559
     0.16294778      0.06723535      0.28653331
     0.34090030      0.59608960     -0.09913939
    -0.03409583     -0.03739928     -0.05926791
     0.08120502      0.04812367     -0.16072766
    -0.00019744     -0.00142861      0.00073484
vibration 96
    -0.00003784     -0.00005390      0.00002997
    -0.00005218     -0.00002068     -0.00001885
    -0.00012522     -0.00130607     -0.00044387
     0.00009368     -0.00012155     -0.00016990
    -0.00025680      0.00012200      0.00024924
    -0.00002920      0.00057808      0.00023991
    -0.00006815      0.00002243      0.00006745
    -0.00001035      0.00007887      0.00006370
     0.00008831      0.00027912     -0.00099639
     0.05136117     -0.03574263     -0.07054997
     0.00011799     -0.00004593      0.00001628
     0.00001011     -0.00002294      0.00003765
    -0.00006387      0.00004305      0.00007459
     0.00007662     -0.00016308      0.00003743
    -0.00039863     -0.00014655      0.00154364
    -0.00312850     -0.00720266     -0.00110393
    -0.00338017     -0.00271638     -0.00161333
     0.00265276     -0.00162936      0.00682899
    -0.22648453      0.27831046     -0.07522081
     0.00097982     -0.00017776     -0.00073620
    -0.00261643      0.00356932      0.00406609
    -0.00080128     -0.00504987      0.00069995
    -0.53753760      0.12151587      0.68053124
     0.15849039      0.02833424      0.23131079
    -0.00082845      0.00208943     -0.00011628
    -0.00143257      0.00074353     -0.00008560
     0.03677749      0.01665406     -0.00306084
     0.00365663      0.01726527      0.02309261
     0.00060022     -0.00167074     -0.00037988
    -0.01677298      0.01633898     -0.00500435
     0.01685379      0.00678014      0.02977105
     0.03683733      0.06438404     -0.01065595
    -0.00267633     -0.00285043     -0.00459252
     0.00732896      0.00428919     -0.01462373
     0.00017455      0.00062531     -0.00060919
vibration 97
    -0.00001192     -0.00000200      0.00000368
    -0.00000343      0.00005327      0.00003121
    -0.00004037      0.00000838      0.00001266
    -0.00100053     -0.00068559     -0.00052136
     0.00002686     -0.00000621      0.00000568
     0.00000952     -0.00000774     -0.00000249
    -0.00011604      0.00023299      0.00026773
     0.00036272      0.00034443      0.00030231
     0.01949150     -0.06228291     -0.06856802
    -0.00071745      0.00044788      0.00022490
    -0.00001690      0.00001197     -0.00001207
    -0.00000610      0.00000724      0.00000377
     0.00004074     -0.00000194     -0.00002895
     0.00004971     -0.00008660     -0.00000174
    -0.00007845     -0.00005241      0.00009267
    -0.00050680     -0.00080980     -0.00022898
    -0.00093363     -0.00076391     -0.00046552
     0.11889671     -0.07532175      0.28161800
     0.00399763     -0.00481316      0.00111721
    -0.00000463     -0.00001404      0.00027241
    -0.37933703      0.52155704      0.61709039
     0.03529694      0.29351083     -0.08596540
     0.00400325     -0.00086298     -0.00532037
     0.00058226      0.00041788      0.00140576
    -0.00030203      0.00100283     -0.00009166
     0.00017714     -0.00009224      0.00009135
     0.01039197      0.00474747     -0.00088866
     0.00097648      0.00500393      0.00681101
     0.00017681     -0.00063811     -0.00012505
    -0.00100248      0.00083383     -0.00032503
     0.00254660      0.00112256      0.00456936
     0.00449449      0.00792702     -0.00133670
     0.00027088      0.00025351      0.00044540
     0.00067816      0.00040773     -0.00148393
    -0.00001523     -0.00008938      0.00003578
vibration 98
    -0.00013119      0.00004838     -0.00010079
    -0.00002222      0.00016374      0.00005419
    -0.00019103     -0.00014110      0.00027748
     0.00013986     -0.00015862     -0.00017635
    -0.00000762      0.00002879     -0.00024291
     0.00003528      0.00002122     -0.00005021
     0.00001796      0.00003738      0.00016983
    -0.00001130      0.00006827      0.00005029
    -0.00012227     -0.00002490      0.00000404
     0.00014811      0.00005685      0.00009397
     0.00371067     -0.00166970     -0.00092075
     0.00011200     -0.05217721      0.05030194
     0.03477530     -0.00749033     -0.02675171
     0.00069528     -0.00225028      0.00062379
    -0.00006666      0.00053364     -0.00021347
     0.00004057     -0.00002428     -0.00003402
    -0.00003923     -0.00005223      0.00001564
     0.00047654     -0.00013655      0.00078950
    -0.00013082      0.00014654      0.00005203
    -0.43104299      0.10702777      0.30831478
     0.00029961     -0.00036747     -0.00043099
     0.00019605      0.00073818     -0.00017230
    -0.00010710     -0.00005504      0.00026980
    -0.00095563     -0.00036081     -0.00150736
    -0.00814302      0.02328247     -0.00344645
    -0.03525934      0.01875139     -0.00054444
     0.00050022      0.00024409     -0.00001533
    -0.00006127     -0.00004867     -0.00052172
    -0.00014639      0.00017403     -0.00005415
    -0.00035734      0.00030611     -0.00008618
     0.00033896      0.00031789      0.00134466
    -0.00001490     -0.00001998     -0.00006255
    -0.00016101     -0.00084526     -0.00081400
    -0.00005096     -0.00128753      0.00152136
     0.00912468      0.60200406     -0.57940477
vibration 99
     0.00005609     -0.00000518     -0.00013982
     0.00000688     -0.00006658     -0.00028574
    -0.00024356     -0.00016051      0.00025628
    -0.00033517      0.00010312      0.00024376
     0.00004065      0.00002533     -0.00018505
     0.00005045      0.00002770     -0.00004618
     0.00002328     -0.00003191     -0.00025173
     0.00007256     -0.00002096     -0.00004868
     0.00011549     -0.00005539      0.00002421
    -0.00003284      0.00009544      0.00014499
     0.00259743     -0.00106414     -0.00151454
     0.00490958     -0.03988767      0.03381597
    -0.06275659      0.02055501      0.04133910
    -0.00081189      0.00366757     -0.00245320
     0.00101874      0.00065921     -0.00049122
    -0.00008986     -0.00012415     -0.00005154
    -0.00012003     -0.00006237     -0.00004529
    -0.00057535      0.00021128     -0.00100229
     0.00037130     -0.00043359      0.00012869
     0.66852145     -0.17035452     -0.47440905
    -0.00028077      0.00032080      0.00040175
    -0.00002306      0.00004594      0.00004383
     0.00084027     -0.00010587     -0.00096988
    -0.00057172     -0.00017263     -0.00089201
     0.01194236     -0.03390159      0.00797645
    -0.02103268      0.01140988      0.00147295
     0.00127813      0.00059733     -0.00030212
     0.00022391      0.00097874      0.00177297
     0.00022981     -0.00042440     -0.00003383
    -0.00026692      0.00008796     -0.00011081
     0.00076462      0.00036273      0.00158658
     0.00074680      0.00125836     -0.00035909
    -0.00227653     -0.00232123     -0.00388315
    -0.00260933     -0.00129040      0.00405890
     0.00278794      0.38835258     -0.37055365
[INT]
    0.553837
    1.033173
    2.317319
    2.677646
    0.059492
    0.296902
    1.657257
    0.232693
    1.837494
    0.139332
    5.394993
    0.554534
    7.899473
    0.988067
    0.610705
    1.730283
    2.164745
   11.429567
    5.360340
    0.878391
    6.236024
    5.019261
    2.424451
    1.382718
    3.371579
    2.716822
   12.688127
   34.792277
    2.598943
   11.363634
    0.713774
    8.723502
    0.571361
    5.452807
   32.233514
    3.594860
    9.001083
    1.660013
    4.299718
    3.968876
    0.706293
    1.663892
   14.182975
   13.142815
    2.958394
    7.198060
   38.698888
    2.212624
    6.874207
   76.472457
   72.396467
   17.681424
    0.959253
    3.827463
    1.678253
    4.302289
   13.597346
   12.771475
  340.623428
  109.168292
    4.859659
    4.890355
   44.109431
   25.390527
    8.187960
    3.702722
   17.878870
    5.471083
   16.767654
    2.126382
   16.885014
    9.987411
    3.779853
   16.567583
    1.524462
    0.740084
    4.048227
   21.180246
    2.238843
   77.548198
  405.553423
   18.315985
   26.447323
   45.932764
    8.348168
   30.513841
   29.717141
   19.129017
   30.359201
   33.534747
   20.533409
   12.075349
   16.762764
    5.154236
   30.616390
   12.860790
   13.358183
    5.536536
   10.876178

======= END OF MOLDEN-FORMATTED INPUT FILE =======


        *************************************************************
        *                                                           *
        *  Thank you very much for using Q-Chem.  Have a nice day.  *
        *                                                           *
        *************************************************************


