mFile = /opt/software/qchem/qchem-5.0.1//bin/mpi/machines
Process 0 of 1 is on vega01.cac.cornell.edu - thread support 0
initial socket setup ...start
initial socket setup ...done 
now start server 0 ... 
localhost 127.0.0
Q-Chem Developer Version! Running on 127.0.0.*
                  Welcome to Q-Chem
     A Quantum Leap Into The Future Of Chemistry


 Q-Chem 5.0, Q-Chem, Inc., Pleasanton, CA (2017)

 Yihan Shao,  Zhengting Gan,  E. Epifanovsky,  A. T. B. Gilbert,  M. Wormit,  
 J. Kussmann,  A. W. Lange,  A. Behn,  Jia Deng,  Xintian Feng,  D. Ghosh,  
 M. Goldey,  P. R. Horn,  L. D. Jacobson,  I. Kaliman,  T. Kus,  A. Landau,  
 Jie Liu,  E. I. Proynov,  R. M. Richard,  R. P. Steele,  E. J. Sundstrom,  
 H. L. Woodcock III,  P. M. Zimmerman,  D. Zuev,  B. Albrecht,  E. Alguire,  
 S. A. Baeppler,  Z. Benda,  Y. A. Bernard,  E. J. Berquist,  K. B. Bravaya,  
 D. Casanova,  Chun-Min Chang,  Yunqing Chen,  A. Chien,  K. D. Closser,  
 M. P. Coons,  S. Dasgupta,  M. Diedenhofen,  Hainam Do,  R. G. Edgar,  
 Po-Tung Fang,  S. Fatehi,  Qingguo Feng,  Qinghui Ge,  A. Ghysels,  
 J. Gomes,  J. Gonthier,  A. Gunina,  M. W. D. Hanson-Heine,  
 P. H. P. Harbach,  A. W. Hauser,  J. E. Herr,  E. G. Hohenstein,  
 Z. C. Holden,  Kerwin Hui,  T.-C. Jagau,  Hyunjun Ji,  B. Kaduk,  
 K. Khistyaev,  Jaehoon Kim,  P. Klunzinger,  K. Koh,  D. Kosenkov,  
 T. Kowalczyk,  C. M. Krauter,  A. Kunitsa,  Ka Un Lao,  A. Laurent,  
 K. V. Lawler,  Joonho Lee,  D. Lefrancois,  S. Lehtola,  D. S. Levine,  
 Yi-Pei Li,  You-Sheng Lin,  Fenglai Liu,  E. Livshits,  A. Luenser,  
 P. Manohar,  E. Mansoor,  S. F. Manzer,  Shan-Ping Mao,  Yuezhi Mao,  
 N. Mardirossian,  A. V. Marenich,  L. A. Martinez-Martinez,  S. A. Maurer,  
 N. J. Mayhall,  S. C. McKenzie,  J.-M. Mewes,  A. F. Morrison,  K. Nanda,  
 T. S. Nguyen-Beck,  R. Olivares-Amaya,  J. A. Parkhill,  T. M. Perrine,  
 F. Plasser,  S. Prager,  A. Prociuk,  D. R. Rehn,  F. Rob,  M. Schneider,  
 N. Sergueev,  S. M. Sharada,  S. Sharma,  D. W. Small,  T. Stauch,  
 T. Stein,  Yu-Chuan Su,  A. J. W. Thom,  T. Tsuchimochi,  L. Vogt,  
 O. Vydrov,  M. A. Watson,  J. Wenzel,  M. de Wergifosse,  T. A. Wesolowski,  
 A. White,  J. Witte,  A. Yamada,  Jun Yang,  K. Yao,  S. Yeganeh,  
 S. R. Yost,  Zhi-Qiang You,  A. Zech,  Igor Ying Zhang,  Xing Zhang,  
 Yan Zhao,  Ying Zhu,  B. R. Brooks,  G. K. L. Chan,  C. J. Cramer,  
 M. S. Gordon,  W. J. Hehre,  A. Klamt,  M. W. Schmidt,  C. D. Sherrill,  
 D. G. Truhlar,  A. Aspuru-Guzik,  R. Baer,  A. T. Bell,  N. A. Besley,  
 Jeng-Da Chai,  A. Dreuw,  B. D. Dunietz,  T. R. Furlani,  Chao-Ping Hsu,  
 Yousung Jung,  Jing Kong,  D. S. Lambrecht,  WanZhen Liang,  C. Ochsenfeld,  
 V. A. Rassolov,  L. V. Slipchenko,  J. E. Subotnik,  T. Van Voorhis,  
 J. M. Herbert,  A. I. Krylov,  P. M. W. Gill,  M. Head-Gordon

 Contributors to earlier versions of Q-Chem not listed above: 
 R. D. Adamson,  B. Austin,  J. Baker,  G. J. O. Beran,  K. Brandhorst,  
 S. T. Brown,  E. F. C. Byrd,  A. K. Chakraborty,  C.-L. Cheng,  
 Siu Hung Chien,  D. M. Chipman,  D. L. Crittenden,  H. Dachsel,  
 R. A. DiStasio Jr.,  R. J. Doerksen,  A. D. Dutoi,  L. Fusti-Molnar,  
 W. A. Goddard III,  A. Golubeva-Zadorozhnaya,  S. R. Gwaltney,  G. Hawkins,  
 A. Heyden,  S. Hirata,  G. Kedziora,  F. J. Keil,  C. Kelley,  Jihan Kim,  
 R. A. King,  R. Z. Khaliullin,  P. P. Korambath,  W. Kurlancheek,  
 A. M. Lee,  M. S. Lee,  S. V. Levchenko,  Ching Yeh Lin,  D. Liotard,  
 R. C. Lochan,  I. Lotan,  P. E. Maslen,  N. Nair,  D. P. O'Neill,  
 D. Neuhauser,  E. Neuscamman,  C. M. Oana,  R. Olson,  B. Peters,  
 R. Peverati,  P. A. Pieniazek,  Y. M. Rhee,  J. Ritchie,  M. A. Rohrdanz,  
 E. Rosta,  N. J. Russ,  H. F. Schaefer III,  N. E. Schultz,  N. Shenvi,  
 A. C. Simmonett,  A. Sodt,  D. Stuck,  K. S. Thanthiriwatte,  V. Vanovschi,  
 Tao Wang,  A. Warshel,  C. F. Williams,  Q. Wu,  X. Xu,  W. Zhang

 Please cite Q-Chem as follows:
 Y. Shao et al., Mol. Phys. 113, 184-215 (2015)
 DOI: 10.1080/00268976.2014.952696

 Q-Chem 5.0.1 for Intel X86 EM64T Linux

 Parts of Q-Chem use Armadillo 5.200.1 (Boston Tea Smuggler).
 http://arma.sourceforge.net/

 Q-Chem begins on Mon Apr 16 18:17:58 2018  

Host: vega01.cac.cornell.edu
0

     Scratch files written to /scratch/jj585/vdw/1101_distance_5.300_11.save//
 Parallel job on  1  processors

Checking the input file for inconsistencies... 	...done.

--------------------------------------------------------------
User input:
--------------------------------------------------------------
$molecule
0  1
--
0  1
C        +0.22270000        +1.04488000        +0.58595000
C        +0.62626000        -0.41353000        +0.99871000
C        -1.18200000        +1.23223000        +0.04377000
C        -0.37457000        -1.51643000        +0.72333000
O        -2.09172000        +0.78832000        +0.93966000
O        -1.47336000        +1.75939000        -0.99882000
O        -0.91364000        -1.42792000        -0.50620000
O        -0.62208000        -2.40877000        +1.49911000
C        -1.86134000        -2.44741000        -0.86560000
C        -3.47068000        +0.87492000        +0.53920000
C        +1.33008000        +1.39974000        -0.43491000
C        +2.63070000        +1.71700000        +0.32855000
C        +3.04336000        +0.29351000        +0.80300000
C        +1.94423000        -0.59299000        +0.15262000
O        +1.62840000        +0.13663000        -1.04376000
H        +0.27811000        +1.68786000        +1.46900000
H        +0.83923000        -0.48042000        +2.06408000
H        -2.68749000        -2.46677000        -0.15296000
H        -3.76076000        +1.91522000        +0.38406000
H        +3.37234000        +2.13782000        -0.35195000
H        +2.48236000        +2.42488000        +1.14651000
H        +4.02182000        +0.00994000        +0.41161000
H        +3.07359000        +0.18738000        +1.88928000
H        -2.21148000        -2.17765000        -1.85937000
H        -1.38062000        -3.42697000        -0.88096000
H        -4.03855000        +0.43623000        +1.35671000
H        -3.63120000        +0.31700000        -0.38495000
C        +2.35450000        -2.01267000        -0.16812000
H        +3.26311000        -2.00678000        -0.77366000
H        +2.54990000        -2.57059000        +0.75079000
H        +1.57335000        -2.52896000        -0.72872000
H        +1.03270000        +2.19943000        -1.08064000
--
0  1
C        +0.25035000        +2.61098000        +5.64921000
C        +0.65391000        +1.15257000        +6.06197000
C        -1.15435000        +2.79833000        +5.10703000
C        -0.34692000        +0.04967000        +5.78659000
O        -2.06407000        +2.35442000        +6.00292000
O        -1.44571000        +3.32549000        +4.06444000
O        -0.88599000        +0.13818000        +4.55706000
O        -0.59443000        -0.84267000        +6.56237000
C        -1.83369000        -0.88131000        +4.19766000
C        -3.44303000        +2.44102000        +5.60246000
C        +1.35773000        +2.96584000        +4.62835000
C        +2.65835000        +3.28310000        +5.39181000
C        +3.07101000        +1.85961000        +5.86626000
C        +1.97188000        +0.97311000        +5.21588000
O        +1.65605000        +1.70273000        +4.01950000
H        +0.30576000        +3.25396000        +6.53226000
H        +0.86688000        +1.08568000        +7.12734000
H        -2.65984000        -0.90067000        +4.91030000
H        -3.73311000        +3.48132000        +5.44732000
H        +3.39999000        +3.70392000        +4.71131000
H        +2.51001000        +3.99098000        +6.20977000
H        +4.04947000        +1.57604000        +5.47487000
H        +3.10124000        +1.75348000        +6.95254000
H        -2.18383000        -0.61155000        +3.20389000
H        -1.35297000        -1.86087000        +4.18230000
H        -4.01090000        +2.00233000        +6.41997000
H        -3.60355000        +1.88310000        +4.67831000
C        +2.38215000        -0.44657000        +4.89514000
H        +3.29076000        -0.44068000        +4.28960000
H        +2.57755000        -1.00449000        +5.81405000
H        +1.60100000        -0.96286000        +4.33454000
H        +1.06035000        +3.76553000        +3.98262000
$end

$rem
JOBTYPE                   SP
METHOD                    B3LYP
DFT_D                     d3_op
BASIS                     6-311++G(d,p)
SYMMETRY                  False
THRESH                    12
SCF_CONVERGENCE           8
MAX_SUB_FILE_NUM          128
MEM_STATIC                400
MEM_TOTAL                 4000
$end
--------------------------------------------------------------
 Adding empirical dispersion correction 
 ----------------------------------------------------------------
 Doing -D3(op) with
 s6 =   1.00000
 s8 =   0.78311
 a1 =   0.30000
 a2 =   4.25000
 n  =  10.00000
 -D3 energy without 3body term =     -0.0858012269 hartrees
 ----------------------------------------------------------------
             Standard Nuclear Orientation (Angstroms)
    I     Atom           X                Y                Z
 ----------------------------------------------------------------
    1      C      -1.8071965312     0.2112519680     1.1253434638
    2      C      -1.9458900187     0.5709739495    -0.3950365650
    3      C      -2.2730540643    -1.1718531159     1.5403595484
    4      C      -2.6250522570    -0.4440562369    -1.2907684545
    5      O      -1.6197197480    -2.1178521882     0.8293704592
    6      O      -3.0577251361    -1.4198302150     2.4193253559
    7      O      -3.7487762802    -0.9431183430    -0.7445488651
    8      O      -2.2331061396    -0.7341130139    -2.3960339390
    9      C      -4.4746600288    -1.9007090921    -1.5337106044
   10      C      -1.9898067501    -3.4817207220     1.0982508910
   11      C      -2.6051986559     1.3567256633     1.7927667523
   12      C      -1.7516317356     2.6397127008     1.7702892578
   13      C      -1.8199766297     3.0073732860     0.2597034351
   14      C      -2.7714727423     1.9102098712    -0.2951395521
   15      O      -3.6260644363     1.6467896839     0.8290054025
   16      H      -0.7496172344     0.2531200819     1.4011041264
   17      H      -0.9739362853     0.7496621193    -0.8513480902
   18      H      -3.8354926928    -2.7485790461    -1.7853771679
   19      H      -1.7612435132    -3.7448064808     2.1321675445
   20      H      -2.2163589319     3.4106452573     2.3866424343
   21      H      -0.7352606966     2.4813457539     2.1364411837
   22      H      -2.2672535058     3.9911672802     0.1077994468
   23      H      -0.8466709547     3.0019756013    -0.2350981376
   24      H      -5.3088973356    -2.2143749004    -0.9103253569
   25      H      -4.8358469513    -1.4405938512    -2.4549616092
   26      H      -1.4004021851    -4.0835901505     0.4100624699
   27      H      -3.0568527492    -3.6255623919     0.9198776051
   28      C      -3.5788149293     2.2999828719    -1.5129090393
   29      H      -4.1214558565     3.2266812001    -1.3152817424
   30      H      -2.9225049343     2.4552136027    -2.3725671604
   31      H      -4.3051857148     1.5256601198    -1.7655605862
   32      H      -2.9212083754     1.0963160297     2.7813166364
   33      C       3.4780140900     0.1165530421     0.7411347145
   34      C       3.3393206025     0.4762750237    -0.7792453142
   35      C       3.0121565570    -1.2665520418     1.1561507992
   36      C       2.6601583642    -0.5387551628    -1.6749772037
   37      O       3.6654908733    -2.2125511141     0.4451617100
   38      O       2.2274854852    -1.5145291409     2.0351166067
   39      O       1.5364343410    -1.0378172689    -1.1287576143
   40      O       3.0521044816    -0.8288119398    -2.7802426883
   41      C       0.8105505924    -1.9954080179    -1.9179193537
   42      C       3.2954038711    -3.5764196479     0.7140421418
   43      C       2.6800119653     1.2620267374     1.4085580031
   44      C       3.5335788856     2.5450137749     1.3860805085
   45      C       3.4652339915     2.9126743601    -0.1245053142
   46      C       2.5137378790     1.8155109454    -0.6793483014
   47      O       1.6591461849     1.5520907580     0.4447966533
   48      H       4.5355933868     0.1584211561     1.0168953771
   49      H       4.3112743359     0.6549631934    -1.2355568394
   50      H       1.4497179285    -2.8432779720    -2.1695859171
   51      H       3.5239671080    -3.8395054066     1.7479587953
   52      H       3.0688516893     3.3159463315     2.0024336851
   53      H       4.5499499246     2.3866468280     1.7522324344
   54      H       3.0179571154     3.8964683543    -0.2764093024
   55      H       4.4385396665     2.9072766754    -0.6193068868
   56      H      -0.0236867143    -2.3090738263    -1.2945341061
   57      H       0.4493636699    -1.5352927771    -2.8391703584
   58      H       3.8848084361    -4.1782890763     0.0258537207
   59      H       2.2283578720    -3.7202613178     0.5356688559
   60      C       1.7063956919     2.2052839460    -1.8971177885
   61      H       1.1637547647     3.1319822742    -1.6994904917
   62      H       2.3627056870     2.3605146769    -2.7567759096
   63      H       0.9800249065     1.4309611939    -2.1497693355
   64      H       2.3640022459     1.0016171038     2.3971078871
 ----------------------------------------------------------------
 Molecular Point Group                 C1    NOp =  1
 Largest Abelian Subgroup              C1    NOp =  1
 Nuclear Repulsion Energy =  3839.1509202002 hartrees
 There are      122 alpha and      122 beta electrons
 Requested basis set is 6-311++G(d,p)
 There are 352 shells and 928 basis functions

 Total QAlloc Memory Limit   4000 MB
 Mega-Array Size       392 MB
 MEM_STATIC part       400 MB
 A cutoff of  1.0D-12 yielded  44541 shell pairs
 There are    305880 function pairs (    324056 Cartesian)
 Smallest overlap matrix eigenvalue = 4.12E-07
 Linear dependence detected in AO basis
 Number of orthogonalized atomic orbitals = 926
 Maximum deviation from orthogonality = 2.544E-10

 Scale SEOQF with 1.000000e-02/1.000000e-01/1.000000e-01

 Standard Electronic Orientation quadrupole field applied
 Nucleus-field energy     =     0.0000000184 hartrees
 Guess from superposition of atomic densities
 Warning:  Energy on first SCF cycle will be non-variational
 A restricted hybrid HF-DFT SCF calculation will be
 performed using Pulay DIIS extrapolation
 Exchange:     0.2000 Hartree-Fock + 0.0800 Slater + 0.7200 B88
 Correlation:  0.1900 VWN1RPA + 0.8100 LYP
 Using SG-1 standard quadrature grid
 Dispersion:   Grimme D3
 SCF converges when DIIS error is below 1.0E-08
 ---------------------------------------
  Cycle       Energy         DIIS Error
 ---------------------------------------
    1   -1616.9483773225      2.08E-02
    2   -1609.7676401716      2.69E-03
    3   -1608.8228525851      4.43E-03
    4   -1610.3130373697      1.05E-03
    5   -1610.4019355458      2.67E-04
    6   -1610.4066554019      1.07E-04
    7   -1610.4075213640      2.70E-05
    8   -1610.4075672050      1.25E-05
    9   -1610.4075804502      3.05E-06
   10   -1610.4075812301      1.12E-06
   11   -1610.4075808641      2.60E-07
   12   -1610.4075810369      1.09E-07
   13   -1610.4075809874      3.41E-08
   14   -1610.4075809706      1.56E-08
   15   -1610.4075809739      5.28E-09 Convergence criterion met
 ---------------------------------------
 SCF time:  CPU 7025.15 s  wall 7041.40 s
 SCF   energy in the final basis set = -1610.40758097
 Total energy in the final basis set = -1610.40758097
 
 --------------------------------------------------------------
 
                    Orbital Energies (a.u.)
 --------------------------------------------------------------
 
 Alpha MOs
 -- Occupied --
-19.178 -19.171 -19.171 -19.169 -19.141 -19.123 -19.122 -19.115
-19.114 -19.111 -10.313 -10.306 -10.303 -10.301 -10.252 -10.238
-10.236 -10.234 -10.229 -10.229 -10.219 -10.219 -10.210 -10.208
-10.195 -10.192 -10.185 -10.184 -10.177 -10.169 -10.167 -10.166
 -1.122  -1.116  -1.113  -1.108  -1.072  -1.054  -1.034  -1.026
 -1.026  -1.023  -0.838  -0.823  -0.802  -0.789  -0.788  -0.775
 -0.747  -0.742  -0.728  -0.724  -0.702  -0.690  -0.659  -0.647
 -0.610  -0.599  -0.596  -0.582  -0.568  -0.566  -0.565  -0.555
 -0.538  -0.526  -0.521  -0.514  -0.511  -0.504  -0.497  -0.493
 -0.486  -0.485  -0.484  -0.478  -0.476  -0.473  -0.471  -0.467
 -0.464  -0.453  -0.447  -0.438  -0.436  -0.428  -0.427  -0.419
 -0.417  -0.410  -0.409  -0.399  -0.398  -0.395  -0.393  -0.386
 -0.383  -0.375  -0.373  -0.372  -0.369  -0.365  -0.364  -0.358
 -0.357  -0.352  -0.346  -0.342  -0.339  -0.337  -0.325  -0.323
 -0.321  -0.316  -0.311  -0.309  -0.293  -0.286  -0.284  -0.280
 -0.276  -0.265
 -- Virtual --
 -0.023  -0.015  -0.012  -0.010  -0.006   0.000   0.001   0.005
  0.006   0.011   0.014   0.016   0.018   0.019   0.024   0.030
  0.034   0.034   0.039   0.039   0.042   0.045   0.046   0.050
  0.051   0.054   0.055   0.059   0.063   0.065   0.067   0.070
  0.072   0.077   0.078   0.080   0.085   0.089   0.092   0.094
  0.095   0.097   0.100   0.101   0.103   0.105   0.106   0.109
  0.110   0.112   0.115   0.115   0.119   0.120   0.121   0.123
  0.123   0.127   0.129   0.131   0.132   0.133   0.136   0.136
  0.137   0.140   0.141   0.143   0.143   0.146   0.147   0.148
  0.150   0.151   0.153   0.155   0.156   0.158   0.159   0.161
  0.163   0.164   0.166   0.168   0.172   0.173   0.175   0.177
  0.178   0.180   0.180   0.183   0.183   0.186   0.188   0.190
  0.190   0.192   0.196   0.197   0.199   0.199   0.202   0.206
  0.206   0.208   0.210   0.214   0.216   0.217   0.219   0.221
  0.221   0.224   0.226   0.228   0.231   0.232   0.233   0.239
  0.240   0.244   0.246   0.247   0.248   0.251   0.253   0.255
  0.257   0.259   0.259   0.264   0.268   0.270   0.273   0.275
  0.278   0.279   0.281   0.284   0.285   0.287   0.291   0.296
  0.297   0.300   0.301   0.304   0.305   0.307   0.308   0.309
  0.314   0.315   0.319   0.319   0.322   0.325   0.326   0.327
  0.329   0.333   0.338   0.338   0.340   0.342   0.346   0.350
  0.351   0.356   0.358   0.358   0.361   0.362   0.365   0.366
  0.369   0.373   0.375   0.378   0.380   0.382   0.383   0.386
  0.389   0.390   0.393   0.396   0.401   0.404   0.405   0.407
  0.409   0.414   0.418   0.419   0.421   0.424   0.430   0.432
  0.432   0.437   0.442   0.445   0.450   0.453   0.455   0.459
  0.464   0.466   0.472   0.481   0.483   0.485   0.488   0.494
  0.499   0.502   0.509   0.512   0.514   0.517   0.524   0.527
  0.535   0.535   0.544   0.546   0.547   0.550   0.557   0.560
  0.566   0.568   0.570   0.572   0.579   0.582   0.586   0.590
  0.592   0.598   0.600   0.607   0.609   0.611   0.619   0.622
  0.625   0.631   0.633   0.640   0.645   0.646   0.654   0.656
  0.661   0.663   0.663   0.665   0.673   0.676   0.680   0.682
  0.683   0.689   0.692   0.695   0.700   0.702   0.705   0.708
  0.712   0.713   0.715   0.720   0.721   0.723   0.729   0.732
  0.737   0.738   0.743   0.745   0.750   0.753   0.759   0.761
  0.762   0.768   0.774   0.777   0.780   0.781   0.788   0.789
  0.791   0.797   0.800   0.805   0.805   0.808   0.818   0.825
  0.829   0.836   0.839   0.843   0.846   0.854   0.856   0.859
  0.866   0.872   0.874   0.885   0.889   0.898   0.904   0.907
  0.918   0.930   0.933   0.948   0.965   0.973   0.977   0.990
  0.997   1.009   1.023   1.034   1.040   1.043   1.060   1.075
  1.081   1.085   1.088   1.096   1.101   1.107   1.123   1.126
  1.137   1.150   1.152   1.159   1.165   1.172   1.177   1.185
  1.192   1.198   1.200   1.208   1.213   1.218   1.224   1.230
  1.232   1.239   1.251   1.257   1.261   1.262   1.269   1.273
  1.275   1.277   1.292   1.295   1.300   1.307   1.310   1.313
  1.316   1.318   1.330   1.335   1.339   1.347   1.348   1.361
  1.366   1.369   1.381   1.388   1.394   1.396   1.403   1.410
  1.416   1.426   1.430   1.436   1.442   1.442   1.453   1.455
  1.465   1.474   1.479   1.484   1.486   1.493   1.499   1.504
  1.511   1.515   1.518   1.530   1.534   1.537   1.545   1.552
  1.557   1.563   1.564   1.571   1.574   1.577   1.581   1.582
  1.590   1.591   1.593   1.601   1.604   1.606   1.614   1.618
  1.619   1.624   1.632   1.635   1.641   1.646   1.653   1.657
  1.661   1.669   1.671   1.673   1.681   1.682   1.687   1.698
  1.702   1.704   1.710   1.713   1.715   1.719   1.721   1.725
  1.728   1.733   1.735   1.741   1.748   1.756   1.759   1.760
  1.768   1.775   1.785   1.786   1.793   1.795   1.805   1.812
  1.815   1.823   1.826   1.831   1.837   1.843   1.851   1.859
  1.861   1.867   1.872   1.876   1.879   1.888   1.893   1.903
  1.911   1.914   1.923   1.933   1.933   1.942   1.946   1.953
  1.959   1.968   1.987   1.990   1.996   2.002   2.006   2.009
  2.017   2.022   2.037   2.041   2.045   2.048   2.058   2.062
  2.073   2.079   2.085   2.094   2.105   2.112   2.125   2.126
  2.136   2.138   2.142   2.149   2.155   2.162   2.164   2.168
  2.174   2.178   2.187   2.191   2.199   2.204   2.221   2.227
  2.238   2.239   2.245   2.255   2.261   2.268   2.277   2.290
  2.307   2.314   2.325   2.340   2.349   2.366   2.383   2.394
  2.406   2.419   2.428   2.446   2.454   2.462   2.470   2.473
  2.475   2.490   2.494   2.498   2.511   2.515   2.520   2.529
  2.530   2.535   2.540   2.541   2.542   2.547   2.552   2.561
  2.579   2.580   2.585   2.594   2.603   2.605   2.608   2.620
  2.621   2.631   2.634   2.640   2.647   2.660   2.665   2.673
  2.680   2.696   2.699   2.706   2.717   2.729   2.735   2.743
  2.753   2.763   2.771   2.775   2.788   2.800   2.806   2.809
  2.818   2.832   2.834   2.842   2.849   2.855   2.862   2.867
  2.871   2.880   2.882   2.888   2.891   2.897   2.899   2.908
  2.915   2.922   2.930   2.935   2.943   2.949   2.960   2.974
  2.976   2.989   3.001   3.007   3.014   3.025   3.042   3.045
  3.051   3.056   3.061   3.069   3.075   3.083   3.086   3.098
  3.103   3.109   3.114   3.119   3.126   3.132   3.142   3.152
  3.158   3.159   3.168   3.186   3.192   3.198   3.206   3.220
  3.226   3.233   3.244   3.250   3.253   3.263   3.272   3.278
  3.283   3.297   3.309   3.337   3.353   3.363   3.371   3.374
  3.380   3.393   3.400   3.410   3.416   3.420   3.440   3.462
  3.590   3.597   3.599   3.607   3.615   3.621   3.667   3.695
  3.705   3.735   3.745   3.757   3.783   3.790   3.796   3.812
  3.829   3.831   3.834   3.842   3.848   3.858   3.879   3.901
  3.941   3.956   3.964   3.979   4.058   4.065   4.079   4.083
  4.089   4.094   4.103   4.110   4.141   4.147   4.153   4.157
  4.162   4.171   4.185   4.210   4.229   4.239   4.266   4.270
  4.276   4.282   4.435   4.451   4.503   4.517   5.083   5.088
  5.144   5.150   5.185   5.205   5.222   5.235   5.239   5.252
  5.277   5.284   5.301   5.304   5.419   5.451   5.460   5.474
  5.537   5.576   5.631   5.637   5.652   5.662   5.680   5.685
  5.909   5.912   5.917   5.941  23.806  23.816  23.849  23.854
 23.866  23.884  23.900  23.915  23.920  23.935  23.940  23.954
 23.960  23.966  23.980  23.985  23.989  23.996  24.004  24.007
 24.064  24.095  49.918  49.938  49.952  49.969  50.002  50.008
 50.043  50.056  50.060  50.070
 --------------------------------------------------------------
 
          Ground-State Mulliken Net Atomic Charges

     Atom                 Charge (a.u.)
  ----------------------------------------
      1 C                    -0.124271
      2 C                     0.941926
      3 C                    -0.696340
      4 C                    -0.770891
      5 O                     0.032491
      6 O                    -0.169162
      7 O                     0.060417
      8 O                    -0.085854
      9 C                    -0.171105
     10 C                    -0.264687
     11 C                    -0.324120
     12 C                    -0.394526
     13 C                    -0.238801
     14 C                    -0.474635
     15 O                     0.021035
     16 H                     0.255516
     17 H                     0.210360
     18 H                     0.192734
     19 H                     0.193199
     20 H                     0.198512
     21 H                     0.120250
     22 H                     0.190394
     23 H                     0.061830
     24 H                     0.180994
     25 H                     0.175314
     26 H                     0.125327
     27 H                     0.187316
     28 C                    -0.278285
     29 H                     0.183788
     30 H                     0.158292
     31 H                     0.183835
     32 H                     0.286244
     33 C                    -0.010526
     34 C                     0.468504
     35 C                    -0.628130
     36 C                    -0.872178
     37 O                     0.024814
     38 O                    -0.110062
     39 O                     0.055057
     40 O                    -0.094405
     41 C                    -0.353380
     42 C                    -0.159805
     43 C                    -0.128923
     44 C                    -0.677680
     45 C                    -0.312699
     46 C                    -0.315159
     47 O                     0.239904
     48 H                     0.248770
     49 H                     0.286633
     50 H                     0.215681
     51 H                     0.170342
     52 H                     0.177612
     53 H                     0.142173
     54 H                     0.168491
     55 H                     0.147656
     56 H                     0.131190
     57 H                     0.228225
     58 H                     0.165864
     59 H                     0.180172
     60 C                    -0.241236
     61 H                     0.199755
     62 H                     0.195558
     63 H                     0.215691
     64 H                     0.274993
  ----------------------------------------
  Sum of atomic charges =     0.000000

 -----------------------------------------------------------------
                    Cartesian Multipole Moments
 -----------------------------------------------------------------
    Charge (ESU x 10^10)
                 0.0000
    Dipole Moment (Debye)
         X       2.9729      Y       0.0651      Z       0.1436
       Tot       2.9771
    Quadrupole Moments (Debye-Ang)
        XX    -189.1939     XY       9.1762     YY    -165.2134
        XZ      19.7314     YZ       0.4679     ZZ    -208.5632
    Octopole Moments (Debye-Ang^2)
       XXX      48.3082    XXY     -26.4744    XYY       4.1629
       YYY    -106.0347    XXZ     -16.5731    XYZ     -20.4836
       YYZ      -5.4998    XZZ     -11.0196    YZZ      23.5482
       ZZZ      31.8955
    Hexadecapole Moments (Debye-Ang^3)
      XXXX   -9041.8971   XXXY     230.0012   XXYY   -2112.3806
      XYYY     -72.2871   YYYY   -4302.9009   XXXZ     439.3734
      XXYZ      -1.3738   XYYZ      33.5276   YYYZ     -36.5793
      XXZZ   -2116.0861   XYZZ       3.0021   YYZZ   -1197.7533
      XZZZ     105.3856   YZZZ      14.8707   ZZZZ   -2820.2348
 -----------------------------------------------------------------
Archival summary:
1\1\vega01.cac.cornell.edu\SP\ProcedureUnspecified\BasisUnspecified\102232\jj585\MonApr1620:15:222018MonApr1620:15:222018\0\\#,ProcedureUnspecified,BasisUnspecified,\\0,1\O\C,1,1.34543\O,2,1.20804,1,123.598\C,1,1.43759,2,116.484,3,1.88648,0\H,4,1.08763,1,105.353,2,177.393,0\H,4,1.09122,1,110.39,2,57.5626,0\H,4,1.09127,1,110.468,2,-63.158,0\C,2,1.51456,1,112.521,3,177.156,0\H,8,1.08851,2,105.218,1,169.467,0\C,8,1.5685,2,117.337,1,44.9607,0\H,10,1.09374,8,108.73,2,123.22,0\C,10,1.51731,8,116.554,2,4.55568,0\O,12,1.20407,10,125.979,8,-126.895,0\O,12,1.35176,10,110.223,8,56.6764,0\C,14,1.43854,12,116.158,10,-178.482,0\H,15,1.08777,14,105.482,12,177.492,0\H,15,1.09107,14,110.6,12,-62.8398,0\H,15,1.09137,14,110.239,12,57.9539,0\C,10,1.54738,8,101.696,2,-119.387,0\H,19,1.07,10,111.755,8,159.179,0\O,19,1.43358,10,103.124,8,32.1918,0\C,21,1.43646,19,98.0224,10,-55.9256,0\C,22,1.51218,21,111.091,19,-178.393,0\H,23,1.09134,22,111.033,21,-57.0184,0\H,23,1.09192,22,109.775,21,62.6469,0\H,23,1.09264,22,110.458,21,-177.522,0\C,19,1.54115,10,108.926,8,-76.1436,0\H,27,1.09096,19,110.128,10,-170.072,0\H,27,1.09186,19,112.95,10,-49.1929,0\C,22,1.55466,21,102.371,19,-54.4128,0\H,30,1.09132,22,109.614,21,-87.4148,0\H,30,1.09187,22,112.355,21,152.676,0\H,24,2.44296,23,127.386,22,66.9149,0\C,33,1.08851,24,169.352,23,96.6533,0\C,34,1.51456,33,105.218,24,81.3721,0\O,35,1.20804,34,123.816,33,-13.3842,0\O,35,1.34543,34,112.521,33,169.467,0\C,37,1.43759,35,116.484,34,179.042,0\H,38,1.08763,37,105.353,35,177.393,0\H,38,1.09122,37,110.39,35,57.5626,0\H,38,1.09127,37,110.468,35,-63.158,0\C,34,1.5685,33,111.41,24,-150.468,0\H,42,1.09374,34,108.73,33,1.88124,0\C,42,1.51731,34,116.554,33,-116.783,0\O,44,1.20407,42,125.979,34,-126.895,0\O,44,1.35176,42,110.223,34,56.6764,0\C,46,1.43854,44,116.158,42,-178.482,0\H,47,1.08777,46,105.482,44,177.492,0\H,47,1.09107,46,110.6,44,-62.8398,0\H,47,1.09137,46,110.239,44,57.9539,0\C,42,1.54738,34,101.696,33,119.274,0\H,51,1.07,42,111.755,34,159.179,0\O,51,1.43358,42,103.124,34,32.1918,0\C,53,1.43646,51,98.0224,42,-55.9256,0\C,54,1.51218,53,111.091,51,-178.393,0\H,55,1.09134,54,111.033,53,-57.0184,0\H,55,1.09192,54,109.775,53,62.6469,0\H,55,1.09264,54,110.458,53,-177.522,0\C,51,1.54115,42,108.926,34,-76.1436,0\H,59,1.09096,51,110.128,42,-170.072,0\H,59,1.09186,51,112.95,42,-49.1929,0\C,54,1.55466,53,102.371,51,-54.4128,0\H,62,1.09132,54,109.614,53,-87.4148,0\H,62,1.09187,54,112.355,53,152.676,0\\\@

 Total job time:  7043.78s(wall), 7027.46s(cpu) 
 Mon Apr 16 20:15:22 2018

        *************************************************************
        *                                                           *
        *  Thank you very much for using Q-Chem.  Have a nice day.  *
        *                                                           *
        *************************************************************


0 sent ACK to 0 
now end server 0 ... 
