
    -----------------------------------------------------------------------
          Psi4: An Open-Source Ab Initio Electronic Structure Package
                               Psi4 1.1 release

                         Git: Rev {HEAD} add49b9 


    R. M. Parrish, L. A. Burns, D. G. A. Smith, A. C. Simmonett,
    A. E. DePrince III, E. G. Hohenstein, U. Bozkaya, A. Yu. Sokolov,
    R. Di Remigio, R. M. Richard, J. F. Gonthier, A. M. James,
    H. R. McAlexander, A. Kumar, M. Saitow, X. Wang, B. P. Pritchard,
    P. Verma, H. F. Schaefer III, K. Patkowski, R. A. King, E. F. Valeev,
    F. A. Evangelista, J. M. Turney, T. D. Crawford, and C. D. Sherrill,
    J. Chem. Theory Comput. in press (2017).
    (doi: 10.1021/acs.jctc.7b00174)

    -----------------------------------------------------------------------


    Psi4 started on: Tuesday, 12 December 2017 11:09AM

    Process ID:  14786
    PSIDATADIR: /home/junteng/Softwares/psi4conda/share/psi4
    Memory:     500.0 MiB
    Threads:    1
    
  ==> Input File <==

--------------------------------------------------------------------------
memory 750000 mb

molecule mol {
0 1
C         -0.57623       -1.79746        0.05551
O         -0.47582       -2.54961       -0.87645
O         -1.69585       -1.70514        0.81657
C         -2.84012       -2.43366        0.33612
H         -2.62543       -3.50226        0.28859
H         -3.11813       -2.07470       -0.65608
H         -3.63334       -2.23501        1.05391
--
0 1
C         -1.21327        0.96990       -0.07677
O         -1.57720        0.49442       -1.12327
O         -1.89143        1.94548        0.57034
C         -3.09333        2.40773       -0.07301
H         -2.86046        2.85517       -1.04067
H         -3.51605        3.15013        0.60029
H         -3.78899        1.58031       -0.21958
--
0 1
C          2.38310       -2.01604       -0.82361
H          3.38400       -1.80580       -1.20818
H          2.44604       -2.87318       -0.14769
H          1.72504       -2.28237       -1.64637
C          1.05672        2.63656       -0.72519
H          1.98084        2.98365       -1.19168
H          0.29744        2.53831       -1.50323
H          0.72699        3.38770       -0.00317
C          0.06118        0.63828        0.66607
C          0.48264       -0.87056        0.63556
C          1.30152        1.31111       -0.03803
C          2.47024        1.28634        0.97918
C          2.87218       -0.20996        0.95099
C          1.87058       -0.80015       -0.08286
O          1.68965        0.31021       -0.98511
H         -0.04726        1.00553        1.68489
H          0.61264       -1.21537        1.66468
H          3.28025        1.92430        0.61997
H          2.17302        1.64546        1.96637
H          3.89069       -0.33873        0.58106
H          2.80652       -0.70092        1.92428

symmetry c1
no_reorient
no_com
}

set {
basis jun-cc-pvdz
scf_type df
guess sad
freeze_core true
}

energy('fisapt0')
--------------------------------------------------------------------------

  Memory set to 698.492 GiB by Python driver.

*** tstart() called on ThinkPad-P50
*** at Tue Dec 12 11:09:28 2017

   => Loading Basis Set <=

    Name: JUN-CC-PVDZ
    Role: ORBITAL
    Keyword: BASIS
    atoms 1, 4, 8, 11, 15, 19, 23-28      entry C          line   157 file /home/junteng/Softwares/psi4conda/share/psi4/basis/jun-cc-pvdz.gbs 
    atoms 2-3, 9-10, 29                   entry O          line   225 file /home/junteng/Softwares/psi4conda/share/psi4/basis/jun-cc-pvdz.gbs 
    atoms 5-7, 12-14, 16-18, 20-22, 30-35 entry H          line    35 file /home/junteng/Softwares/psi4conda/share/psi4/basis/jun-cc-pvdz.gbs 


         ---------------------------------------------------------
                                   SCF
            by Justin Turney, Rob Parrish, and Andy Simmonett
                              RHF Reference
                        1 Threads, 715255 MiB Core
         ---------------------------------------------------------

  ==> Geometry <==

    Molecular point group: c1
    Full point group: C1

    Geometry (in Angstrom), charge = 0, multiplicity = 1:

       Center              X                  Y                   Z               Mass       
    ------------   -----------------  -----------------  -----------------  -----------------
           C         -0.576230000000    -1.797460000000     0.055510000000    12.000000000000
           O         -0.475820000000    -2.549610000000    -0.876450000000    15.994914619560
           O         -1.695850000000    -1.705140000000     0.816570000000    15.994914619560
           C         -2.840120000000    -2.433660000000     0.336120000000    12.000000000000
           H         -2.625430000000    -3.502260000000     0.288590000000     1.007825032070
           H         -3.118130000000    -2.074700000000    -0.656080000000     1.007825032070
           H         -3.633340000000    -2.235010000000     1.053910000000     1.007825032070
           C         -1.213270000000     0.969900000000    -0.076770000000    12.000000000000
           O         -1.577200000000     0.494420000000    -1.123270000000    15.994914619560
           O         -1.891430000000     1.945480000000     0.570340000000    15.994914619560
           C         -3.093330000000     2.407730000000    -0.073010000000    12.000000000000
           H         -2.860460000000     2.855170000000    -1.040670000000     1.007825032070
           H         -3.516050000000     3.150130000000     0.600290000000     1.007825032070
           H         -3.788990000000     1.580310000000    -0.219580000000     1.007825032070
           C          2.383100000000    -2.016040000000    -0.823610000000    12.000000000000
           H          3.384000000000    -1.805800000000    -1.208180000000     1.007825032070
           H          2.446040000000    -2.873180000000    -0.147690000000     1.007825032070
           H          1.725040000000    -2.282370000000    -1.646370000000     1.007825032070
           C          1.056720000000     2.636560000000    -0.725190000000    12.000000000000
           H          1.980840000000     2.983650000000    -1.191680000000     1.007825032070
           H          0.297440000000     2.538310000000    -1.503230000000     1.007825032070
           H          0.726990000000     3.387700000000    -0.003170000000     1.007825032070
           C          0.061180000000     0.638280000000     0.666070000000    12.000000000000
           C          0.482640000000    -0.870560000000     0.635560000000    12.000000000000
           C          1.301520000000     1.311110000000    -0.038030000000    12.000000000000
           C          2.470240000000     1.286340000000     0.979180000000    12.000000000000
           C          2.872180000000    -0.209960000000     0.950990000000    12.000000000000
           C          1.870580000000    -0.800150000000    -0.082860000000    12.000000000000
           O          1.689650000000     0.310210000000    -0.985110000000    15.994914619560
           H         -0.047260000000     1.005530000000     1.684890000000     1.007825032070
           H          0.612640000000    -1.215370000000     1.664680000000     1.007825032070
           H          3.280250000000     1.924300000000     0.619970000000     1.007825032070
           H          2.173020000000     1.645460000000     1.966370000000     1.007825032070
           H          3.890690000000    -0.338730000000     0.581060000000     1.007825032070
           H          2.806520000000    -0.700920000000     1.924280000000     1.007825032070

  Running in c1 symmetry.

  Rotational constants: A =      0.02018  B =      0.01667  C =      0.01072 [cm^-1]
  Rotational constants: A =    604.96769  B =    499.62007  C =    321.44595 [MHz]
  Nuclear repulsion = 1397.765449108549774

  Charge       = 0
  Multiplicity = 1
  Electrons    = 130
  Nalpha       = 65
  Nbeta        = 65

  ==> Algorithm <==

  SCF Algorithm Type is DF.
  DIIS enabled.
  MOM disabled.
  Fractional occupation disabled.
  Guess Type is SAD.
  Energy threshold   = 1.00e-08
  Density threshold  = 1.00e-08
  Integral threshold = 0.00e+00

  ==> Primary Basis <==

  Basis Set: JUN-CC-PVDZ
    Blend: JUN-CC-PVDZ
    Number of shells: 190
    Number of basis function: 396
    Number of Cartesian functions: 413
    Spherical Harmonics?: true
    Max angular momentum: 2

   => Loading Basis Set <=

    Name: (JUN-CC-PVDZ AUX)
    Role: JKFIT
    Keyword: DF_BASIS_SCF
    atoms 1, 4, 8, 11, 15, 19, 23-28      entry C          line   145 file /home/junteng/Softwares/psi4conda/share/psi4/basis/jun-cc-pvdz-jkfit.gbs 
    atoms 2-3, 9-10, 29                   entry O          line   257 file /home/junteng/Softwares/psi4conda/share/psi4/basis/jun-cc-pvdz-jkfit.gbs 
    atoms 5-7, 12-14, 16-18, 20-22, 30-35 entry H          line    69 file /home/junteng/Softwares/psi4conda/share/psi4/basis/jun-cc-pvdz-jkfit.gbs 

  ==> Pre-Iterations <==

   -------------------------------------------------------
    Irrep   Nso     Nmo     Nalpha   Nbeta   Ndocc  Nsocc
   -------------------------------------------------------
     A        396     396       0       0       0       0
   -------------------------------------------------------
    Total     396     396      65      65      65       0
   -------------------------------------------------------

  ==> Integral Setup <==

  ==> DFJK: Density-Fitted J/K Matrices <==

    J tasked:                  Yes
    K tasked:                  Yes
    wK tasked:                  No
    OpenMP threads:              1
    Integrals threads:           1
    Memory (MB):            536441
    Algorithm:                Core
    Integral Cache:           NONE
    Schwarz Cutoff:          1E-12
    Fitting Condition:       1E-12

   => Auxiliary Basis Set <=

  Basis Set: (JUN-CC-PVDZ AUX)
    Blend: JUN-CC-PVDZ-JKFIT
    Number of shells: 621
    Number of basis function: 1757
    Number of Cartesian functions: 1997
    Spherical Harmonics?: true
    Max angular momentum: 3

  Minimum eigenvalue in the overlap matrix is 6.1448840301E-06.
  Using Symmetric Orthogonalization.

  SCF Guess: Superposition of Atomic Densities via on-the-fly atomic UHF.

  ==> Iterations <==

                           Total Energy        Delta E     RMS |[F,P]|

   @DF-RHF iter   0:  -846.60912671204574   -8.46609e+02   1.94002e-02 
   @DF-RHF iter   1:  -838.81474690916502    7.79438e+00   2.04726e-03 
   @DF-RHF iter   2:  -839.22238208665397   -4.07635e-01   9.87299e-04 DIIS
   @DF-RHF iter   3:  -839.29274096662061   -7.03589e-02   3.73042e-04 DIIS
   @DF-RHF iter   4:  -839.30851563118654   -1.57747e-02   9.37751e-05 DIIS
   @DF-RHF iter   5:  -839.30972018129535   -1.20455e-03   4.01882e-05 DIIS
   @DF-RHF iter   6:  -839.30998116953765   -2.60988e-04   1.70337e-05 DIIS
   @DF-RHF iter   7:  -839.31003760040267   -5.64309e-05   6.85536e-06 DIIS
   @DF-RHF iter   8:  -839.31005022867703   -1.26283e-05   2.76303e-06 DIIS
   @DF-RHF iter   9:  -839.31005288973938   -2.66106e-06   1.00307e-06 DIIS
   @DF-RHF iter  10:  -839.31005321934617   -3.29607e-07   3.70029e-07 DIIS
   @DF-RHF iter  11:  -839.31005326165052   -4.23044e-08   1.29347e-07 DIIS
   @DF-RHF iter  12:  -839.31005326523382   -3.58330e-09   4.99714e-08 DIIS
   @DF-RHF iter  13:  -839.31005326573779   -5.03974e-10   1.97442e-08 DIIS
   @DF-RHF iter  14:  -839.31005326581146   -7.36691e-11   8.29506e-09 DIIS

  ==> Post-Iterations <==

    Orbital Energies (a.u.)
    -----------------------

    Doubly Occupied:                                                      

       1A    -20.613798     2A    -20.603356     3A    -20.560868  
       4A    -20.555322     5A    -20.549604     6A    -11.391235  
       7A    -11.386736     8A    -11.303775     9A    -11.298060  
      10A    -11.296553    11A    -11.288584    12A    -11.264755  
      13A    -11.264127    14A    -11.237897    15A    -11.235507  
      16A    -11.230616    17A    -11.214345    18A     -1.469073  
      19A     -1.458765    20A     -1.399990    21A     -1.367351  
      22A     -1.360507    23A     -1.113839    24A     -1.075110  
      25A     -1.050585    26A     -0.995649    27A     -0.974914  
      28A     -0.963818    29A     -0.908399    30A     -0.872307  
      31A     -0.813978    32A     -0.784903    33A     -0.762881  
      34A     -0.755791    35A     -0.716633    36A     -0.691249  
      37A     -0.688058    38A     -0.678340    39A     -0.667826  
      40A     -0.665067    41A     -0.654214    42A     -0.643538  
      43A     -0.624994    44A     -0.597590    45A     -0.588246  
      46A     -0.580250    47A     -0.575989    48A     -0.562933  
      49A     -0.555000    50A     -0.543927    51A     -0.539717  
      52A     -0.533713    53A     -0.525600    54A     -0.507866  
      55A     -0.502042    56A     -0.501521    57A     -0.494516  
      58A     -0.483776    59A     -0.473586    60A     -0.465211  
      61A     -0.464428    62A     -0.457172    63A     -0.445617  
      64A     -0.423354    65A     -0.420096  

    Virtual:                                                              

      66A      0.048623    67A      0.054572    68A      0.056485  
      69A      0.066293    70A      0.070046    71A      0.076926  
      72A      0.083994    73A      0.091949    74A      0.095395  
      75A      0.099574    76A      0.109547    77A      0.113357  
      78A      0.115290    79A      0.121314    80A      0.127158  
      81A      0.130269    82A      0.133412    83A      0.142994  
      84A      0.143351    85A      0.155359    86A      0.161783  
      87A      0.165557    88A      0.168850    89A      0.173472  
      90A      0.177940    91A      0.184505    92A      0.188461  
      93A      0.192467    94A      0.197752    95A      0.199954  
      96A      0.206451    97A      0.209459    98A      0.217405  
      99A      0.224689   100A      0.228235   101A      0.232853  
     102A      0.236854   103A      0.244067   104A      0.246886  
     105A      0.255254   106A      0.257663   107A      0.259583  
     108A      0.262029   109A      0.267502   110A      0.271772  
     111A      0.280875   112A      0.288980   113A      0.291267  
     114A      0.293780   115A      0.303359   116A      0.309591  
     117A      0.316262   118A      0.320517   119A      0.324528  
     120A      0.330415   121A      0.339084   122A      0.341928  
     123A      0.347769   124A      0.349674   125A      0.358067  
     126A      0.360664   127A      0.371420   128A      0.374799  
     129A      0.377978   130A      0.386997   131A      0.390247  
     132A      0.394525   133A      0.401004   134A      0.401276  
     135A      0.403178   136A      0.407145   137A      0.415783  
     138A      0.419062   139A      0.423464   140A      0.430086  
     141A      0.433200   142A      0.437479   143A      0.438540  
     144A      0.448103   145A      0.454404   146A      0.457059  
     147A      0.466581   148A      0.469271   149A      0.484125  
     150A      0.492472   151A      0.497617   152A      0.504996  
     153A      0.510931   154A      0.519515   155A      0.521497  
     156A      0.537446   157A      0.540473   158A      0.543905  
     159A      0.545368   160A      0.559537   161A      0.567448  
     162A      0.569080   163A      0.596026   164A      0.603118  
     165A      0.606903   166A      0.608631   167A      0.633281  
     168A      0.642559   169A      0.662953   170A      0.719936  
     171A      0.726481   172A      0.750998   173A      0.769684  
     174A      0.777258   175A      0.782697   176A      0.807245  
     177A      0.809276   178A      0.815259   179A      0.830246  
     180A      0.840322   181A      0.847565   182A      0.866094  
     183A      0.873867   184A      0.884746   185A      0.896996  
     186A      0.905034   187A      0.910024   188A      0.917619  
     189A      0.923861   190A      0.925335   191A      0.931784  
     192A      0.934283   193A      0.937656   194A      0.944420  
     195A      0.948767   196A      0.955321   197A      0.962471  
     198A      0.966552   199A      0.975366   200A      0.978704  
     201A      0.983714   202A      0.985735   203A      0.993536  
     204A      0.998009   205A      1.004371   206A      1.010637  
     207A      1.020746   208A      1.031485   209A      1.043768  
     210A      1.049864   211A      1.065586   212A      1.069266  
     213A      1.080067   214A      1.093757   215A      1.099245  
     216A      1.106191   217A      1.115160   218A      1.120170  
     219A      1.129987   220A      1.132435   221A      1.141398  
     222A      1.166456   223A      1.184366   224A      1.187394  
     225A      1.241208   226A      1.247052   227A      1.259160  
     228A      1.278780   229A      1.285828   230A      1.313539  
     231A      1.328404   232A      1.353801   233A      1.364945  
     234A      1.381780   235A      1.415781   236A      1.440634  
     237A      1.445439   238A      1.457098   239A      1.478368  
     240A      1.498306   241A      1.505887   242A      1.519192  
     243A      1.526397   244A      1.535286   245A      1.550561  
     246A      1.557981   247A      1.566952   248A      1.588838  
     249A      1.599759   250A      1.612841   251A      1.616313  
     252A      1.627151   253A      1.637303   254A      1.639111  
     255A      1.651350   256A      1.660847   257A      1.678339  
     258A      1.680459   259A      1.682007   260A      1.692300  
     261A      1.700963   262A      1.702131   263A      1.725899  
     264A      1.734416   265A      1.751823   266A      1.767623  
     267A      1.775348   268A      1.788503   269A      1.803837  
     270A      1.814436   271A      1.826586   272A      1.842865  
     273A      1.846858   274A      1.871969   275A      1.880514  
     276A      1.900077   277A      1.903850   278A      1.907425  
     279A      1.911461   280A      1.921761   281A      1.937552  
     282A      1.952487   283A      1.959266   284A      1.964707  
     285A      1.967449   286A      1.973727   287A      1.981290  
     288A      1.988176   289A      1.995589   290A      2.005822  
     291A      2.019265   292A      2.022254   293A      2.033435  
     294A      2.037941   295A      2.046539   296A      2.048274  
     297A      2.057445   298A      2.062205   299A      2.075958  
     300A      2.079054   301A      2.093439   302A      2.097108  
     303A      2.112195   304A      2.125130   305A      2.143788  
     306A      2.145151   307A      2.157978   308A      2.169767  
     309A      2.176172   310A      2.184946   311A      2.194306  
     312A      2.213615   313A      2.227612   314A      2.252906  
     315A      2.264204   316A      2.277232   317A      2.281580  
     318A      2.283307   319A      2.302019   320A      2.318035  
     321A      2.326489   322A      2.354148   323A      2.362478  
     324A      2.386639   325A      2.392205   326A      2.402368  
     327A      2.404858   328A      2.410686   329A      2.426165  
     330A      2.435632   331A      2.440064   332A      2.445235  
     333A      2.459769   334A      2.470310   335A      2.499219  
     336A      2.515660   337A      2.536829   338A      2.556929  
     339A      2.588171   340A      2.607835   341A      2.621715  
     342A      2.639444   343A      2.680750   344A      2.692429  
     345A      2.733709   346A      2.752930   347A      2.761911  
     348A      2.773252   349A      2.789210   350A      2.794106  
     351A      2.800453   352A      2.805829   353A      2.819286  
     354A      2.854314   355A      2.864528   356A      2.873621  
     357A      2.874140   358A      2.879451   359A      2.891413  
     360A      2.896735   361A      2.904146   362A      2.915981  
     363A      2.935649   364A      2.941340   365A      2.963548  
     366A      2.972752   367A      2.989084   368A      3.013105  
     369A      3.028967   370A      3.062335   371A      3.071595  
     372A      3.113970   373A      3.130531   374A      3.176683  
     375A      3.261071   376A      3.266162   377A      3.304330  
     378A      3.312601   379A      3.371851   380A      3.390905  
     381A      3.416047   382A      3.432898   383A      3.516812  
     384A      3.533053   385A      3.570494   386A      3.599876  
     387A      3.680693   388A      3.693509   389A      3.747171  
     390A      3.784316   391A      3.792683   392A      3.908949  
     393A      3.962406   394A      3.983566   395A      4.101586  
     396A      4.113334  

    Final Occupation by Irrep:
              A 
    DOCC [    65 ]

  Energy converged.

  @DF-RHF Final Energy:  -839.31005326581146

   => Energetics <=

    Nuclear Repulsion Energy =           1397.7654491085497739
    One-Electron Energy =               -3926.7608657232453879
    Two-Electron Energy =                1689.6853633488840387
    DFT Exchange-Correlation Energy =       0.0000000000000000
    Empirical Dispersion Energy =           0.0000000000000000
    PCM Polarization Energy =               0.0000000000000000
    EFP Energy =                            0.0000000000000000
    Total Energy =                       -839.3100532658113480



Properties will be evaluated at   0.000000,   0.000000,   0.000000 Bohr

Properties computed using the SCF density matrix

  Nuclear Dipole Moment: (a.u.)
     X:     1.4737      Y:    -2.3855      Z:     1.5265

  Electronic Dipole Moment: (a.u.)
     X:    -1.6979      Y:     3.2393      Z:     0.0268

  Dipole Moment: (a.u.)
     X:    -0.2242      Y:     0.8538      Z:     1.5533     Total:     1.7866

  Dipole Moment: (Debye)
     X:    -0.5698      Y:     2.1701      Z:     3.9481     Total:     4.5411


*** tstop() called on ThinkPad-P50 at Tue Dec 12 11:13:59 2017
Module time:
	user time   =     266.19 seconds =       4.44 minutes
	system time =       2.34 seconds =       0.04 minutes
	total time  =        271 seconds =       4.52 minutes
Total time:
	user time   =     266.19 seconds =       4.44 minutes
	system time =       2.34 seconds =       0.04 minutes
	total time  =        271 seconds =       4.52 minutes
   => Loading Basis Set <=

    Name: (JUN-CC-PVDZ AUX)
    Role: JKFIT
    Keyword: DF_BASIS_SCF
    atoms 1, 4, 8, 11, 15, 19, 23-28      entry C          line   145 file /home/junteng/Softwares/psi4conda/share/psi4/basis/jun-cc-pvdz-jkfit.gbs 
    atoms 2-3, 9-10, 29                   entry O          line   257 file /home/junteng/Softwares/psi4conda/share/psi4/basis/jun-cc-pvdz-jkfit.gbs 
    atoms 5-7, 12-14, 16-18, 20-22, 30-35 entry H          line    69 file /home/junteng/Softwares/psi4conda/share/psi4/basis/jun-cc-pvdz-jkfit.gbs 

   => Loading Basis Set <=

    Name: (JUN-CC-PVDZ AUX)
    Role: RIFIT
    Keyword: DF_BASIS_SAPT
    atoms 1, 4, 8, 11, 15, 19, 23-28      entry C          line    99 file /home/junteng/Softwares/psi4conda/share/psi4/basis/jun-cc-pvdz-ri.gbs 
    atoms 2-3, 9-10, 29                   entry O          line   187 file /home/junteng/Softwares/psi4conda/share/psi4/basis/jun-cc-pvdz-ri.gbs 
    atoms 5-7, 12-14, 16-18, 20-22, 30-35 entry H          line    29 file /home/junteng/Softwares/psi4conda/share/psi4/basis/jun-cc-pvdz-ri.gbs 

   => Loading Basis Set <=

    Name: CC-PVTZ-MINAO
    Role: ORBITAL
    Keyword: BASIS
    atoms 1, 4, 8, 11, 15, 19, 23-28      entry C          line   130 file /home/junteng/Softwares/psi4conda/share/psi4/basis/cc-pvtz-minao.gbs 
    atoms 2-3, 9-10, 29                   entry O          line   190 file /home/junteng/Softwares/psi4conda/share/psi4/basis/cc-pvtz-minao.gbs 
    atoms 5-7, 12-14, 16-18, 20-22, 30-35 entry H          line    19 file /home/junteng/Softwares/psi4conda/share/psi4/basis/cc-pvtz-minao.gbs 


*** tstart() called on ThinkPad-P50
*** at Tue Dec 12 11:14:01 2017

	 --------------------------------------------
	                    FISAPT0                  
	                  Rob Parrish                
	 --------------------------------------------

    Do F-SAPT =         Yes
    Do Plot   =          No
    Memory    =      78.580 [GD]

  ==> Localization (IBO) <==

  ==> IBO Localizer 2 <==

    MinAO Basis = CC-PVTZ-MINAO
    Use Ghosts  =       FALSE
    Use Stars   =       FALSE
    Condition   =   1.000E-07
    Power       =           4
    Convergence =   1.000E-12
    Maxiter     =        1000

    @IBO Iter:                   Metric       Gradient
    @IBO    1:   1.9917625172753886E+00   2.655143E+00
    @IBO    2:   2.2585050666952786E+00   2.358735E+00
    @IBO    3:   2.3481033057439098E+00   1.028466E+00
    @IBO    4:   2.3585546209007533E+00   1.471934E-01
    @IBO    5:   2.3589093395267455E+00   2.381195E-03
    @IBO    6:   2.3589094237722086E+00   4.082977E-05
    @IBO    7:   2.3589094237942252E+00   1.387111E-06
    @IBO    8:   2.3589094237942514E+00   6.286658E-08
    @IBO    9:   2.3589094237942514E+00   3.089279E-09
    @IBO   10:   2.3589094237942518E+00   1.482738E-10
    @IBO   11:   2.3589094237942518E+00   7.091026E-12
    @IBO   12:   2.3589094237942518E+00   3.364453E-13

    IBO Localizer 2 converged.

  ==> Partitioning <==

   => Atomic Partitioning <= 

    Monomer A:   7 atoms
    Monomer B:   7 atoms
    Monomer C:  21 atoms

   => Link Bond Identification <=

    Link Bond Selection = AUTOMATIC

    Charge Completeness = 0.800

    Total Link Bonds = 2

    --------------------------
    N     Orb Type Aind1 Aind2
    --------------------------
    1      23   BC     8    23
    2      27   AC     1    24
    --------------------------

   => Link Bond Assignment <=

    Link Bond Assignment      = C

   => Partition Summary <=

    Monomer A:  0 charge,  30 protons,  30 electrons,  15 docc
    Monomer B:  0 charge,  30 protons,  30 electrons,  15 docc
    Monomer C:  0 charge,  70 protons,  70 electrons,  35 docc

  ==> Overlap Integrals <==

  ==> Kinetic Integrals <==

  ==> Nuclear Integrals <==

    Nuclear Repulsion Tot:   1.3977654491085500E+03 [Eh]

  ==> Coulomb Integrals <==

  ==> DFJK: Density-Fitted J/K Matrices <==

    J tasked:                  Yes
    K tasked:                  Yes
    wK tasked:                  No
    OpenMP threads:              1
    Integrals threads:           1
    Memory (MB):            643730
    Algorithm:                Core
    Integral Cache:           NONE
    Schwarz Cutoff:          1E-12
    Fitting Condition:       1E-12

   => Auxiliary Basis Set <=

  Basis Set: (JUN-CC-PVDZ AUX)
    Blend: JUN-CC-PVDZ-JKFIT
    Number of shells: 621
    Number of basis function: 1757
    Number of Cartesian functions: 1997
    Spherical Harmonics?: true
    Max angular momentum: 3

  ==> Relaxed SCF Equations <==

  ==> SCF A: <==

    Maxiter =          50
    E Tol   =   1.000E-06
    D Tol   =   1.000E-08

    Max DIIS Vectors = 5

    Iter   N:                        E          dE         |D|
    Iter   1:  -2.2415964116925267E+02  -2.242E+02   6.786E-04 
    Iter   2:  -2.2417128174160561E+02  -1.164E-02   5.057E-05 DIIS
    Iter   3:  -2.2417148465896898E+02  -2.029E-04   2.430E-05 DIIS
    Iter   4:  -2.2417151633824619E+02  -3.168E-05   7.629E-06 DIIS
    Iter   5:  -2.2417152077664298E+02  -4.438E-06   1.263E-06 DIIS
    Iter   6:  -2.2417152097817603E+02  -2.015E-07   4.859E-07 DIIS
    Iter   7:  -2.2417152100581055E+02  -2.763E-08   1.616E-07 DIIS
    Iter   8:  -2.2417152100944605E+02  -3.636E-09   7.430E-08 DIIS
    Iter   9:  -2.2417152101018189E+02  -7.358E-10   2.944E-08 DIIS
    Iter  10:  -2.2417152101033957E+02  -1.577E-10   1.330E-08 DIIS
    Iter  11:  -2.2417152101036208E+02  -2.251E-11   6.048E-09 DIIS

    FISAPTSCF Converged.

    Final SCF Energy:  -2.2417152101036208E+02 [Eh]

   => Occupied Orbital Energies <=

       1  -20.601271     2  -20.551768     3  -11.387565  
       4  -11.292632     5   -1.435364     6   -1.359114  
       7   -0.957674     8   -0.762825     9   -0.670760  
      10   -0.659977    11   -0.618595    12   -0.542886  
      13   -0.534473    14   -0.475593    15   -0.460063  

   => Virtual Orbital Energies <=

      16    0.029500    17    0.054927    18    0.057685  
      19    0.065471    20    0.067522    21    0.074866  
      22    0.079993    23    0.083568    24    0.090520  
      25    0.094732    26    0.103365    27    0.109287  
      28    0.110956    29    0.119448    30    0.124951  
      31    0.127795    32    0.129617    33    0.139001  
      34    0.139781    35    0.144226    36    0.155249  
      37    0.160209    38    0.167526    39    0.170189  
      40    0.174973    41    0.179774    42    0.185200  
      43    0.188286    44    0.191305    45    0.197745  
      46    0.200865    47    0.206600    48    0.214149  
      49    0.219859    50    0.231300    51    0.233361  
      52    0.236770    53    0.243069    54    0.245934  
      55    0.257477    56    0.258821    57    0.260432  
      58    0.263449    59    0.266492    60    0.276403  
      61    0.280797    62    0.284289    63    0.285610  
      64    0.294659    65    0.302132    66    0.306674  
      67    0.313219    68    0.325203    69    0.330518  
      70    0.331326    71    0.338509    72    0.342424  
      73    0.343341    74    0.349977    75    0.362571  
      76    0.362975    77    0.367279    78    0.370600  
      79    0.376019    80    0.378172    81    0.387762  
      82    0.393112    83    0.396982    84    0.402426  
      85    0.408832    86    0.411504    87    0.419895  
      88    0.420249    89    0.425070    90    0.432188  
      91    0.434485    92    0.446271    93    0.449964  
      94    0.457407    95    0.461176    96    0.465639  
      97    0.469695    98    0.479951    99    0.492830  
     100    0.500017   101    0.509932   102    0.512644  
     103    0.519988   104    0.527665   105    0.535917  
     106    0.541520   107    0.546044   108    0.561866  
     109    0.565187   110    0.577260   111    0.584675  
     112    0.598166   113    0.608963   114    0.613034  
     115    0.624554   116    0.630544   117    0.634227  
     118    0.644018   119    0.651851   120    0.658082  
     121    0.705220   122    0.709218   123    0.734861  
     124    0.755999   125    0.777571   126    0.794635  
     127    0.805374   128    0.825359   129    0.834582  
     130    0.844470   131    0.856018   132    0.865527  
     133    0.871412   134    0.889176   135    0.905047  
     136    0.913163   137    0.920068   138    0.922962  
     139    0.930399   140    0.936369   141    0.945606  
     142    0.950087   143    0.953319   144    0.957477  
     145    0.959192   146    0.967453   147    0.977211  
     148    0.981511   149    0.986751   150    0.994457  
     151    1.004966   152    1.011148   153    1.024544  
     154    1.027173   155    1.035950   156    1.038872  
     157    1.059902   158    1.062666   159    1.065414  
     160    1.083836   161    1.092970   162    1.099045  
     163    1.101841   164    1.110622   165    1.126189  
     166    1.131225   167    1.134687   168    1.144213  
     169    1.165308   170    1.175023   171    1.179136  
     172    1.189667   173    1.194933   174    1.232769  
     175    1.242407   176    1.274816   177    1.303564  
     178    1.336067   179    1.341026   180    1.353285  
     181    1.373806   182    1.399131   183    1.419966  
     184    1.449028   185    1.469614   186    1.488263  
     187    1.500702   188    1.505791   189    1.525165  
     190    1.545485   191    1.553160   192    1.564730  
     193    1.571738   194    1.576566   195    1.586003  
     196    1.599477   197    1.625393   198    1.642615  
     199    1.651477   200    1.657311   201    1.670603  
     202    1.677014   203    1.688114   204    1.696792  
     205    1.713478   206    1.723299   207    1.738133  
     208    1.746374   209    1.766296   210    1.770078  
     211    1.780485   212    1.790740   213    1.811161  
     214    1.812175   215    1.821706   216    1.836883  
     217    1.843273   218    1.868449   219    1.874841  
     220    1.892246   221    1.908337   222    1.924444  
     223    1.931733   224    1.941541   225    1.949277  
     226    1.955748   227    1.976188   228    1.977210  
     229    1.979632   230    1.994954   231    2.000346  
     232    2.009487   233    2.013864   234    2.024414  
     235    2.028933   236    2.033207   237    2.043752  
     238    2.062308   239    2.066373   240    2.073491  
     241    2.088541   242    2.094444   243    2.100476  
     244    2.106292   245    2.115692   246    2.130596  
     247    2.140628   248    2.144643   249    2.156972  
     250    2.166855   251    2.173939   252    2.190131  
     253    2.198097   254    2.202618   255    2.205289  
     256    2.231593   257    2.240217   258    2.271026  
     259    2.280522   260    2.291810   261    2.302760  
     262    2.310399   263    2.326811   264    2.334683  
     265    2.339308   266    2.346752   267    2.365628  
     268    2.374291   269    2.387204   270    2.396898  
     271    2.411044   272    2.421183   273    2.430636  
     274    2.443557   275    2.448436   276    2.459290  
     277    2.477955   278    2.496404   279    2.508229  
     280    2.533261   281    2.546200   282    2.559969  
     283    2.594972   284    2.615480   285    2.636255  
     286    2.642302   287    2.644258   288    2.660112  
     289    2.680615   290    2.690566   291    2.707376  
     292    2.731875   293    2.751572   294    2.775443  
     295    2.790220   296    2.796571   297    2.803770  
     298    2.825486   299    2.836173   300    2.867172  
     301    2.868954   302    2.873230   303    2.875784  
     304    2.889455   305    2.891043   306    2.898267  
     307    2.904699   308    2.925533   309    2.926528  
     310    2.932258   311    2.946969   312    2.970331  
     313    2.978081   314    3.000165   315    3.024410  
     316    3.041258   317    3.046980   318    3.077120  
     319    3.086664   320    3.124356   321    3.202340  
     322    3.268529   323    3.309433   324    3.376682  
     325    3.394395   326    3.433281   327    3.454101  
     328    3.550434   329    3.579813   330    3.640169  
     331    3.668119   332    3.700227   333    3.757721  
     334    3.792072   335    3.823050   336    3.948214  
     337    3.961078   338    3.967050   339    4.096769  
     340    4.180014   341    4.207036   342    4.441131  
     343    4.512240   344    4.547342   345    4.764053  
     346    4.942389   347    5.041805   348    5.065144  
     349    5.222238   350    5.321003   351    5.541376  
     352    5.625149   353    5.743537   354    5.872247  
     355    6.105949   356    6.329464   357    6.715175  
     358   13.376837   359   18.426019   360   33.426777  
     361   33.476088  

  ==> SCF B: <==

    Maxiter =          50
    E Tol   =   1.000E-06
    D Tol   =   1.000E-08

    Max DIIS Vectors = 5

    Iter   N:                        E          dE         |D|
    Iter   1:  -2.2399618878694849E+02  -2.240E+02   7.630E-04 
    Iter   2:  -2.2400967543007954E+02  -1.349E-02   4.404E-05 DIIS
    Iter   3:  -2.2400990660589557E+02  -2.312E-04   1.422E-05 DIIS
    Iter   4:  -2.2400992338244197E+02  -1.678E-05   6.478E-06 DIIS
    Iter   5:  -2.2400992701423118E+02  -3.632E-06   1.499E-06 DIIS
    Iter   6:  -2.2400992727332272E+02  -2.591E-07   5.727E-07 DIIS
    Iter   7:  -2.2400992731494514E+02  -4.162E-08   2.407E-07 DIIS
    Iter   8:  -2.2400992732314191E+02  -8.197E-09   8.286E-08 DIIS
    Iter   9:  -2.2400992732436765E+02  -1.226E-09   3.752E-08 DIIS
    Iter  10:  -2.2400992732462265E+02  -2.550E-10   1.223E-08 DIIS
    Iter  11:  -2.2400992732464141E+02  -1.876E-11   7.996E-09 DIIS

    FISAPTSCF Converged.

    Final SCF Energy:  -2.2400992732464141E+02 [Eh]

   => Occupied Orbital Energies <=

       1  -20.604612     2  -20.541673     3  -11.378158  
       4  -11.291548     5   -1.433124     6   -1.350506  
       7   -0.958176     8   -0.762004     9   -0.663405  
      10   -0.659147    11   -0.618163    12   -0.536726  
      13   -0.532710    14   -0.465790    15   -0.456470  

   => Virtual Orbital Energies <=

      16    0.034576    17    0.053743    18    0.056962  
      19    0.064313    20    0.068073    21    0.078735  
      22    0.081989    23    0.083536    24    0.095187  
      25    0.097463    26    0.101206    27    0.109226  
      28    0.113508    29    0.117916    30    0.124491  
      31    0.127512    32    0.134224    33    0.137366  
      34    0.141176    35    0.144282    36    0.153517  
      37    0.165487    38    0.166229    39    0.168616  
      40    0.177266    41    0.179669    42    0.184840  
      43    0.190370    44    0.194796    45    0.199290  
      46    0.205917    47    0.208959    48    0.221040  
      49    0.221543    50    0.227935    51    0.232551  
      52    0.236794    53    0.242372    54    0.249946  
      55    0.251535    56    0.260032    57    0.262167  
      58    0.269471    59    0.270442    60    0.273507  
      61    0.279757    62    0.287180    63    0.293006  
      64    0.295131    65    0.300087    66    0.308010  
      67    0.316025    68    0.320314    69    0.326415  
      70    0.330136    71    0.334104    72    0.340743  
      73    0.345166    74    0.352648    75    0.356993  
      76    0.361895    77    0.362885    78    0.370669  
      79    0.377959    80    0.384005    81    0.389632  
      82    0.399263    83    0.403568    84    0.408811  
      85    0.412433    86    0.418130    87    0.422960  
      88    0.427733    89    0.432020    90    0.434974  
      91    0.440562    92    0.447720    93    0.452682  
      94    0.458917    95    0.459341    96    0.463924  
      97    0.467524    98    0.479357    99    0.488463  
     100    0.497974   101    0.514359   102    0.519244  
     103    0.524555   104    0.527807   105    0.535737  
     106    0.548341   107    0.556334   108    0.565957  
     109    0.568364   110    0.572079   111    0.592634  
     112    0.605997   113    0.608589   114    0.616517  
     115    0.628338   116    0.633255   117    0.642166  
     118    0.646267   119    0.670423   120    0.674015  
     121    0.702357   122    0.722256   123    0.742410  
     124    0.754093   125    0.772175   126    0.781876  
     127    0.792381   128    0.802810   129    0.826475  
     130    0.835660   131    0.848720   132    0.861851  
     133    0.868183   134    0.890254   135    0.909973  
     136    0.917998   137    0.921134   138    0.929902  
     139    0.940530   140    0.944515   141    0.947699  
     142    0.953608   143    0.954100   144    0.960682  
     145    0.963279   146    0.967169   147    0.975393  
     148    0.988432   149    0.989421   150    0.993991  
     151    1.005264   152    1.006376   153    1.019642  
     154    1.022976   155    1.031625   156    1.044520  
     157    1.049867   158    1.052934   159    1.071862  
     160    1.076770   161    1.088590   162    1.095382  
     163    1.110624   164    1.116190   165    1.122828  
     166    1.130687   167    1.137391   168    1.143018  
     169    1.149058   170    1.163656   171    1.173041  
     172    1.191993   173    1.213133   174    1.229563  
     175    1.250051   176    1.279173   177    1.311378  
     178    1.327450   179    1.341776   180    1.366258  
     181    1.383697   182    1.406924   183    1.418363  
     184    1.458147   185    1.474451   186    1.481131  
     187    1.487227   188    1.516509   189    1.528917  
     190    1.542087   191    1.562055   192    1.568300  
     193    1.583258   194    1.595963   195    1.604868  
     196    1.611047   197    1.629809   198    1.643985  
     199    1.663653   200    1.666610   201    1.676941  
     202    1.683360   203    1.690574   204    1.698520  
     205    1.708599   206    1.721412   207    1.726027  
     208    1.737728   209    1.755965   210    1.761941  
     211    1.780927   212    1.793456   213    1.821379  
     214    1.830908   215    1.849248   216    1.851580  
     217    1.863162   218    1.871179   219    1.885573  
     220    1.897655   221    1.906318   222    1.921237  
     223    1.933535   224    1.944021   225    1.949574  
     226    1.957207   227    1.968177   228    1.979462  
     229    1.983673   230    1.992196   231    2.002024  
     232    2.010739   233    2.013787   234    2.023425  
     235    2.038573   236    2.042771   237    2.044396  
     238    2.057847   239    2.066885   240    2.080294  
     241    2.083138   242    2.095203   243    2.109229  
     244    2.115575   245    2.120813   246    2.133172  
     247    2.143189   248    2.150425   249    2.157725  
     250    2.167815   251    2.183065   252    2.186115  
     253    2.189112   254    2.208488   255    2.218899  
     256    2.243193   257    2.255603   258    2.269399  
     259    2.271641   260    2.298228   261    2.301259  
     262    2.309096   263    2.330813   264    2.348459  
     265    2.350376   266    2.367787   267    2.373067  
     268    2.374951   269    2.385980   270    2.393990  
     271    2.396425   272    2.410069   273    2.425227  
     274    2.432548   275    2.435364   276    2.446766  
     277    2.470938   278    2.494157   279    2.510513  
     280    2.526300   281    2.541012   282    2.559933  
     283    2.574830   284    2.611185   285    2.626105  
     286    2.632206   287    2.649572   288    2.677634  
     289    2.690623   290    2.706006   291    2.716071  
     292    2.725115   293    2.751755   294    2.772321  
     295    2.785059   296    2.794942   297    2.804109  
     298    2.816153   299    2.830234   300    2.846555  
     301    2.869539   302    2.871135   303    2.874071  
     304    2.886577   305    2.892104   306    2.902731  
     307    2.906712   308    2.913646   309    2.922726  
     310    2.940510   311    2.954393   312    2.961165  
     313    2.971803   314    2.991602   315    3.032303  
     316    3.040035   317    3.065279   318    3.084965  
     319    3.110736   320    3.137442   321    3.207902  
     322    3.275387   323    3.319680   324    3.339331  
     325    3.416945   326    3.448518   327    3.462508  
     328    3.552160   329    3.579944   330    3.630979  
     331    3.661112   332    3.726481   333    3.764230  
     334    3.796155   335    3.812151   336    3.933152  
     337    3.959025   338    4.009609   339    4.110848  
     340    4.145024   341    4.212032   342    4.436429  
     343    4.521095   344    4.545442   345    4.763101  
     346    4.948225   347    5.050821   348    5.075108  
     349    5.211609   350    5.330392   351    5.535907  
     352    5.641221   353    5.753131   354    5.867788  
     355    6.089562   356    6.344850   357    6.723348  
     358   13.393031   359   18.435037   360   33.432597  
     361   33.480697  

  ==> Frozen Core <==


    ------------------
    Range      A     B
    ------------------
    nbf      396   396
    nmo      361   361
    nocc      15    15
    nvir     346   346
    nfocc      4     4
    naocc     11    11
    navir    346   346
    nfvir      0     0
    ------------------

  ==> Unification <==

  ==> dHF <==

    E ABC(HF) =  -8.3931005326581146E+02 [Eh]
    E AC(0)   =  -6.1125964041920065E+02 [Eh]
    E BC(0)   =  -6.1128721571460585E+02 [Eh]
    E A(0)    =  -2.1265769886263894E+02 [Eh]
    E B(0)    =  -2.1266093645161294E+02 [Eh]
    E AC(HF)  =  -6.1124776057809117E+02 [Eh]
    E BC(HF)  =  -6.1127347717691339E+02 [Eh]
    E AB(HF)  =  -4.2528219801388371E+02 [Eh]
    E A(HF)   =  -2.1263634369956628E+02 [Eh]
    E B(HF)   =  -2.1263861008034445E+02 [Eh]
    E C       =  -3.8321842872315221E+02 [Eh]
    E HF      =   1.8374144842823625E-02 [Eh]

  ==> Electrostatics <==

    Elst10,r            =     0.013205497677 [Eh]

  ==> Exchange <==

    Exch10(S^2)         =     0.007794904308 [Eh]
    Exch10              =     0.007820405424 [Eh]

  ==> Induction <==

    Ind20,u (A<-B)      =    -0.001908701467 [Eh]
    Ind20,u (B<-A)      =    -0.002392585104 [Eh]
    Ind20,u             =    -0.004301286572 [Eh]
    Exch-Ind20,u (A<-B) =     0.000715791756 [Eh]
    Exch-Ind20,u (B<-A) =     0.001662651652 [Eh]
    Exch-Ind20,u        =     0.002378443408 [Eh]

  ==> CPHF Iterations <==

    Maxiter     =          50
    Convergence =   1.000E-08

    -----------------------------------------
    Iter   Monomer A    Monomer B    Time [s]
    -----------------------------------------
    1      2.239E-01    2.174E-01          35
    2      8.480E-02    8.417E-02          63
    3      2.235E-02    1.860E-02          89
    4      7.772E-03    8.214E-03         111
    5      2.207E-03    3.058E-03         127
    6      7.667E-04    1.533E-03         149
    7      2.528E-04    4.408E-04         170
    8      7.786E-05    1.585E-04         208
    9      1.898E-05    3.340E-05         235
    10     5.094E-06    1.054E-05         258
    11     1.569E-06    2.924E-06         283
    12     3.863E-07    5.916E-07         309
    13     1.457E-07    1.231E-07         340
    14     4.739E-08    3.492E-08         370
    15     1.253E-08    7.379E-09*        397
    16     3.600E-09*   7.379E-09*        410
    -----------------------------------------

    Ind20,r (A<-B)      =    -0.002170493353 [Eh]
    Ind20,r (B<-A)      =    -0.002939079508 [Eh]
    Ind20,r             =    -0.005109572861 [Eh]
    Exch-Ind20,r (A<-B) =     0.000857898623 [Eh]
    Exch-Ind20,r (B<-A) =     0.002147454984 [Eh]
    Exch-Ind20,r        =     0.003005353607 [Eh]

  ==> F-SAPT Localization (IBO) <==

  Local Orbitals for Monomer A:

  ==> IBO Localizer 2 <==

    MinAO Basis = CC-PVTZ-MINAO
    Use Ghosts  =       FALSE
    Use Stars   =       FALSE
    Condition   =   1.000E-07
    Power       =           4
    Convergence =   1.000E-12
    Maxiter     =        1000

    @IBO Iter:                   Metric       Gradient
    @IBO    1:   1.4764921541716602E+00   1.482687E+00
    @IBO    2:   1.6818418353465665E+00   8.848011E-01
    @IBO    3:   1.7091408926466443E+00   2.753244E-01
    @IBO    4:   1.7109066438200558E+00   8.624156E-03
    @IBO    5:   1.7109147092103687E+00   3.611257E-04
    @IBO    6:   1.7109147109202572E+00   1.837880E-06
    @IBO    7:   1.7109147109203358E+00   4.633569E-08
    @IBO    8:   1.7109147109203362E+00   1.503551E-09
    @IBO    9:   1.7109147109203362E+00   5.600730E-11
    @IBO   10:   1.7109147109203360E+00   2.215409E-12
    @IBO   11:   1.7109147109203362E+00   8.961170E-14

    IBO Localizer 2 converged.

  Local Orbitals for Monomer B:

  ==> IBO Localizer 2 <==

    MinAO Basis = CC-PVTZ-MINAO
    Use Ghosts  =       FALSE
    Use Stars   =       FALSE
    Condition   =   1.000E-07
    Power       =           4
    Convergence =   1.000E-12
    Maxiter     =        1000

    @IBO Iter:                   Metric       Gradient
    @IBO    1:   1.4840518983259496E+00   1.577140E+00
    @IBO    2:   1.6753706377835018E+00   1.078307E+00
    @IBO    3:   1.7097227452038295E+00   3.184079E-01
    @IBO    4:   1.7109762402320272E+00   3.930613E-03
    @IBO    5:   1.7109767620410024E+00   1.423398E-04
    @IBO    6:   1.7109767623182952E+00   2.494957E-06
    @IBO    7:   1.7109767623184124E+00   7.046895E-08
    @IBO    8:   1.7109767623184127E+00   1.954778E-09
    @IBO    9:   1.7109767623184124E+00   6.898574E-11
    @IBO   10:   1.7109767623184127E+00   2.769677E-12
    @IBO   11:   1.7109767623184127E+00   1.150642E-13

    IBO Localizer 2 converged.

  ==> F-SAPT Electrostatics <==

  ==> DFERI: Density Fitted 3-Index Tensors <==

    Schwarz cutoff =   0.000E+00
    J cutoff       =   1.000E-12
    Mem (GB)       =         628

   => Auxiliary Basis <=

  Basis Set: (JUN-CC-PVDZ AUX)
    Blend: JUN-CC-PVDZ-JKFIT
    Number of shells: 621
    Number of basis function: 1757
    Number of Cartesian functions: 1997
    Spherical Harmonics?: true
    Max angular momentum: 3

    Elst10,r            =     0.013205498055 [Eh]

  ==> F-SAPT Exchange <==

  ==> DFERI: Density Fitted 3-Index Tensors <==

    Schwarz cutoff =   0.000E+00
    J cutoff       =   1.000E-12
    Mem (GB)       =         628

   => Auxiliary Basis <=

  Basis Set: (JUN-CC-PVDZ AUX)
    Blend: JUN-CC-PVDZ-JKFIT
    Number of shells: 621
    Number of basis function: 1757
    Number of Cartesian functions: 1997
    Spherical Harmonics?: true
    Max angular momentum: 3

    Exch10(S^2)         =     0.007794904308 [Eh]

    Scaling F-SAPT Exch10(S^2) by   1.003E+00 to match Exch10

  ==> F-SAPT Induction <==

  ==> DFERI: Density Fitted 3-Index Tensors <==

    Schwarz cutoff =   0.000E+00
    J cutoff       =   1.000E-12
    Mem (GB)       =         628

   => Auxiliary Basis <=

  Basis Set: (JUN-CC-PVDZ AUX)
    Blend: JUN-CC-PVDZ-JKFIT
    Number of shells: 621
    Number of basis function: 1757
    Number of Cartesian functions: 1997
    Spherical Harmonics?: true
    Max angular momentum: 3

    Ind20,u (A<-B)      =    -0.001908701467 [Eh]
    Ind20,u (B<-A)      =    -0.002392585104 [Eh]
    Ind20,u             =    -0.004301286571 [Eh]
    Exch-Ind20,u (A<-B) =     0.000715791756 [Eh]
    Exch-Ind20,u (B<-A) =     0.001662651652 [Eh]
    Exch-Ind20,u        =     0.002378443407 [Eh]

    Scaling for delta HF        =   1.260E+00
    Scaling for response (A<-B) =   1.100E+00
    Scaling for response (B<-A) =   1.085E+00
    Scaling for total (A<-B)    =   1.387E+00
    Scaling for total (B<-A)    =   1.367E+00

  ==> F-SAPT Dispersion <==

  ==> DFERI: Density Fitted 3-Index Tensors <==

    Schwarz cutoff =   0.000E+00
    J cutoff       =   1.000E-12
    Mem (GB)       =         628

   => Auxiliary Basis <=

  Basis Set: (JUN-CC-PVDZ AUX)
    Blend: JUN-CC-PVDZ-RI
    Number of shells: 465
    Number of basis function: 1357
    Number of Cartesian functions: 1562
    Spherical Harmonics?: true
    Max angular momentum: 3

    Disp20              =    -0.004655818976 [Eh]
    Exch-Disp20         =     0.000633141622 [Eh]

  ==> F-SAPT Output <==

    F-SAPT Data Filepath = fsapt/

  ==> Results <==


    SAPT Results  
  --------------------------------------------------------------------------------------------------------
    Electrostatics                 13.20549768 [mEh]       8.28657524 [kcal/mol]      34.67103415 [kJ/mol]
      Elst10,r                     13.20549768 [mEh]       8.28657524 [kcal/mol]      34.67103415 [kJ/mol]

    Exchange                        7.82040542 [mEh]       4.90737870 [kcal/mol]      20.53247444 [kJ/mol]
      Exch10                        7.82040542 [mEh]       4.90737870 [kcal/mol]      20.53247444 [kJ/mol]
      Exch10(S^2)                   7.79490431 [mEh]       4.89137651 [kcal/mol]      20.46552126 [kJ/mol]

    Induction                      -2.65175826 [mEh]      -1.66400350 [kcal/mol]      -6.96219131 [kJ/mol]
      Ind20,r                      -5.10957286 [mEh]      -3.20630551 [kcal/mol]     -13.41518355 [kJ/mol]
      Exch-Ind20,r                  3.00535361 [mEh]       1.88588794 [kcal/mol]       7.89055590 [kJ/mol]
      delta HF,r (2)               -0.54753900 [mEh]      -0.34358593 [kcal/mol]      -1.43756366 [kJ/mol]
      Induction (A<-B)             -1.65414507 [mEh]      -1.03799175 [kcal/mol]      -4.34295789 [kJ/mol]
      Induction (B<-A)             -0.99761318 [mEh]      -0.62601175 [kcal/mol]      -2.61923341 [kJ/mol]

    Dispersion                     -4.02267735 [mEh]      -2.52426825 [kcal/mol]     -10.56153939 [kJ/mol]
      Disp20                       -4.65581898 [mEh]      -2.92157064 [kcal/mol]     -12.22385272 [kJ/mol]
      Exch-Disp20                   0.63314162 [mEh]       0.39730238 [kcal/mol]       1.66231333 [kJ/mol]

  Total HF                         18.37414484 [mEh]      11.52995044 [kcal/mol]      48.24131728 [kJ/mol]
  Total SAPT0                      14.35146749 [mEh]       9.00568219 [kcal/mol]      37.67977789 [kJ/mol]

  --------------------------------------------------------------------------------------------------------
    Han Solo: This is *not* gonna work.
    Luke Skywalker: Why didn't you say so before?
    Han Solo: I *did* say so before.

*** tstop() called on ThinkPad-P50 at Tue Dec 12 11:34:21 2017
Module time:
	user time   =    1200.49 seconds =      20.01 minutes
	system time =       8.65 seconds =       0.14 minutes
	total time  =       1220 seconds =      20.33 minutes
Total time:
	user time   =    1468.78 seconds =      24.48 minutes
	system time =      10.99 seconds =       0.18 minutes
	total time  =       1493 seconds =      24.88 minutes

*** Psi4 exiting successfully. Buy a developer a beer!
