
    -----------------------------------------------------------------------
          Psi4: An Open-Source Ab Initio Electronic Structure Package
                               Psi4 1.1 release

                         Git: Rev {HEAD} add49b9 


    R. M. Parrish, L. A. Burns, D. G. A. Smith, A. C. Simmonett,
    A. E. DePrince III, E. G. Hohenstein, U. Bozkaya, A. Yu. Sokolov,
    R. Di Remigio, R. M. Richard, J. F. Gonthier, A. M. James,
    H. R. McAlexander, A. Kumar, M. Saitow, X. Wang, B. P. Pritchard,
    P. Verma, H. F. Schaefer III, K. Patkowski, R. A. King, E. F. Valeev,
    F. A. Evangelista, J. M. Turney, T. D. Crawford, and C. D. Sherrill,
    J. Chem. Theory Comput. in press (2017).
    (doi: 10.1021/acs.jctc.7b00174)

    -----------------------------------------------------------------------


    Psi4 started on: Wednesday, 18 October 2017 07:19PM

    Process ID:  53088
    PSIDATADIR: /opt/software/psi4/psi4conda/share/psi4
    Memory:     500.0 MiB
    Threads:    48
    
  ==> Input File <==

--------------------------------------------------------------------------
memory 750000 mb

molecule mol {
0 1
C          2.38310       -2.01604       -0.82361
H          3.38400       -1.80580       -1.20818
H          2.44604       -2.87318       -0.14769
H          1.72504       -2.28237       -1.64637
--
0 1
C         -0.57623       -1.79746        0.05551
O         -0.47582       -2.54961       -0.87645
O         -1.69585       -1.70514        0.81657
C         -2.84012       -2.43366        0.33612
H         -2.62543       -3.50226        0.28859
H         -3.11813       -2.07470       -0.65608
H         -3.63334       -2.23501        1.05391
--
0 1
C          1.05672        2.63656       -0.72519
H          1.98084        2.98365       -1.19168
H          0.29744        2.53831       -1.50323
H          0.72699        3.38770       -0.00317
C         -1.21327        0.96990       -0.07677
O         -1.57720        0.49442       -1.12327
O         -1.89143        1.94548        0.57034
C         -3.09333        2.40773       -0.07301
H         -2.86046        2.85517       -1.04067
H         -3.51605        3.15013        0.60029
H         -3.78899        1.58031       -0.21958
C          0.06118        0.63828        0.66607
C          0.48264       -0.87056        0.63556
C          1.30152        1.31111       -0.03803
C          2.47024        1.28634        0.97918
C          2.87218       -0.20996        0.95099
C          1.87058       -0.80015       -0.08286
O          1.68965        0.31021       -0.98511
H         -0.04726        1.00553        1.68489
H          0.61264       -1.21537        1.66468
H          3.28025        1.92430        0.61997
H          2.17302        1.64546        1.96637
H          3.89069       -0.33873        0.58106
H          2.80652       -0.70092        1.92428

symmetry c1
no_reorient
no_com
}

set {
basis jun-cc-pvdz
scf_type df
guess sad
freeze_core true
}

energy('fisapt0')
--------------------------------------------------------------------------

  Memory set to 698.492 GiB by Python driver.

*** tstart() called on vega05.cac.cornell.edu
*** at Wed Oct 18 19:19:12 2017

   => Loading Basis Set <=

    Name: JUN-CC-PVDZ
    Role: ORBITAL
    Keyword: BASIS
    atoms 1, 5, 8, 12, 16, 19, 23-28     entry C          line   157 file /opt/software/psi4/psi4conda/share/psi4/basis/jun-cc-pvdz.gbs 
    atoms 2-4, 9-11, 13-15, 20-22, 30-35 entry H          line    35 file /opt/software/psi4/psi4conda/share/psi4/basis/jun-cc-pvdz.gbs 
    atoms 6-7, 17-18, 29                 entry O          line   225 file /opt/software/psi4/psi4conda/share/psi4/basis/jun-cc-pvdz.gbs 


         ---------------------------------------------------------
                                   SCF
            by Justin Turney, Rob Parrish, and Andy Simmonett
                              RHF Reference
                       48 Threads, 715255 MiB Core
         ---------------------------------------------------------

  ==> Geometry <==

    Molecular point group: c1
    Full point group: C1

    Geometry (in Angstrom), charge = 0, multiplicity = 1:

       Center              X                  Y                   Z               Mass       
    ------------   -----------------  -----------------  -----------------  -----------------
           C          2.383100000000    -2.016040000000    -0.823610000000    12.000000000000
           H          3.384000000000    -1.805800000000    -1.208180000000     1.007825032070
           H          2.446040000000    -2.873180000000    -0.147690000000     1.007825032070
           H          1.725040000000    -2.282370000000    -1.646370000000     1.007825032070
           C         -0.576230000000    -1.797460000000     0.055510000000    12.000000000000
           O         -0.475820000000    -2.549610000000    -0.876450000000    15.994914619560
           O         -1.695850000000    -1.705140000000     0.816570000000    15.994914619560
           C         -2.840120000000    -2.433660000000     0.336120000000    12.000000000000
           H         -2.625430000000    -3.502260000000     0.288590000000     1.007825032070
           H         -3.118130000000    -2.074700000000    -0.656080000000     1.007825032070
           H         -3.633340000000    -2.235010000000     1.053910000000     1.007825032070
           C          1.056720000000     2.636560000000    -0.725190000000    12.000000000000
           H          1.980840000000     2.983650000000    -1.191680000000     1.007825032070
           H          0.297440000000     2.538310000000    -1.503230000000     1.007825032070
           H          0.726990000000     3.387700000000    -0.003170000000     1.007825032070
           C         -1.213270000000     0.969900000000    -0.076770000000    12.000000000000
           O         -1.577200000000     0.494420000000    -1.123270000000    15.994914619560
           O         -1.891430000000     1.945480000000     0.570340000000    15.994914619560
           C         -3.093330000000     2.407730000000    -0.073010000000    12.000000000000
           H         -2.860460000000     2.855170000000    -1.040670000000     1.007825032070
           H         -3.516050000000     3.150130000000     0.600290000000     1.007825032070
           H         -3.788990000000     1.580310000000    -0.219580000000     1.007825032070
           C          0.061180000000     0.638280000000     0.666070000000    12.000000000000
           C          0.482640000000    -0.870560000000     0.635560000000    12.000000000000
           C          1.301520000000     1.311110000000    -0.038030000000    12.000000000000
           C          2.470240000000     1.286340000000     0.979180000000    12.000000000000
           C          2.872180000000    -0.209960000000     0.950990000000    12.000000000000
           C          1.870580000000    -0.800150000000    -0.082860000000    12.000000000000
           O          1.689650000000     0.310210000000    -0.985110000000    15.994914619560
           H         -0.047260000000     1.005530000000     1.684890000000     1.007825032070
           H          0.612640000000    -1.215370000000     1.664680000000     1.007825032070
           H          3.280250000000     1.924300000000     0.619970000000     1.007825032070
           H          2.173020000000     1.645460000000     1.966370000000     1.007825032070
           H          3.890690000000    -0.338730000000     0.581060000000     1.007825032070
           H          2.806520000000    -0.700920000000     1.924280000000     1.007825032070

  Running in c1 symmetry.

  Rotational constants: A =      0.02018  B =      0.01667  C =      0.01072 [cm^-1]
  Rotational constants: A =    604.96769  B =    499.62007  C =    321.44595 [MHz]
  Nuclear repulsion = 1397.765449108550229

  Charge       = 0
  Multiplicity = 1
  Electrons    = 130
  Nalpha       = 65
  Nbeta        = 65

  ==> Algorithm <==

  SCF Algorithm Type is DF.
  DIIS enabled.
  MOM disabled.
  Fractional occupation disabled.
  Guess Type is SAD.
  Energy threshold   = 1.00e-08
  Density threshold  = 1.00e-08
  Integral threshold = 0.00e+00

  ==> Primary Basis <==

  Basis Set: JUN-CC-PVDZ
    Blend: JUN-CC-PVDZ
    Number of shells: 190
    Number of basis function: 396
    Number of Cartesian functions: 413
    Spherical Harmonics?: true
    Max angular momentum: 2

   => Loading Basis Set <=

    Name: (JUN-CC-PVDZ AUX)
    Role: JKFIT
    Keyword: DF_BASIS_SCF
    atoms 1, 5, 8, 12, 16, 19, 23-28     entry C          line   145 file /opt/software/psi4/psi4conda/share/psi4/basis/jun-cc-pvdz-jkfit.gbs 
    atoms 2-4, 9-11, 13-15, 20-22, 30-35 entry H          line    69 file /opt/software/psi4/psi4conda/share/psi4/basis/jun-cc-pvdz-jkfit.gbs 
    atoms 6-7, 17-18, 29                 entry O          line   257 file /opt/software/psi4/psi4conda/share/psi4/basis/jun-cc-pvdz-jkfit.gbs 

  ==> Pre-Iterations <==

   -------------------------------------------------------
    Irrep   Nso     Nmo     Nalpha   Nbeta   Ndocc  Nsocc
   -------------------------------------------------------
     A        396     396       0       0       0       0
   -------------------------------------------------------
    Total     396     396      65      65      65       0
   -------------------------------------------------------

  ==> Integral Setup <==

  ==> DFJK: Density-Fitted J/K Matrices <==

    J tasked:                  Yes
    K tasked:                  Yes
    wK tasked:                  No
    OpenMP threads:             48
    Integrals threads:          48
    Memory (MB):            536441
    Algorithm:                Core
    Integral Cache:           NONE
    Schwarz Cutoff:          1E-12
    Fitting Condition:       1E-12

   => Auxiliary Basis Set <=

  Basis Set: (JUN-CC-PVDZ AUX)
    Blend: JUN-CC-PVDZ-JKFIT
    Number of shells: 621
    Number of basis function: 1757
    Number of Cartesian functions: 1997
    Spherical Harmonics?: true
    Max angular momentum: 3

  Minimum eigenvalue in the overlap matrix is 6.1448840302E-06.
  Using Symmetric Orthogonalization.

  SCF Guess: Superposition of Atomic Densities via on-the-fly atomic UHF.

  ==> Iterations <==

                           Total Energy        Delta E     RMS |[F,P]|

   @DF-RHF iter   0:  -846.75860131637762   -8.46759e+02   1.29261e-01 
   @DF-RHF iter   1:  -838.81845213039378    7.94015e+00   1.43967e-02 
   @DF-RHF iter   2:  -839.22227119020010   -4.03819e-01   6.20377e-03 DIIS
   @DF-RHF iter   3:  -839.29267505134067   -7.04039e-02   2.32858e-03 DIIS
   @DF-RHF iter   4:  -839.30858401704734   -1.59090e-02   5.32481e-04 DIIS
   @DF-RHF iter   5:  -839.30976483257143   -1.18082e-03   9.95016e-05 DIIS
   @DF-RHF iter   6:  -839.30999236136540   -2.27529e-04   1.04680e-04 DIIS
   @DF-RHF iter   7:  -839.31004047219540   -4.81108e-05   4.18725e-05 DIIS
   @DF-RHF iter   8:  -839.31005055874607   -1.00866e-05   1.84519e-05 DIIS
   @DF-RHF iter   9:  -839.31005285524134   -2.29650e-06   7.02655e-06 DIIS
   @DF-RHF iter  10:  -839.31005322580290   -3.70562e-07   2.33432e-06 DIIS
   @DF-RHF iter  11:  -839.31005326953687   -4.37340e-08   9.37864e-07 DIIS
   @DF-RHF iter  12:  -839.31005327334219   -3.80533e-09   3.73429e-07 DIIS
   @DF-RHF iter  13:  -839.31005327397122   -6.29029e-10   1.14134e-07 DIIS
   @DF-RHF iter  14:  -839.31005327404841   -7.71934e-11   4.63253e-08 DIIS
   @DF-RHF iter  15:  -839.31005327406911   -2.06910e-11   1.32240e-08 DIIS
   @DF-RHF iter  16:  -839.31005327407070   -1.59162e-12   4.23233e-09 DIIS

  ==> Post-Iterations <==

    Orbital Energies (a.u.)
    -----------------------

    Doubly Occupied:                                                      

       1A    -20.613798     2A    -20.603356     3A    -20.560868  
       4A    -20.555321     5A    -20.549604     6A    -11.391235  
       7A    -11.386735     8A    -11.303776     9A    -11.298060  
      10A    -11.296553    11A    -11.288584    12A    -11.264755  
      13A    -11.264127    14A    -11.237897    15A    -11.235507  
      16A    -11.230616    17A    -11.214345    18A     -1.469073  
      19A     -1.458765    20A     -1.399990    21A     -1.367351  
      22A     -1.360507    23A     -1.113839    24A     -1.075110  
      25A     -1.050585    26A     -0.995649    27A     -0.974914  
      28A     -0.963818    29A     -0.908399    30A     -0.872307  
      31A     -0.813978    32A     -0.784903    33A     -0.762881  
      34A     -0.755791    35A     -0.716633    36A     -0.691249  
      37A     -0.688058    38A     -0.678340    39A     -0.667826  
      40A     -0.665067    41A     -0.654214    42A     -0.643538  
      43A     -0.624994    44A     -0.597590    45A     -0.588246  
      46A     -0.580250    47A     -0.575989    48A     -0.562933  
      49A     -0.555000    50A     -0.543927    51A     -0.539717  
      52A     -0.533713    53A     -0.525600    54A     -0.507866  
      55A     -0.502042    56A     -0.501521    57A     -0.494517  
      58A     -0.483776    59A     -0.473586    60A     -0.465211  
      61A     -0.464428    62A     -0.457172    63A     -0.445617  
      64A     -0.423354    65A     -0.420095  

    Virtual:                                                              

      66A      0.048623    67A      0.054572    68A      0.056485  
      69A      0.066293    70A      0.070046    71A      0.076926  
      72A      0.083994    73A      0.091949    74A      0.095395  
      75A      0.099574    76A      0.109547    77A      0.113357  
      78A      0.115290    79A      0.121315    80A      0.127158  
      81A      0.130269    82A      0.133412    83A      0.142994  
      84A      0.143351    85A      0.155359    86A      0.161783  
      87A      0.165557    88A      0.168850    89A      0.173472  
      90A      0.177940    91A      0.184505    92A      0.188461  
      93A      0.192467    94A      0.197752    95A      0.199954  
      96A      0.206451    97A      0.209459    98A      0.217405  
      99A      0.224689   100A      0.228235   101A      0.232852  
     102A      0.236854   103A      0.244067   104A      0.246887  
     105A      0.255254   106A      0.257663   107A      0.259583  
     108A      0.262029   109A      0.267502   110A      0.271772  
     111A      0.280875   112A      0.288980   113A      0.291267  
     114A      0.293780   115A      0.303359   116A      0.309591  
     117A      0.316262   118A      0.320517   119A      0.324528  
     120A      0.330415   121A      0.339084   122A      0.341928  
     123A      0.347769   124A      0.349674   125A      0.358067  
     126A      0.360664   127A      0.371420   128A      0.374799  
     129A      0.377978   130A      0.386997   131A      0.390247  
     132A      0.394525   133A      0.401004   134A      0.401276  
     135A      0.403178   136A      0.407145   137A      0.415783  
     138A      0.419062   139A      0.423464   140A      0.430086  
     141A      0.433200   142A      0.437479   143A      0.438540  
     144A      0.448103   145A      0.454404   146A      0.457059  
     147A      0.466581   148A      0.469271   149A      0.484125  
     150A      0.492472   151A      0.497617   152A      0.504996  
     153A      0.510931   154A      0.519515   155A      0.521497  
     156A      0.537446   157A      0.540473   158A      0.543905  
     159A      0.545368   160A      0.559537   161A      0.567448  
     162A      0.569081   163A      0.596026   164A      0.603118  
     165A      0.606903   166A      0.608631   167A      0.633281  
     168A      0.642559   169A      0.662953   170A      0.719936  
     171A      0.726481   172A      0.750998   173A      0.769684  
     174A      0.777258   175A      0.782697   176A      0.807245  
     177A      0.809276   178A      0.815259   179A      0.830246  
     180A      0.840322   181A      0.847565   182A      0.866094  
     183A      0.873867   184A      0.884746   185A      0.896996  
     186A      0.905033   187A      0.910024   188A      0.917619  
     189A      0.923861   190A      0.925335   191A      0.931784  
     192A      0.934283   193A      0.937656   194A      0.944420  
     195A      0.948767   196A      0.955321   197A      0.962471  
     198A      0.966552   199A      0.975366   200A      0.978704  
     201A      0.983714   202A      0.985735   203A      0.993536  
     204A      0.998009   205A      1.004371   206A      1.010637  
     207A      1.020746   208A      1.031485   209A      1.043768  
     210A      1.049864   211A      1.065586   212A      1.069266  
     213A      1.080067   214A      1.093757   215A      1.099245  
     216A      1.106191   217A      1.115160   218A      1.120170  
     219A      1.129987   220A      1.132435   221A      1.141398  
     222A      1.166456   223A      1.184366   224A      1.187394  
     225A      1.241208   226A      1.247052   227A      1.259160  
     228A      1.278780   229A      1.285828   230A      1.313539  
     231A      1.328404   232A      1.353801   233A      1.364945  
     234A      1.381780   235A      1.415781   236A      1.440634  
     237A      1.445439   238A      1.457098   239A      1.478368  
     240A      1.498306   241A      1.505887   242A      1.519192  
     243A      1.526397   244A      1.535286   245A      1.550561  
     246A      1.557981   247A      1.566952   248A      1.588838  
     249A      1.599759   250A      1.612841   251A      1.616313  
     252A      1.627151   253A      1.637303   254A      1.639111  
     255A      1.651350   256A      1.660847   257A      1.678340  
     258A      1.680459   259A      1.682007   260A      1.692300  
     261A      1.700963   262A      1.702131   263A      1.725899  
     264A      1.734416   265A      1.751823   266A      1.767623  
     267A      1.775348   268A      1.788503   269A      1.803837  
     270A      1.814436   271A      1.826586   272A      1.842865  
     273A      1.846858   274A      1.871969   275A      1.880514  
     276A      1.900077   277A      1.903850   278A      1.907425  
     279A      1.911461   280A      1.921761   281A      1.937552  
     282A      1.952487   283A      1.959266   284A      1.964707  
     285A      1.967449   286A      1.973726   287A      1.981290  
     288A      1.988176   289A      1.995589   290A      2.005822  
     291A      2.019265   292A      2.022254   293A      2.033435  
     294A      2.037941   295A      2.046539   296A      2.048274  
     297A      2.057445   298A      2.062204   299A      2.075958  
     300A      2.079054   301A      2.093439   302A      2.097108  
     303A      2.112195   304A      2.125130   305A      2.143788  
     306A      2.145151   307A      2.157978   308A      2.169767  
     309A      2.176172   310A      2.184946   311A      2.194306  
     312A      2.213615   313A      2.227612   314A      2.252906  
     315A      2.264204   316A      2.277232   317A      2.281580  
     318A      2.283306   319A      2.302019   320A      2.318035  
     321A      2.326489   322A      2.354148   323A      2.362478  
     324A      2.386639   325A      2.392205   326A      2.402368  
     327A      2.404858   328A      2.410686   329A      2.426165  
     330A      2.435632   331A      2.440064   332A      2.445235  
     333A      2.459769   334A      2.470310   335A      2.499218  
     336A      2.515660   337A      2.536829   338A      2.556929  
     339A      2.588171   340A      2.607835   341A      2.621715  
     342A      2.639444   343A      2.680750   344A      2.692429  
     345A      2.733709   346A      2.752930   347A      2.761911  
     348A      2.773252   349A      2.789210   350A      2.794106  
     351A      2.800453   352A      2.805829   353A      2.819286  
     354A      2.854314   355A      2.864528   356A      2.873621  
     357A      2.874140   358A      2.879451   359A      2.891413  
     360A      2.896735   361A      2.904146   362A      2.915981  
     363A      2.935649   364A      2.941340   365A      2.963548  
     366A      2.972752   367A      2.989084   368A      3.013105  
     369A      3.028967   370A      3.062335   371A      3.071596  
     372A      3.113970   373A      3.130531   374A      3.176683  
     375A      3.261071   376A      3.266162   377A      3.304330  
     378A      3.312601   379A      3.371851   380A      3.390905  
     381A      3.416047   382A      3.432898   383A      3.516812  
     384A      3.533053   385A      3.570495   386A      3.599876  
     387A      3.680693   388A      3.693509   389A      3.747171  
     390A      3.784315   391A      3.792683   392A      3.908949  
     393A      3.962406   394A      3.983566   395A      4.101586  
     396A      4.113334  

    Final Occupation by Irrep:
              A 
    DOCC [    65 ]

  Energy converged.

  @DF-RHF Final Energy:  -839.31005327407070

   => Energetics <=

    Nuclear Repulsion Energy =           1397.7654491085502286
    One-Electron Energy =               -3926.7608691821483262
    Two-Electron Energy =                1689.6853667995276282
    DFT Exchange-Correlation Energy =       0.0000000000000000
    Empirical Dispersion Energy =           0.0000000000000000
    PCM Polarization Energy =               0.0000000000000000
    EFP Energy =                            0.0000000000000000
    Total Energy =                       -839.3100532740706967



Properties will be evaluated at   0.000000,   0.000000,   0.000000 Bohr

Properties computed using the SCF density matrix

  Nuclear Dipole Moment: (a.u.)
     X:     1.4737      Y:    -2.3855      Z:     1.5265

  Electronic Dipole Moment: (a.u.)
     X:    -1.6979      Y:     3.2393      Z:     0.0268

  Dipole Moment: (a.u.)
     X:    -0.2242      Y:     0.8538      Z:     1.5533     Total:     1.7866

  Dipole Moment: (Debye)
     X:    -0.5698      Y:     2.1701      Z:     3.9481     Total:     4.5411


*** tstop() called on vega05.cac.cornell.edu at Wed Oct 18 19:19:55 2017
Module time:
	user time   =     787.17 seconds =      13.12 minutes
	system time =       6.72 seconds =       0.11 minutes
	total time  =         43 seconds =       0.72 minutes
Total time:
	user time   =     787.17 seconds =      13.12 minutes
	system time =       6.72 seconds =       0.11 minutes
	total time  =         43 seconds =       0.72 minutes
   => Loading Basis Set <=

    Name: (JUN-CC-PVDZ AUX)
    Role: JKFIT
    Keyword: DF_BASIS_SCF
    atoms 1, 5, 8, 12, 16, 19, 23-28     entry C          line   145 file /opt/software/psi4/psi4conda/share/psi4/basis/jun-cc-pvdz-jkfit.gbs 
    atoms 2-4, 9-11, 13-15, 20-22, 30-35 entry H          line    69 file /opt/software/psi4/psi4conda/share/psi4/basis/jun-cc-pvdz-jkfit.gbs 
    atoms 6-7, 17-18, 29                 entry O          line   257 file /opt/software/psi4/psi4conda/share/psi4/basis/jun-cc-pvdz-jkfit.gbs 

   => Loading Basis Set <=

    Name: (JUN-CC-PVDZ AUX)
    Role: RIFIT
    Keyword: DF_BASIS_SAPT
    atoms 1, 5, 8, 12, 16, 19, 23-28     entry C          line    99 file /opt/software/psi4/psi4conda/share/psi4/basis/jun-cc-pvdz-ri.gbs 
    atoms 2-4, 9-11, 13-15, 20-22, 30-35 entry H          line    29 file /opt/software/psi4/psi4conda/share/psi4/basis/jun-cc-pvdz-ri.gbs 
    atoms 6-7, 17-18, 29                 entry O          line   187 file /opt/software/psi4/psi4conda/share/psi4/basis/jun-cc-pvdz-ri.gbs 

   => Loading Basis Set <=

    Name: CC-PVTZ-MINAO
    Role: ORBITAL
    Keyword: BASIS
    atoms 1, 5, 8, 12, 16, 19, 23-28     entry C          line   130 file /opt/software/psi4/psi4conda/share/psi4/basis/cc-pvtz-minao.gbs 
    atoms 2-4, 9-11, 13-15, 20-22, 30-35 entry H          line    19 file /opt/software/psi4/psi4conda/share/psi4/basis/cc-pvtz-minao.gbs 
    atoms 6-7, 17-18, 29                 entry O          line   190 file /opt/software/psi4/psi4conda/share/psi4/basis/cc-pvtz-minao.gbs 


*** tstart() called on vega05.cac.cornell.edu
*** at Wed Oct 18 19:19:57 2017

	 --------------------------------------------
	                    FISAPT0                  
	                  Rob Parrish                
	 --------------------------------------------

    Do F-SAPT =         Yes
    Do Plot   =          No
    Memory    =      78.580 [GD]

  ==> Localization (IBO) <==

  ==> IBO Localizer 2 <==

    MinAO Basis = CC-PVTZ-MINAO
    Use Ghosts  =       FALSE
    Use Stars   =       FALSE
    Condition   =   1.000E-07
    Power       =           4
    Convergence =   1.000E-12
    Maxiter     =        1000

    @IBO Iter:                   Metric       Gradient
    @IBO    1:   1.9917705807781811E+00   2.655290E+00
    @IBO    2:   2.2585073773925770E+00   2.358717E+00
    @IBO    3:   2.3481039102808703E+00   1.028442E+00
    @IBO    4:   2.3585546880265302E+00   1.471836E-01
    @IBO    5:   2.3589093474989271E+00   2.380547E-03
    @IBO    6:   2.3589094316889261E+00   4.082058E-05
    @IBO    7:   2.3589094317109307E+00   1.386558E-06
    @IBO    8:   2.3589094317109569E+00   6.283399E-08
    @IBO    9:   2.3589094317109569E+00   3.087642E-09
    @IBO   10:   2.3589094317109569E+00   1.481943E-10
    @IBO   11:   2.3589094317109569E+00   7.087394E-12
    @IBO   12:   2.3589094317109569E+00   3.363834E-13

    IBO Localizer 2 converged.

  ==> Partitioning <==

   => Atomic Partitioning <= 

    Monomer A:   4 atoms
    Monomer B:   7 atoms
    Monomer C:  24 atoms

   => Link Bond Identification <=

    Link Bond Selection = AUTOMATIC

    Charge Completeness = 0.800

    Total Link Bonds = 2

    --------------------------
    N     Orb Type Aind1 Aind2
    --------------------------
    1      18   AC     1    28
    2      27   BC     5    24
    --------------------------

   => Link Bond Assignment <=

    Link Bond Assignment      = C

   => Partition Summary <=

    Monomer A:  0 charge,   8 protons,   8 electrons,   4 docc
    Monomer B:  0 charge,  30 protons,  30 electrons,  15 docc
    Monomer C:  0 charge,  92 protons,  92 electrons,  46 docc

  ==> Overlap Integrals <==

  ==> Kinetic Integrals <==

  ==> Nuclear Integrals <==

    Nuclear Repulsion Tot:   1.3977654491085500E+03 [Eh]

  ==> Coulomb Integrals <==

  ==> DFJK: Density-Fitted J/K Matrices <==

    J tasked:                  Yes
    K tasked:                  Yes
    wK tasked:                  No
    OpenMP threads:             48
    Integrals threads:          48
    Memory (MB):            643730
    Algorithm:                Core
    Integral Cache:           NONE
    Schwarz Cutoff:          1E-12
    Fitting Condition:       1E-12

   => Auxiliary Basis Set <=

  Basis Set: (JUN-CC-PVDZ AUX)
    Blend: JUN-CC-PVDZ-JKFIT
    Number of shells: 621
    Number of basis function: 1757
    Number of Cartesian functions: 1997
    Spherical Harmonics?: true
    Max angular momentum: 3

  ==> Relaxed SCF Equations <==

  ==> SCF A: <==

    Maxiter =          50
    E Tol   =   1.000E-06
    D Tol   =   1.000E-08

    Max DIIS Vectors = 5

    Iter   N:                        E          dE         |D|
    Iter   1:  -3.6226813175869260E+01  -3.623E+01   1.689E-03 
    Iter   2:  -3.6229742405141117E+01  -2.929E-03   1.847E-04 DIIS
    Iter   3:  -3.6229849564407715E+01  -1.072E-04   4.015E-05 DIIS
    Iter   4:  -3.6229858189557525E+01  -8.625E-06   7.889E-06 DIIS
    Iter   5:  -3.6229858635460637E+01  -4.459E-07   1.834E-06 DIIS
    Iter   6:  -3.6229858652220067E+01  -1.676E-08   2.224E-07 DIIS
    Iter   7:  -3.6229858652490940E+01  -2.709E-10   3.779E-08 DIIS
    Iter   8:  -3.6229858652496759E+01  -5.819E-12   4.839E-09 DIIS

    FISAPTSCF Converged.

    Final SCF Energy:  -3.6229858652496759E+01 [Eh]

   => Occupied Orbital Energies <=

       1  -11.221355     2   -0.837281     3   -0.547695  
       4   -0.546892  

   => Virtual Orbital Energies <=

       5    0.035171     6    0.053486     7    0.056902  
       8    0.064325     9    0.068046    10    0.078627  
      11    0.082196    12    0.083749    13    0.095054  
      14    0.097933    15    0.100788    16    0.109222  
      17    0.113436    18    0.118192    19    0.124629  
      20    0.127620    21    0.134248    22    0.137429  
      23    0.141303    24    0.144402    25    0.153697  
      26    0.165924    27    0.166979    28    0.168414  
      29    0.177696    30    0.179810    31    0.185731  
      32    0.191127    33    0.195059    34    0.199670  
      35    0.205797    36    0.208908    37    0.221263  
      38    0.221637    39    0.227824    40    0.232526  
      41    0.237136    42    0.243056    43    0.249750  
      44    0.251759    45    0.260128    46    0.262233  
      47    0.269514    48    0.270522    49    0.273999  
      50    0.279938    51    0.287365    52    0.293191  
      53    0.295590    54    0.300112    55    0.308527  
      56    0.316193    57    0.320828    58    0.326265  
      59    0.330380    60    0.333707    61    0.341123  
      62    0.345191    63    0.352697    64    0.357458  
      65    0.362116    66    0.362783    67    0.370994  
      68    0.378141    69    0.384002    70    0.389590  
      71    0.399424    72    0.403725    73    0.408946  
      74    0.412646    75    0.418224    76    0.422722  
      77    0.428331    78    0.431850    79    0.435063  
      80    0.440855    81    0.447331    82    0.452987  
      83    0.459053    84    0.459092    85    0.463890  
      86    0.467889    87    0.479700    88    0.488567  
      89    0.497862    90    0.514409    91    0.519054  
      92    0.524550    93    0.528545    94    0.536124  
      95    0.548607    96    0.556967    97    0.566696  
      98    0.568637    99    0.572514   100    0.592477  
     101    0.607837   102    0.609035   103    0.617764  
     104    0.628473   105    0.634071   106    0.642644  
     107    0.646262   108    0.671128   109    0.674201  
     110    0.702792   111    0.723315   112    0.743881  
     113    0.754499   114    0.772567   115    0.782445  
     116    0.791857   117    0.802192   118    0.826386  
     119    0.836013   120    0.848586   121    0.861638  
     122    0.868071   123    0.890505   124    0.910429  
     125    0.917984   126    0.920820   127    0.930035  
     128    0.940411   129    0.944295   130    0.946963  
     131    0.953131   132    0.955178   133    0.960688  
     134    0.963905   135    0.967456   136    0.975274  
     137    0.988034   138    0.989824   139    0.994703  
     140    1.005712   141    1.006128   142    1.019434  
     143    1.022897   144    1.032610   145    1.044619  
     146    1.050038   147    1.053938   148    1.071968  
     149    1.077527   150    1.088864   151    1.095395  
     152    1.110586   153    1.115847   154    1.122619  
     155    1.130660   156    1.137606   157    1.143313  
     158    1.149541   159    1.164223   160    1.173512  
     161    1.192638   162    1.213882   163    1.230947  
     164    1.250419   165    1.279406   166    1.312098  
     167    1.327712   168    1.341867   169    1.366735  
     170    1.384257   171    1.407890   172    1.418746  
     173    1.458025   174    1.475484   175    1.481248  
     176    1.487562   177    1.516422   178    1.529287  
     179    1.542367   180    1.562850   181    1.569328  
     182    1.583597   183    1.596057   184    1.605559  
     185    1.611606   186    1.630034   187    1.644654  
     188    1.663222   189    1.665522   190    1.677196  
     191    1.683465   192    1.690821   193    1.698662  
     194    1.709219   195    1.722152   196    1.726609  
     197    1.738872   198    1.756088   199    1.762408  
     200    1.781459   201    1.793388   202    1.821774  
     203    1.831120   204    1.849210   205    1.851679  
     206    1.863368   207    1.871545   208    1.884752  
     209    1.897696   210    1.906451   211    1.921372  
     212    1.933395   213    1.943801   214    1.949933  
     215    1.956957   216    1.968175   217    1.979261  
     218    1.983808   219    1.992584   220    2.002002  
     221    2.010873   222    2.013147   223    2.023333  
     224    2.037807   225    2.042868   226    2.044130  
     227    2.057834   228    2.066843   229    2.079873  
     230    2.082891   231    2.095749   232    2.108791  
     233    2.115693   234    2.120595   235    2.133299  
     236    2.143180   237    2.150900   238    2.157836  
     239    2.167664   240    2.183018   241    2.186556  
     242    2.189709   243    2.208836   244    2.219056  
     245    2.243354   246    2.255438   247    2.270015  
     248    2.271899   249    2.299041   250    2.300992  
     251    2.309166   252    2.331731   253    2.348575  
     254    2.351058   255    2.367849   256    2.372702  
     257    2.375012   258    2.386327   259    2.392867  
     260    2.396538   261    2.409623   262    2.424457  
     263    2.432959   264    2.435836   265    2.446824  
     266    2.471219   267    2.495071   268    2.510063  
     269    2.526117   270    2.542069   271    2.561194  
     272    2.575491   273    2.611873   274    2.626956  
     275    2.632307   276    2.649973   277    2.678112  
     278    2.690489   279    2.706633   280    2.716615  
     281    2.725417   282    2.751591   283    2.772254  
     284    2.785319   285    2.794446   286    2.803947  
     287    2.815725   288    2.830151   289    2.846214  
     290    2.868951   291    2.870346   292    2.873842  
     293    2.886909   294    2.891836   295    2.902786  
     296    2.906284   297    2.913628   298    2.922709  
     299    2.940677   300    2.954358   301    2.961372  
     302    2.971640   303    2.992865   304    3.033216  
     305    3.041138   306    3.065204   307    3.085629  
     308    3.112619   309    3.139168   310    3.207406  
     311    3.275691   312    3.320902   313    3.340297  
     314    3.417727   315    3.448042   316    3.462974  
     317    3.551847   318    3.582004   319    3.632090  
     320    3.663723   321    3.727717   322    3.763993  
     323    3.797123   324    3.813803   325    3.933989  
     326    3.959500   327    4.010704   328    4.114186  
     329    4.148853   330    4.216113   331    4.437346  
     332    4.522865   333    4.547433   334    4.766080  
     335    4.950995   336    5.051016   337    5.075384  
     338    5.212981   339    5.331057   340    5.539501  
     341    5.643981   342    5.752804   343    5.872146  
     344    6.090534   345    6.345850   346    6.726873  
     347   13.395216   348   18.435217   349   33.436392  
     350   33.482349  

  ==> SCF B: <==

    Maxiter =          50
    E Tol   =   1.000E-06
    D Tol   =   1.000E-08

    Max DIIS Vectors = 5

    Iter   N:                        E          dE         |D|
    Iter   1:  -2.2395184178369982E+02  -2.240E+02   2.935E-03 
    Iter   2:  -2.2396587859791180E+02  -1.404E-02   3.451E-04 DIIS
    Iter   3:  -2.2396642060441314E+02  -5.420E-04   1.107E-04 DIIS
    Iter   4:  -2.2396646305946356E+02  -4.246E-05   6.837E-05 DIIS
    Iter   5:  -2.2396647072065397E+02  -7.661E-06   1.155E-05 DIIS
    Iter   6:  -2.2396647128812143E+02  -5.675E-07   3.655E-06 DIIS
    Iter   7:  -2.2396647134173915E+02  -5.362E-08   1.440E-06 DIIS
    Iter   8:  -2.2396647135416660E+02  -1.243E-08   5.350E-07 DIIS
    Iter   9:  -2.2396647135592966E+02  -1.763E-09   1.670E-07 DIIS
    Iter  10:  -2.2396647135615765E+02  -2.280E-10   7.843E-08 DIIS
    Iter  11:  -2.2396647135618821E+02  -3.055E-11   1.601E-08 DIIS
    Iter  12:  -2.2396647135619065E+02  -2.444E-12   9.432E-09 DIIS

    FISAPTSCF Converged.

    Final SCF Energy:  -2.2396647135619065E+02 [Eh]

   => Occupied Orbital Energies <=

       1  -20.598977     2  -20.545537     3  -11.381781  
       4  -11.285490     5   -1.430669     6   -1.352854  
       7   -0.952224     8   -0.758064     9   -0.664488  
      10   -0.654342    11   -0.615035    12   -0.534241  
      13   -0.529334    14   -0.468531    15   -0.455252  

   => Virtual Orbital Energies <=

      16    0.021542    17    0.051478    18    0.057688  
      19    0.061342    20    0.068799    21    0.078017  
      22    0.078343    23    0.091280    24    0.097301  
      25    0.098900    26    0.104073    27    0.111726  
      28    0.115744    29    0.117046    30    0.120772  
      31    0.127236    32    0.130695    33    0.135134  
      34    0.141663    35    0.145742    36    0.159828  
      37    0.162824    38    0.166632    39    0.173580  
      40    0.175448    41    0.181095    42    0.188116  
      43    0.190205    44    0.196585    45    0.200459  
      46    0.202088    47    0.209206    48    0.211990  
      49    0.219313    50    0.226562    51    0.230396  
      52    0.235694    53    0.237988    54    0.245163  
      55    0.249645    56    0.253902    57    0.259683  
      58    0.264176    59    0.269724    60    0.278552  
      61    0.285009    62    0.290615    63    0.293302  
      64    0.306090    65    0.307634    66    0.318433  
      67    0.320789    68    0.323589    69    0.328750  
      70    0.331615    71    0.334644    72    0.343347  
      73    0.349096    74    0.351204    75    0.357541  
      76    0.366607    77    0.370034    78    0.378544  
      79    0.381876    80    0.387774    81    0.391784  
      82    0.398318    83    0.401263    84    0.405759  
      85    0.408722    86    0.415441    87    0.416371  
      88    0.423836    89    0.426959    90    0.431281  
      91    0.438587    92    0.440464    93    0.443019  
      94    0.452738    95    0.457909    96    0.465767  
      97    0.468856    98    0.483832    99    0.488160  
     100    0.491764   101    0.506638   102    0.510420  
     103    0.519178   104    0.525090   105    0.534072  
     106    0.537879   107    0.548793   108    0.552322  
     109    0.561521   110    0.568138   111    0.577727  
     112    0.588355   113    0.589346   114    0.604016  
     115    0.614475   116    0.623321   117    0.638612  
     118    0.644839   119    0.650599   120    0.669607  
     121    0.693358   122    0.708258   123    0.736223  
     124    0.754886   125    0.773323   126    0.776862  
     127    0.790257   128    0.802593   129    0.817447  
     130    0.826866   131    0.842852   132    0.858494  
     133    0.871003   134    0.873246   135    0.897842  
     136    0.913587   137    0.915924   138    0.917030  
     139    0.924229   140    0.931987   141    0.936941  
     142    0.942391   143    0.947652   144    0.954261  
     145    0.958077   146    0.964106   147    0.972277  
     148    0.979065   149    0.987155   150    0.988693  
     151    0.999126   152    1.002066   153    1.012596  
     154    1.024710   155    1.028014   156    1.033367  
     157    1.036679   158    1.056247   159    1.071313  
     160    1.080481   161    1.087569   162    1.093407  
     163    1.107932   164    1.117519   165    1.125213  
     166    1.134627   167    1.137789   168    1.145654  
     169    1.151880   170    1.184596   171    1.197557  
     172    1.251780   173    1.258963   174    1.283221  
     175    1.294711   176    1.304037   177    1.325120  
     178    1.345740   179    1.368680   180    1.378191  
     181    1.414913   182    1.425390   183    1.437121  
     184    1.446556   185    1.477736   186    1.483085  
     187    1.505290   188    1.511930   189    1.521503  
     190    1.537086   191    1.537700   192    1.548186  
     193    1.553151   194    1.565928   195    1.586430  
     196    1.596399   197    1.602335   198    1.614717  
     199    1.629132   200    1.635204   201    1.644193  
     202    1.652773   203    1.661845   204    1.667326  
     205    1.668158   206    1.685701   207    1.695536  
     208    1.698378   209    1.712847   210    1.718929  
     211    1.723535   212    1.738358   213    1.740590  
     214    1.760166   215    1.773148   216    1.796974  
     217    1.806861   218    1.824472   219    1.836533  
     220    1.851845   221    1.875854   222    1.882534  
     223    1.892676   224    1.908590   225    1.911552  
     226    1.925841   227    1.926536   228    1.943001  
     229    1.944750   230    1.958218   231    1.965717  
     232    1.971208   233    1.981386   234    1.983756  
     235    1.993458   236    1.995189   237    2.013042  
     238    2.016704   239    2.021575   240    2.030634  
     241    2.042820   242    2.044870   243    2.051662  
     244    2.055724   245    2.073134   246    2.076820  
     247    2.089097   248    2.097190   249    2.101768  
     250    2.108223   251    2.124147   252    2.138567  
     253    2.143228   254    2.153982   255    2.165800  
     256    2.173627   257    2.185926   258    2.195455  
     259    2.199229   260    2.234374   261    2.244409  
     262    2.250720   263    2.271937   264    2.279360  
     265    2.290842   266    2.297245   267    2.310688  
     268    2.327804   269    2.341729   270    2.351623  
     271    2.371466   272    2.390433   273    2.402402  
     274    2.404365   275    2.416878   276    2.431984  
     277    2.432188   278    2.433881   279    2.441922  
     280    2.455942   281    2.470041   282    2.484939  
     283    2.498112   284    2.506511   285    2.544467  
     286    2.573528   287    2.595331   288    2.608512  
     289    2.621602   290    2.630092   291    2.637462  
     292    2.650049   293    2.687253   294    2.717209  
     295    2.732762   296    2.738073   297    2.765877  
     298    2.777069   299    2.786415   300    2.804240  
     301    2.810507   302    2.820091   303    2.832976  
     304    2.857715   305    2.867929   306    2.871301  
     307    2.880244   308    2.884804   309    2.898548  
     310    2.912083   311    2.927988   312    2.941102  
     313    2.955578   314    2.972513   315    2.987755  
     316    3.020257   317    3.029409   318    3.046475  
     319    3.056059   320    3.087597   321    3.097258  
     322    3.129585   323    3.140765   324    3.194847  
     325    3.266289   326    3.270868   327    3.310105  
     328    3.317607   329    3.384833   330    3.400141  
     331    3.445368   332    3.458236   333    3.537670  
     334    3.561441   335    3.589065   336    3.607421  
     337    3.687571   338    3.696372   339    3.768591  
     340    3.790458   341    3.799577   342    3.911011  
     343    3.930456   344    3.970761   345    4.000775  
     346    4.107723   347    4.118545   348    4.545808  
     349    4.570203   350   13.299002  

  ==> Frozen Core <==


    ------------------
    Range      A     B
    ------------------
    nbf      396   396
    nmo      350   350
    nocc       4    15
    nvir     346   335
    nfocc      1     4
    naocc      3    11
    navir    346   335
    nfvir      0     0
    ------------------

  ==> Unification <==

  ==> dHF <==

    E ABC(HF) =  -8.3931005327407070E+02 [Eh]
    E AC(0)   =  -6.1127652267154133E+02 [Eh]
    E BC(0)   =  -7.9917068847920791E+02 [Eh]
    E A(0)    =  -2.5029772982309439E+01 [Eh]
    E B(0)    =  -2.1265794815529557E+02 [Eh]
    E AC(HF)  =  -6.1127347719491297E+02 [Eh]
    E BC(HF)  =  -7.9915605890671713E+02 [Eh]
    E AB(HF)  =  -2.3765471056218908E+02 [Eh]
    E A(HF)   =  -2.5014208334250860E+01 [Eh]
    E B(HF)   =  -2.1263634372156787E+02 [Eh]
    E C       =  -5.7112364133392953E+02 [Eh]
    E HF      =   1.3516542749016480E-02 [Eh]

  ==> Electrostatics <==

    Elst10,r            =     0.006859960754 [Eh]

  ==> Exchange <==

    Exch10(S^2)         =     0.008260893251 [Eh]
    Exch10              =     0.008306508148 [Eh]

  ==> Induction <==

    Ind20,u (A<-B)      =    -0.001610692151 [Eh]
    Ind20,u (B<-A)      =    -0.000929522897 [Eh]
    Ind20,u             =    -0.002540215048 [Eh]
    Exch-Ind20,u (A<-B) =     0.000856747618 [Eh]
    Exch-Ind20,u (B<-A) =     0.000721487785 [Eh]
    Exch-Ind20,u        =     0.001578235403 [Eh]

  ==> CPHF Iterations <==

    Maxiter     =          50
    Convergence =   1.000E-08

    -----------------------------------------
    Iter   Monomer A    Monomer B    Time [s]
    -----------------------------------------
    1      1.364E-01    2.474E-01           1
    2      2.006E-02    9.596E-02           2
    3      5.491E-03    1.884E-02           3
    4      8.148E-04    7.411E-03           4
    5      7.921E-05    2.162E-03           5
    6      1.181E-05    9.252E-04           7
    7      1.906E-06    3.229E-04           8
    8      3.204E-07    1.341E-04           9
    9      3.653E-08    2.839E-05          10
    10     2.816E-09*   8.794E-06          11
    11     2.816E-09*   3.254E-06          12
    12     2.816E-09*   6.191E-07          12
    13     2.816E-09*   1.551E-07          13
    14     2.816E-09*   4.221E-08          13
    15     2.816E-09*   8.197E-09*         14
    -----------------------------------------

    Ind20,r (A<-B)      =    -0.001877339748 [Eh]
    Ind20,r (B<-A)      =    -0.001147698783 [Eh]
    Ind20,r             =    -0.003025038531 [Eh]
    Exch-Ind20,r (A<-B) =     0.001013292849 [Eh]
    Exch-Ind20,r (B<-A) =     0.000968403912 [Eh]
    Exch-Ind20,r        =     0.001981696761 [Eh]

  ==> F-SAPT Localization (IBO) <==

  Local Orbitals for Monomer A:

  ==> IBO Localizer 2 <==

    MinAO Basis = CC-PVTZ-MINAO
    Use Ghosts  =       FALSE
    Use Stars   =       FALSE
    Condition   =   1.000E-07
    Power       =           4
    Convergence =   1.000E-12
    Maxiter     =        1000

    @IBO Iter:                   Metric       Gradient
    @IBO    1:   1.0653475431162711E+00   3.886763E-02
    @IBO    2:   1.0836498259024649E+00   1.756042E-02
    @IBO    3:   1.0838679502794399E+00   1.432017E-04
    @IBO    4:   1.0838679644693181E+00   9.239644E-09
    @IBO    5:   1.0838679644693181E+00   5.065212E-12
    @IBO    6:   1.0838679644693183E+00   5.057718E-16

    IBO Localizer 2 converged.

  Local Orbitals for Monomer B:

  ==> IBO Localizer 2 <==

    MinAO Basis = CC-PVTZ-MINAO
    Use Ghosts  =       FALSE
    Use Stars   =       FALSE
    Condition   =   1.000E-07
    Power       =           4
    Convergence =   1.000E-12
    Maxiter     =        1000

    @IBO Iter:                   Metric       Gradient
    @IBO    1:   1.4786042978212512E+00   1.662440E+00
    @IBO    2:   1.6767917435087287E+00   9.532346E-01
    @IBO    3:   1.7089337352091971E+00   3.371946E-01
    @IBO    4:   1.7103880793188131E+00   4.176942E-03
    @IBO    5:   1.7103887000863405E+00   1.604166E-04
    @IBO    6:   1.7103887004423886E+00   2.162879E-06
    @IBO    7:   1.7103887004424969E+00   8.331958E-08
    @IBO    8:   1.7103887004424969E+00   3.500316E-09
    @IBO    9:   1.7103887004424971E+00   1.439620E-10
    @IBO   10:   1.7103887004424971E+00   5.841330E-12
    @IBO   11:   1.7103887004424971E+00   2.352443E-13

    IBO Localizer 2 converged.

  ==> F-SAPT Electrostatics <==

  ==> DFERI: Density Fitted 3-Index Tensors <==

    Schwarz cutoff =   0.000E+00
    J cutoff       =   1.000E-12
    Mem (GB)       =         628

   => Auxiliary Basis <=

  Basis Set: (JUN-CC-PVDZ AUX)
    Blend: JUN-CC-PVDZ-JKFIT
    Number of shells: 621
    Number of basis function: 1757
    Number of Cartesian functions: 1997
    Spherical Harmonics?: true
    Max angular momentum: 3

    Elst10,r            =     0.006859960949 [Eh]

  ==> F-SAPT Exchange <==

  ==> DFERI: Density Fitted 3-Index Tensors <==

    Schwarz cutoff =   0.000E+00
    J cutoff       =   1.000E-12
    Mem (GB)       =         628

   => Auxiliary Basis <=

  Basis Set: (JUN-CC-PVDZ AUX)
    Blend: JUN-CC-PVDZ-JKFIT
    Number of shells: 621
    Number of basis function: 1757
    Number of Cartesian functions: 1997
    Spherical Harmonics?: true
    Max angular momentum: 3

    Exch10(S^2)         =     0.008260893251 [Eh]

    Scaling F-SAPT Exch10(S^2) by   1.006E+00 to match Exch10

  ==> F-SAPT Induction <==

  ==> DFERI: Density Fitted 3-Index Tensors <==

    Schwarz cutoff =   0.000E+00
    J cutoff       =   1.000E-12
    Mem (GB)       =         628

   => Auxiliary Basis <=

  Basis Set: (JUN-CC-PVDZ AUX)
    Blend: JUN-CC-PVDZ-JKFIT
    Number of shells: 621
    Number of basis function: 1757
    Number of Cartesian functions: 1997
    Spherical Harmonics?: true
    Max angular momentum: 3

    Ind20,u (A<-B)      =    -0.001610692152 [Eh]
    Ind20,u (B<-A)      =    -0.000929522897 [Eh]
    Ind20,u             =    -0.002540215049 [Eh]
    Exch-Ind20,u (A<-B) =     0.000856747618 [Eh]
    Exch-Ind20,u (B<-A) =     0.000721487785 [Eh]
    Exch-Ind20,u        =     0.001578235403 [Eh]

    Scaling for delta HF        =   1.581E+00
    Scaling for response (A<-B) =   1.146E+00
    Scaling for response (B<-A) =   8.618E-01
    Scaling for total (A<-B)    =   1.812E+00
    Scaling for total (B<-A)    =   1.363E+00

  ==> F-SAPT Dispersion <==

  ==> DFERI: Density Fitted 3-Index Tensors <==

    Schwarz cutoff =   0.000E+00
    J cutoff       =   1.000E-12
    Mem (GB)       =         628

   => Auxiliary Basis <=

  Basis Set: (JUN-CC-PVDZ AUX)
    Blend: JUN-CC-PVDZ-RI
    Number of shells: 465
    Number of basis function: 1357
    Number of Cartesian functions: 1562
    Spherical Harmonics?: true
    Max angular momentum: 3

    Disp20              =    -0.002772421240 [Eh]
    Exch-Disp20         =     0.000523961336 [Eh]

  ==> F-SAPT Output <==

    F-SAPT Data Filepath = fsapt/

  ==> Results <==


    SAPT Results  
  --------------------------------------------------------------------------------------------------------
    Electrostatics                  6.85996075 [mEh]       4.30469054 [kcal/mol]      18.01082696 [kJ/mol]
      Elst10,r                      6.85996075 [mEh]       4.30469054 [kcal/mol]      18.01082696 [kJ/mol]

    Exchange                        8.30650815 [mEh]       5.21241277 [kcal/mol]      21.80873714 [kJ/mol]
      Exch10                        8.30650815 [mEh]       5.21241277 [kcal/mol]      21.80873714 [kJ/mol]
      Exch10(S^2)                   8.26089325 [mEh]       5.18378899 [kcal/mol]      21.68897523 [kJ/mol]

    Induction                      -1.64992615 [mEh]      -1.03534434 [kcal/mol]      -4.33188111 [kJ/mol]
      Ind20,r                      -3.02503853 [mEh]      -1.89824042 [kcal/mol]      -7.94223866 [kJ/mol]
      Exch-Ind20,r                  1.98169676 [mEh]       1.24353354 [kcal/mol]       5.20294485 [kJ/mol]
      delta HF,r (2)               -0.60658438 [mEh]      -0.38063746 [kcal/mol]      -1.59258730 [kJ/mol]
      Induction (A<-B)             -1.36639174 [mEh]      -0.85742380 [kcal/mol]      -3.58746151 [kJ/mol]
      Induction (B<-A)             -0.28353441 [mEh]      -0.17792054 [kcal/mol]      -0.74441960 [kJ/mol]

    Dispersion                     -2.24845990 [mEh]      -1.41092995 [kcal/mol]      -5.90333148 [kJ/mol]
      Disp20                       -2.77242124 [mEh]      -1.73972067 [kcal/mol]      -7.27899196 [kJ/mol]
      Exch-Disp20                   0.52396134 [mEh]       0.32879072 [kcal/mol]       1.37566049 [kJ/mol]

  Total HF                         13.51654275 [mEh]       8.48175898 [kcal/mol]      35.48768299 [kJ/mol]
  Total SAPT0                      11.26808285 [mEh]       7.07082903 [kcal/mol]      29.58435151 [kJ/mol]

  --------------------------------------------------------------------------------------------------------
    Han Solo: This is *not* gonna work.
    Luke Skywalker: Why didn't you say so before?
    Han Solo: I *did* say so before.

*** tstop() called on vega05.cac.cornell.edu at Wed Oct 18 19:21:32 2017
Module time:
	user time   =    2059.47 seconds =      34.32 minutes
	system time =      12.85 seconds =       0.21 minutes
	total time  =         95 seconds =       1.58 minutes
Total time:
	user time   =    2847.38 seconds =      47.46 minutes
	system time =      19.58 seconds =       0.33 minutes
	total time  =        140 seconds =       2.33 minutes

*** Psi4 exiting successfully. Buy a developer a beer!
