
    -----------------------------------------------------------------------
          Psi4: An Open-Source Ab Initio Electronic Structure Package
                               Psi4 1.1 release

                         Git: Rev {HEAD} add49b9 


    R. M. Parrish, L. A. Burns, D. G. A. Smith, A. C. Simmonett,
    A. E. DePrince III, E. G. Hohenstein, U. Bozkaya, A. Yu. Sokolov,
    R. Di Remigio, R. M. Richard, J. F. Gonthier, A. M. James,
    H. R. McAlexander, A. Kumar, M. Saitow, X. Wang, B. P. Pritchard,
    P. Verma, H. F. Schaefer III, K. Patkowski, R. A. King, E. F. Valeev,
    F. A. Evangelista, J. M. Turney, T. D. Crawford, and C. D. Sherrill,
    J. Chem. Theory Comput. in press (2017).
    (doi: 10.1021/acs.jctc.7b00174)

    -----------------------------------------------------------------------


    Psi4 started on: Wednesday, 18 October 2017 07:21PM

    Process ID:  53220
    PSIDATADIR: /opt/software/psi4/psi4conda/share/psi4
    Memory:     500.0 MiB
    Threads:    48
    
  ==> Input File <==

--------------------------------------------------------------------------
memory 750000 mb

molecule mol {
0 1
C          1.05672        2.63656       -0.72519
H          1.98084        2.98365       -1.19168
H          0.29744        2.53831       -1.50323
H          0.72699        3.38770       -0.00317
--
0 1
C         -1.21327        0.96990       -0.07677
O         -1.57720        0.49442       -1.12327
O         -1.89143        1.94548        0.57034
C         -3.09333        2.40773       -0.07301
H         -2.86046        2.85517       -1.04067
H         -3.51605        3.15013        0.60029
H         -3.78899        1.58031       -0.21958
--
0 1
C          0.06118        0.63828        0.66607
C          0.48264       -0.87056        0.63556
C          1.30152        1.31111       -0.03803
C          2.47024        1.28634        0.97918
C          2.87218       -0.20996        0.95099
C          1.87058       -0.80015       -0.08286
O          1.68965        0.31021       -0.98511
H         -0.04726        1.00553        1.68489
H          0.61264       -1.21537        1.66468
H          3.28025        1.92430        0.61997
H          2.17302        1.64546        1.96637
H          3.89069       -0.33873        0.58106
H          2.80652       -0.70092        1.92428
C          2.38310       -2.01604       -0.82361
H          3.38400       -1.80580       -1.20818
H          2.44604       -2.87318       -0.14769
H          1.72504       -2.28237       -1.64637
C         -0.57623       -1.79746        0.05551
O         -0.47582       -2.54961       -0.87645
O         -1.69585       -1.70514        0.81657
C         -2.84012       -2.43366        0.33612
H         -2.62543       -3.50226        0.28859
H         -3.11813       -2.07470       -0.65608
H         -3.63334       -2.23501        1.05391

symmetry c1
no_reorient
no_com
}

set {
basis jun-cc-pvdz
scf_type df
guess sad
freeze_core true
}

energy('fisapt0')
--------------------------------------------------------------------------

  Memory set to 698.492 GiB by Python driver.

*** tstart() called on vega05.cac.cornell.edu
*** at Wed Oct 18 19:21:33 2017

   => Loading Basis Set <=

    Name: JUN-CC-PVDZ
    Role: ORBITAL
    Keyword: BASIS
    atoms 1, 5, 8, 12-17, 25, 29, 32     entry C          line   157 file /opt/software/psi4/psi4conda/share/psi4/basis/jun-cc-pvdz.gbs 
    atoms 2-4, 9-11, 19-24, 26-28, 33-35 entry H          line    35 file /opt/software/psi4/psi4conda/share/psi4/basis/jun-cc-pvdz.gbs 
    atoms 6-7, 18, 30-31                 entry O          line   225 file /opt/software/psi4/psi4conda/share/psi4/basis/jun-cc-pvdz.gbs 


         ---------------------------------------------------------
                                   SCF
            by Justin Turney, Rob Parrish, and Andy Simmonett
                              RHF Reference
                       48 Threads, 715255 MiB Core
         ---------------------------------------------------------

  ==> Geometry <==

    Molecular point group: c1
    Full point group: C1

    Geometry (in Angstrom), charge = 0, multiplicity = 1:

       Center              X                  Y                   Z               Mass       
    ------------   -----------------  -----------------  -----------------  -----------------
           C          1.056720000000     2.636560000000    -0.725190000000    12.000000000000
           H          1.980840000000     2.983650000000    -1.191680000000     1.007825032070
           H          0.297440000000     2.538310000000    -1.503230000000     1.007825032070
           H          0.726990000000     3.387700000000    -0.003170000000     1.007825032070
           C         -1.213270000000     0.969900000000    -0.076770000000    12.000000000000
           O         -1.577200000000     0.494420000000    -1.123270000000    15.994914619560
           O         -1.891430000000     1.945480000000     0.570340000000    15.994914619560
           C         -3.093330000000     2.407730000000    -0.073010000000    12.000000000000
           H         -2.860460000000     2.855170000000    -1.040670000000     1.007825032070
           H         -3.516050000000     3.150130000000     0.600290000000     1.007825032070
           H         -3.788990000000     1.580310000000    -0.219580000000     1.007825032070
           C          0.061180000000     0.638280000000     0.666070000000    12.000000000000
           C          0.482640000000    -0.870560000000     0.635560000000    12.000000000000
           C          1.301520000000     1.311110000000    -0.038030000000    12.000000000000
           C          2.470240000000     1.286340000000     0.979180000000    12.000000000000
           C          2.872180000000    -0.209960000000     0.950990000000    12.000000000000
           C          1.870580000000    -0.800150000000    -0.082860000000    12.000000000000
           O          1.689650000000     0.310210000000    -0.985110000000    15.994914619560
           H         -0.047260000000     1.005530000000     1.684890000000     1.007825032070
           H          0.612640000000    -1.215370000000     1.664680000000     1.007825032070
           H          3.280250000000     1.924300000000     0.619970000000     1.007825032070
           H          2.173020000000     1.645460000000     1.966370000000     1.007825032070
           H          3.890690000000    -0.338730000000     0.581060000000     1.007825032070
           H          2.806520000000    -0.700920000000     1.924280000000     1.007825032070
           C          2.383100000000    -2.016040000000    -0.823610000000    12.000000000000
           H          3.384000000000    -1.805800000000    -1.208180000000     1.007825032070
           H          2.446040000000    -2.873180000000    -0.147690000000     1.007825032070
           H          1.725040000000    -2.282370000000    -1.646370000000     1.007825032070
           C         -0.576230000000    -1.797460000000     0.055510000000    12.000000000000
           O         -0.475820000000    -2.549610000000    -0.876450000000    15.994914619560
           O         -1.695850000000    -1.705140000000     0.816570000000    15.994914619560
           C         -2.840120000000    -2.433660000000     0.336120000000    12.000000000000
           H         -2.625430000000    -3.502260000000     0.288590000000     1.007825032070
           H         -3.118130000000    -2.074700000000    -0.656080000000     1.007825032070
           H         -3.633340000000    -2.235010000000     1.053910000000     1.007825032070

  Running in c1 symmetry.

  Rotational constants: A =      0.02018  B =      0.01667  C =      0.01072 [cm^-1]
  Rotational constants: A =    604.96769  B =    499.62007  C =    321.44595 [MHz]
  Nuclear repulsion = 1397.765449108549547

  Charge       = 0
  Multiplicity = 1
  Electrons    = 130
  Nalpha       = 65
  Nbeta        = 65

  ==> Algorithm <==

  SCF Algorithm Type is DF.
  DIIS enabled.
  MOM disabled.
  Fractional occupation disabled.
  Guess Type is SAD.
  Energy threshold   = 1.00e-08
  Density threshold  = 1.00e-08
  Integral threshold = 0.00e+00

  ==> Primary Basis <==

  Basis Set: JUN-CC-PVDZ
    Blend: JUN-CC-PVDZ
    Number of shells: 190
    Number of basis function: 396
    Number of Cartesian functions: 413
    Spherical Harmonics?: true
    Max angular momentum: 2

   => Loading Basis Set <=

    Name: (JUN-CC-PVDZ AUX)
    Role: JKFIT
    Keyword: DF_BASIS_SCF
    atoms 1, 5, 8, 12-17, 25, 29, 32     entry C          line   145 file /opt/software/psi4/psi4conda/share/psi4/basis/jun-cc-pvdz-jkfit.gbs 
    atoms 2-4, 9-11, 19-24, 26-28, 33-35 entry H          line    69 file /opt/software/psi4/psi4conda/share/psi4/basis/jun-cc-pvdz-jkfit.gbs 
    atoms 6-7, 18, 30-31                 entry O          line   257 file /opt/software/psi4/psi4conda/share/psi4/basis/jun-cc-pvdz-jkfit.gbs 

  ==> Pre-Iterations <==

   -------------------------------------------------------
    Irrep   Nso     Nmo     Nalpha   Nbeta   Ndocc  Nsocc
   -------------------------------------------------------
     A        396     396       0       0       0       0
   -------------------------------------------------------
    Total     396     396      65      65      65       0
   -------------------------------------------------------

  ==> Integral Setup <==

  ==> DFJK: Density-Fitted J/K Matrices <==

    J tasked:                  Yes
    K tasked:                  Yes
    wK tasked:                  No
    OpenMP threads:             48
    Integrals threads:          48
    Memory (MB):            536441
    Algorithm:                Core
    Integral Cache:           NONE
    Schwarz Cutoff:          1E-12
    Fitting Condition:       1E-12

   => Auxiliary Basis Set <=

  Basis Set: (JUN-CC-PVDZ AUX)
    Blend: JUN-CC-PVDZ-JKFIT
    Number of shells: 621
    Number of basis function: 1757
    Number of Cartesian functions: 1997
    Spherical Harmonics?: true
    Max angular momentum: 3

  Minimum eigenvalue in the overlap matrix is 6.1448840301E-06.
  Using Symmetric Orthogonalization.

  SCF Guess: Superposition of Atomic Densities via on-the-fly atomic UHF.

  ==> Iterations <==

                           Total Energy        Delta E     RMS |[F,P]|

   @DF-RHF iter   0:  -846.81067492632440   -8.46811e+02   1.29968e-01 
   @DF-RHF iter   1:  -838.79897945351718    8.01170e+00   1.38335e-02 
   @DF-RHF iter   2:  -839.21613937322763   -4.17160e-01   5.52909e-03 DIIS
   @DF-RHF iter   3:  -839.29197446963587   -7.58351e-02   2.72849e-03 DIIS
   @DF-RHF iter   4:  -839.30825581965939   -1.62814e-02   7.23163e-04 DIIS
   @DF-RHF iter   5:  -839.30969038450371   -1.43456e-03   2.23430e-04 DIIS
   @DF-RHF iter   6:  -839.30998416027001   -2.93776e-04   9.30266e-05 DIIS
   @DF-RHF iter   7:  -839.31003929595215   -5.51357e-05   3.82375e-05 DIIS
   @DF-RHF iter   8:  -839.31005052386809   -1.12279e-05   1.78408e-05 DIIS
   @DF-RHF iter   9:  -839.31005284362425   -2.31976e-06   6.66049e-06 DIIS
   @DF-RHF iter  10:  -839.31005320977624   -3.66152e-07   2.93690e-06 DIIS
   @DF-RHF iter  11:  -839.31005326201841   -5.22422e-08   1.28534e-06 DIIS
   @DF-RHF iter  12:  -839.31005326819513   -6.17672e-09   3.80261e-07 DIIS
   @DF-RHF iter  13:  -839.31005326903517   -8.40032e-10   1.05040e-07 DIIS
   @DF-RHF iter  14:  -839.31005326914351   -1.08344e-10   6.23597e-08 DIIS
   @DF-RHF iter  15:  -839.31005326916227   -1.87583e-11   1.86200e-08 DIIS
   @DF-RHF iter  16:  -839.31005326915852    3.75167e-12   7.67324e-09 DIIS

  ==> Post-Iterations <==

    Orbital Energies (a.u.)
    -----------------------

    Doubly Occupied:                                                      

       1A    -20.613798     2A    -20.603356     3A    -20.560868  
       4A    -20.555321     5A    -20.549604     6A    -11.391235  
       7A    -11.386735     8A    -11.303776     9A    -11.298060  
      10A    -11.296553    11A    -11.288584    12A    -11.264755  
      13A    -11.264127    14A    -11.237897    15A    -11.235507  
      16A    -11.230616    17A    -11.214345    18A     -1.469073  
      19A     -1.458765    20A     -1.399990    21A     -1.367351  
      22A     -1.360507    23A     -1.113839    24A     -1.075110  
      25A     -1.050585    26A     -0.995649    27A     -0.974914  
      28A     -0.963818    29A     -0.908399    30A     -0.872307  
      31A     -0.813978    32A     -0.784903    33A     -0.762881  
      34A     -0.755791    35A     -0.716633    36A     -0.691249  
      37A     -0.688058    38A     -0.678340    39A     -0.667826  
      40A     -0.665067    41A     -0.654214    42A     -0.643538  
      43A     -0.624994    44A     -0.597590    45A     -0.588246  
      46A     -0.580250    47A     -0.575989    48A     -0.562933  
      49A     -0.555000    50A     -0.543927    51A     -0.539717  
      52A     -0.533713    53A     -0.525600    54A     -0.507866  
      55A     -0.502042    56A     -0.501521    57A     -0.494517  
      58A     -0.483776    59A     -0.473586    60A     -0.465211  
      61A     -0.464428    62A     -0.457172    63A     -0.445617  
      64A     -0.423354    65A     -0.420095  

    Virtual:                                                              

      66A      0.048623    67A      0.054572    68A      0.056485  
      69A      0.066293    70A      0.070046    71A      0.076926  
      72A      0.083994    73A      0.091949    74A      0.095395  
      75A      0.099574    76A      0.109547    77A      0.113357  
      78A      0.115290    79A      0.121315    80A      0.127158  
      81A      0.130269    82A      0.133412    83A      0.142994  
      84A      0.143351    85A      0.155359    86A      0.161783  
      87A      0.165557    88A      0.168850    89A      0.173472  
      90A      0.177940    91A      0.184505    92A      0.188461  
      93A      0.192467    94A      0.197752    95A      0.199954  
      96A      0.206451    97A      0.209459    98A      0.217405  
      99A      0.224689   100A      0.228235   101A      0.232853  
     102A      0.236854   103A      0.244067   104A      0.246886  
     105A      0.255254   106A      0.257663   107A      0.259583  
     108A      0.262029   109A      0.267502   110A      0.271772  
     111A      0.280875   112A      0.288980   113A      0.291268  
     114A      0.293780   115A      0.303359   116A      0.309591  
     117A      0.316262   118A      0.320517   119A      0.324528  
     120A      0.330415   121A      0.339084   122A      0.341928  
     123A      0.347769   124A      0.349674   125A      0.358067  
     126A      0.360664   127A      0.371420   128A      0.374799  
     129A      0.377978   130A      0.386997   131A      0.390247  
     132A      0.394525   133A      0.401004   134A      0.401276  
     135A      0.403178   136A      0.407145   137A      0.415783  
     138A      0.419062   139A      0.423464   140A      0.430086  
     141A      0.433200   142A      0.437479   143A      0.438540  
     144A      0.448103   145A      0.454404   146A      0.457059  
     147A      0.466581   148A      0.469271   149A      0.484125  
     150A      0.492472   151A      0.497617   152A      0.504996  
     153A      0.510931   154A      0.519515   155A      0.521497  
     156A      0.537446   157A      0.540473   158A      0.543905  
     159A      0.545368   160A      0.559537   161A      0.567448  
     162A      0.569081   163A      0.596026   164A      0.603118  
     165A      0.606903   166A      0.608631   167A      0.633281  
     168A      0.642559   169A      0.662953   170A      0.719936  
     171A      0.726481   172A      0.750998   173A      0.769684  
     174A      0.777258   175A      0.782697   176A      0.807245  
     177A      0.809276   178A      0.815259   179A      0.830246  
     180A      0.840322   181A      0.847565   182A      0.866094  
     183A      0.873868   184A      0.884746   185A      0.896996  
     186A      0.905034   187A      0.910024   188A      0.917619  
     189A      0.923861   190A      0.925334   191A      0.931784  
     192A      0.934283   193A      0.937656   194A      0.944420  
     195A      0.948767   196A      0.955321   197A      0.962471  
     198A      0.966552   199A      0.975366   200A      0.978704  
     201A      0.983714   202A      0.985735   203A      0.993536  
     204A      0.998009   205A      1.004371   206A      1.010637  
     207A      1.020746   208A      1.031485   209A      1.043768  
     210A      1.049864   211A      1.065586   212A      1.069266  
     213A      1.080067   214A      1.093757   215A      1.099245  
     216A      1.106191   217A      1.115160   218A      1.120170  
     219A      1.129987   220A      1.132435   221A      1.141398  
     222A      1.166456   223A      1.184366   224A      1.187394  
     225A      1.241208   226A      1.247052   227A      1.259160  
     228A      1.278780   229A      1.285828   230A      1.313539  
     231A      1.328404   232A      1.353801   233A      1.364945  
     234A      1.381780   235A      1.415781   236A      1.440634  
     237A      1.445439   238A      1.457098   239A      1.478368  
     240A      1.498306   241A      1.505887   242A      1.519192  
     243A      1.526397   244A      1.535286   245A      1.550561  
     246A      1.557981   247A      1.566952   248A      1.588838  
     249A      1.599759   250A      1.612841   251A      1.616313  
     252A      1.627151   253A      1.637303   254A      1.639111  
     255A      1.651350   256A      1.660847   257A      1.678340  
     258A      1.680459   259A      1.682007   260A      1.692300  
     261A      1.700963   262A      1.702131   263A      1.725899  
     264A      1.734416   265A      1.751823   266A      1.767623  
     267A      1.775348   268A      1.788503   269A      1.803837  
     270A      1.814436   271A      1.826586   272A      1.842865  
     273A      1.846858   274A      1.871969   275A      1.880514  
     276A      1.900077   277A      1.903850   278A      1.907425  
     279A      1.911461   280A      1.921761   281A      1.937552  
     282A      1.952487   283A      1.959266   284A      1.964707  
     285A      1.967449   286A      1.973726   287A      1.981290  
     288A      1.988176   289A      1.995589   290A      2.005822  
     291A      2.019265   292A      2.022254   293A      2.033435  
     294A      2.037941   295A      2.046539   296A      2.048274  
     297A      2.057445   298A      2.062204   299A      2.075958  
     300A      2.079054   301A      2.093439   302A      2.097108  
     303A      2.112195   304A      2.125130   305A      2.143788  
     306A      2.145151   307A      2.157978   308A      2.169767  
     309A      2.176172   310A      2.184946   311A      2.194306  
     312A      2.213615   313A      2.227612   314A      2.252906  
     315A      2.264204   316A      2.277232   317A      2.281580  
     318A      2.283306   319A      2.302019   320A      2.318035  
     321A      2.326489   322A      2.354148   323A      2.362478  
     324A      2.386639   325A      2.392205   326A      2.402368  
     327A      2.404858   328A      2.410686   329A      2.426165  
     330A      2.435632   331A      2.440064   332A      2.445235  
     333A      2.459769   334A      2.470310   335A      2.499218  
     336A      2.515660   337A      2.536829   338A      2.556929  
     339A      2.588171   340A      2.607835   341A      2.621715  
     342A      2.639444   343A      2.680750   344A      2.692429  
     345A      2.733709   346A      2.752930   347A      2.761911  
     348A      2.773252   349A      2.789210   350A      2.794106  
     351A      2.800453   352A      2.805829   353A      2.819286  
     354A      2.854314   355A      2.864528   356A      2.873621  
     357A      2.874140   358A      2.879451   359A      2.891413  
     360A      2.896735   361A      2.904146   362A      2.915981  
     363A      2.935649   364A      2.941340   365A      2.963548  
     366A      2.972752   367A      2.989084   368A      3.013105  
     369A      3.028967   370A      3.062335   371A      3.071596  
     372A      3.113970   373A      3.130531   374A      3.176683  
     375A      3.261071   376A      3.266162   377A      3.304330  
     378A      3.312601   379A      3.371851   380A      3.390905  
     381A      3.416047   382A      3.432898   383A      3.516812  
     384A      3.533053   385A      3.570495   386A      3.599876  
     387A      3.680693   388A      3.693509   389A      3.747171  
     390A      3.784315   391A      3.792683   392A      3.908949  
     393A      3.962406   394A      3.983566   395A      4.101586  
     396A      4.113334  

    Final Occupation by Irrep:
              A 
    DOCC [    65 ]

  Energy converged.

  @DF-RHF Final Energy:  -839.31005326915852

   => Energetics <=

    Nuclear Repulsion Energy =           1397.7654491085495465
    One-Electron Energy =               -3926.7608712656237913
    Two-Electron Energy =                1689.6853688879157289
    DFT Exchange-Correlation Energy =       0.0000000000000000
    Empirical Dispersion Energy =           0.0000000000000000
    PCM Polarization Energy =               0.0000000000000000
    EFP Energy =                            0.0000000000000000
    Total Energy =                       -839.3100532691585158



Properties will be evaluated at   0.000000,   0.000000,   0.000000 Bohr

Properties computed using the SCF density matrix

  Nuclear Dipole Moment: (a.u.)
     X:     1.4737      Y:    -2.3855      Z:     1.5265

  Electronic Dipole Moment: (a.u.)
     X:    -1.6979      Y:     3.2393      Z:     0.0268

  Dipole Moment: (a.u.)
     X:    -0.2242      Y:     0.8538      Z:     1.5533     Total:     1.7866

  Dipole Moment: (Debye)
     X:    -0.5698      Y:     2.1701      Z:     3.9481     Total:     4.5411


*** tstop() called on vega05.cac.cornell.edu at Wed Oct 18 19:22:20 2017
Module time:
	user time   =     798.52 seconds =      13.31 minutes
	system time =       6.91 seconds =       0.12 minutes
	total time  =         47 seconds =       0.78 minutes
Total time:
	user time   =     798.52 seconds =      13.31 minutes
	system time =       6.91 seconds =       0.12 minutes
	total time  =         47 seconds =       0.78 minutes
   => Loading Basis Set <=

    Name: (JUN-CC-PVDZ AUX)
    Role: JKFIT
    Keyword: DF_BASIS_SCF
    atoms 1, 5, 8, 12-17, 25, 29, 32     entry C          line   145 file /opt/software/psi4/psi4conda/share/psi4/basis/jun-cc-pvdz-jkfit.gbs 
    atoms 2-4, 9-11, 19-24, 26-28, 33-35 entry H          line    69 file /opt/software/psi4/psi4conda/share/psi4/basis/jun-cc-pvdz-jkfit.gbs 
    atoms 6-7, 18, 30-31                 entry O          line   257 file /opt/software/psi4/psi4conda/share/psi4/basis/jun-cc-pvdz-jkfit.gbs 

   => Loading Basis Set <=

    Name: (JUN-CC-PVDZ AUX)
    Role: RIFIT
    Keyword: DF_BASIS_SAPT
    atoms 1, 5, 8, 12-17, 25, 29, 32     entry C          line    99 file /opt/software/psi4/psi4conda/share/psi4/basis/jun-cc-pvdz-ri.gbs 
    atoms 2-4, 9-11, 19-24, 26-28, 33-35 entry H          line    29 file /opt/software/psi4/psi4conda/share/psi4/basis/jun-cc-pvdz-ri.gbs 
    atoms 6-7, 18, 30-31                 entry O          line   187 file /opt/software/psi4/psi4conda/share/psi4/basis/jun-cc-pvdz-ri.gbs 

   => Loading Basis Set <=

    Name: CC-PVTZ-MINAO
    Role: ORBITAL
    Keyword: BASIS
    atoms 1, 5, 8, 12-17, 25, 29, 32     entry C          line   130 file /opt/software/psi4/psi4conda/share/psi4/basis/cc-pvtz-minao.gbs 
    atoms 2-4, 9-11, 19-24, 26-28, 33-35 entry H          line    19 file /opt/software/psi4/psi4conda/share/psi4/basis/cc-pvtz-minao.gbs 
    atoms 6-7, 18, 30-31                 entry O          line   190 file /opt/software/psi4/psi4conda/share/psi4/basis/cc-pvtz-minao.gbs 


*** tstart() called on vega05.cac.cornell.edu
*** at Wed Oct 18 19:22:22 2017

	 --------------------------------------------
	                    FISAPT0                  
	                  Rob Parrish                
	 --------------------------------------------

    Do F-SAPT =         Yes
    Do Plot   =          No
    Memory    =      78.580 [GD]

  ==> Localization (IBO) <==

  ==> IBO Localizer 2 <==

    MinAO Basis = CC-PVTZ-MINAO
    Use Ghosts  =       FALSE
    Use Stars   =       FALSE
    Condition   =   1.000E-07
    Power       =           4
    Convergence =   1.000E-12
    Maxiter     =        1000

    @IBO Iter:                   Metric       Gradient
    @IBO    1:   1.9917692514161192E+00   2.655260E+00
    @IBO    2:   2.2585073312567210E+00   2.358717E+00
    @IBO    3:   2.3481039114576756E+00   1.028442E+00
    @IBO    4:   2.3585546901433698E+00   1.471832E-01
    @IBO    5:   2.3589093471184430E+00   2.380522E-03
    @IBO    6:   2.3589094313062420E+00   4.082002E-05
    @IBO    7:   2.3589094313282457E+00   1.386525E-06
    @IBO    8:   2.3589094313282724E+00   6.283220E-08
    @IBO    9:   2.3589094313282724E+00   3.087553E-09
    @IBO   10:   2.3589094313282724E+00   1.481900E-10
    @IBO   11:   2.3589094313282724E+00   7.087207E-12
    @IBO   12:   2.3589094313282724E+00   3.365269E-13

    IBO Localizer 2 converged.

  ==> Partitioning <==

   => Atomic Partitioning <= 

    Monomer A:   4 atoms
    Monomer B:   7 atoms
    Monomer C:  24 atoms

   => Link Bond Identification <=

    Link Bond Selection = AUTOMATIC

    Charge Completeness = 0.800

    Total Link Bonds = 2

    --------------------------
    N     Orb Type Aind1 Aind2
    --------------------------
    1      23   BC     5    12
    2      28   AC     1    14
    --------------------------

   => Link Bond Assignment <=

    Link Bond Assignment      = C

   => Partition Summary <=

    Monomer A:  0 charge,   8 protons,   8 electrons,   4 docc
    Monomer B:  0 charge,  30 protons,  30 electrons,  15 docc
    Monomer C:  0 charge,  92 protons,  92 electrons,  46 docc

  ==> Overlap Integrals <==

  ==> Kinetic Integrals <==

  ==> Nuclear Integrals <==

    Nuclear Repulsion Tot:   1.3977654491085500E+03 [Eh]

  ==> Coulomb Integrals <==

  ==> DFJK: Density-Fitted J/K Matrices <==

    J tasked:                  Yes
    K tasked:                  Yes
    wK tasked:                  No
    OpenMP threads:             48
    Integrals threads:          48
    Memory (MB):            643730
    Algorithm:                Core
    Integral Cache:           NONE
    Schwarz Cutoff:          1E-12
    Fitting Condition:       1E-12

   => Auxiliary Basis Set <=

  Basis Set: (JUN-CC-PVDZ AUX)
    Blend: JUN-CC-PVDZ-JKFIT
    Number of shells: 621
    Number of basis function: 1757
    Number of Cartesian functions: 1997
    Spherical Harmonics?: true
    Max angular momentum: 3

  ==> Relaxed SCF Equations <==

  ==> SCF A: <==

    Maxiter =          50
    E Tol   =   1.000E-06
    D Tol   =   1.000E-08

    Max DIIS Vectors = 5

    Iter   N:                        E          dE         |D|
    Iter   1:  -3.6211468114629064E+01  -3.621E+01   1.649E-03 
    Iter   2:  -3.6213630604320244E+01  -2.162E-03   1.297E-04 DIIS
    Iter   3:  -3.6213676471077193E+01  -4.587E-05   2.487E-05 DIIS
    Iter   4:  -3.6213678911787852E+01  -2.441E-06   7.511E-06 DIIS
    Iter   5:  -3.6213679074696394E+01  -1.629E-07   1.414E-06 DIIS
    Iter   6:  -3.6213679082535336E+01  -7.839E-09   2.098E-07 DIIS
    Iter   7:  -3.6213679082715956E+01  -1.806E-10   2.796E-08 DIIS
    Iter   8:  -3.6213679082718386E+01  -2.430E-12   3.651E-09 DIIS

    FISAPTSCF Converged.

    Final SCF Energy:  -3.6213679082718386E+01 [Eh]

   => Occupied Orbital Energies <=

       1  -11.221858     2   -0.838542     3   -0.550548  
       4   -0.546071  

   => Virtual Orbital Energies <=

       5    0.029129     6    0.054539     7    0.058121  
       8    0.065418     9    0.067710    10    0.074535  
      11    0.080099    12    0.083808    13    0.090535  
      14    0.094867    15    0.103519    16    0.109406  
      17    0.110543    18    0.119595    19    0.124645  
      20    0.127914    21    0.129690    22    0.139169  
      23    0.139705    24    0.144102    25    0.155129  
      26    0.159876    27    0.167301    28    0.170456  
      29    0.174836    30    0.179958    31    0.185335  
      32    0.188512    33    0.191790    34    0.197770  
      35    0.200973    36    0.206794    37    0.214038  
      38    0.219340    39    0.231368    40    0.233710  
      41    0.237117    42    0.242855    43    0.246106  
      44    0.257419    45    0.258804    46    0.260637  
      47    0.263556    48    0.266801    49    0.275750  
      50    0.280406    51    0.284120    52    0.285919  
      53    0.294552    54    0.301946    55    0.306655  
      56    0.312610    57    0.325231    58    0.329999  
      59    0.331702    60    0.338107    61    0.342447  
      62    0.342827    63    0.349719    64    0.362015  
      65    0.362750    66    0.366997    67    0.370032  
      68    0.375521    69    0.378445    70    0.387677  
      71    0.392854    72    0.396218    73    0.402054  
      74    0.408390    75    0.411438    76    0.419770  
      77    0.419846    78    0.424830    79    0.432078  
      80    0.434241    81    0.445715    82    0.450054  
      83    0.457363    84    0.461363    85    0.465353  
      86    0.469878    87    0.479808    88    0.493065  
      89    0.499062    90    0.510424    91    0.513328  
      92    0.519975    93    0.526938    94    0.535602  
      95    0.542139    96    0.545441    97    0.561260  
      98    0.565595    99    0.577339   100    0.584378  
     101    0.598443   102    0.608744   103    0.612569  
     104    0.624619   105    0.629949   106    0.634415  
     107    0.644136   108    0.652224   109    0.658081  
     110    0.705326   111    0.709052   112    0.735039  
     113    0.756153   114    0.777841   115    0.794191  
     116    0.804393   117    0.824794   118    0.833500  
     119    0.844413   120    0.855405   121    0.865159  
     122    0.871032   123    0.888901   124    0.904931  
     125    0.912670   126    0.918998   127    0.922260  
     128    0.930273   129    0.935168   130    0.944951  
     131    0.949076   132    0.952844   133    0.956357  
     134    0.959084   135    0.967018   136    0.976254  
     137    0.981720   138    0.986381   139    0.994434  
     140    1.005204   141    1.010420   142    1.024651  
     143    1.027289   144    1.035731   145    1.037975  
     146    1.059540   147    1.063303   148    1.065326  
     149    1.083210   150    1.093019   151    1.099176  
     152    1.101507   153    1.109370   154    1.125645  
     155    1.130800   156    1.135368   157    1.144098  
     158    1.165673   159    1.174654   160    1.178562  
     161    1.189208   162    1.194840   163    1.232374  
     164    1.241763   165    1.274388   166    1.303816  
     167    1.335627   168    1.341217   169    1.352588  
     170    1.374108   171    1.399016   172    1.419742  
     173    1.448922   174    1.469319   175    1.488089  
     176    1.500957   177    1.505553   178    1.525257  
     179    1.545165   180    1.552327   181    1.564430  
     182    1.569777   183    1.576517   184    1.586106  
     185    1.599235   186    1.625335   187    1.641837  
     188    1.651263   189    1.656972   190    1.670871  
     191    1.674968   192    1.687777   193    1.696909  
     194    1.713109   195    1.723233   196    1.737841  
     197    1.746693   198    1.765732   199    1.769980  
     200    1.780316   201    1.790411   202    1.810493  
     203    1.811870   204    1.821508   205    1.836481  
     206    1.843746   207    1.867991   208    1.874864  
     209    1.891777   210    1.907813   211    1.924321  
     212    1.931432   213    1.941869   214    1.949549  
     215    1.955526   216    1.975738   217    1.976764  
     218    1.979785   219    1.994622   220    1.999488  
     221    2.009228   222    2.013229   223    2.023369  
     224    2.028751   225    2.032391   226    2.042917  
     227    2.062371   228    2.066314   229    2.072805  
     230    2.087805   231    2.094362   232    2.100237  
     233    2.106143   234    2.115096   235    2.130089  
     236    2.140321   237    2.144537   238    2.156919  
     239    2.166590   240    2.173656   241    2.189762  
     242    2.197860   243    2.203182   244    2.204664  
     245    2.231335   246    2.239611   247    2.270796  
     248    2.280912   249    2.291954   250    2.302536  
     251    2.310404   252    2.326798   253    2.334550  
     254    2.338822   255    2.346722   256    2.366111  
     257    2.373329   258    2.387265   259    2.395335  
     260    2.410253   261    2.420685   262    2.429401  
     263    2.443171   264    2.448266   265    2.459459  
     266    2.477497   267    2.496307   268    2.507890  
     269    2.533429   270    2.546254   271    2.560204  
     272    2.595057   273    2.615923   274    2.636394  
     275    2.641588   276    2.644093   277    2.659989  
     278    2.680465   279    2.690680   280    2.707361  
     281    2.731812   282    2.750579   283    2.774933  
     284    2.788364   285    2.795524   286    2.803313  
     287    2.824709   288    2.836119   289    2.866182  
     290    2.867023   291    2.872640   292    2.875465  
     293    2.888474   294    2.890010   295    2.897429  
     296    2.904821   297    2.924523   298    2.926534  
     299    2.931854   300    2.946128   301    2.968915  
     302    2.978233   303    2.998949   304    3.024174  
     305    3.040194   306    3.047628   307    3.077094  
     308    3.086016   309    3.122105   310    3.202330  
     311    3.270928   312    3.310790   313    3.376833  
     314    3.395995   315    3.432939   316    3.452629  
     317    3.549191   318    3.579136   319    3.640023  
     320    3.668043   321    3.701511   322    3.756690  
     323    3.794809   324    3.823096   325    3.947666  
     326    3.961924   327    3.966958   328    4.094626  
     329    4.178669   330    4.205511   331    4.440955  
     332    4.511705   333    4.546745   334    4.763085  
     335    4.941533   336    5.041660   337    5.065037  
     338    5.221962   339    5.320948   340    5.540112  
     341    5.624217   342    5.741753   343    5.870406  
     344    6.105760   345    6.329270   346    6.714268  
     347   13.376576   348   18.425925   349   33.425753  
     350   33.475973  

  ==> SCF B: <==

    Maxiter =          50
    E Tol   =   1.000E-06
    D Tol   =   1.000E-08

    Max DIIS Vectors = 5

    Iter   N:                        E          dE         |D|
    Iter   1:  -2.2427142506548708E+02  -2.243E+02   2.813E-03 
    Iter   2:  -2.2427880906422141E+02  -7.384E-03   2.472E-04 DIIS
    Iter   3:  -2.2427899943600431E+02  -1.904E-04   7.155E-05 DIIS
    Iter   4:  -2.2427900886101330E+02  -9.425E-06   3.628E-05 DIIS
    Iter   5:  -2.2427901053667196E+02  -1.676E-06   5.129E-06 DIIS
    Iter   6:  -2.2427901059877067E+02  -6.210E-08   2.057E-06 DIIS
    Iter   7:  -2.2427901060788506E+02  -9.114E-09   6.532E-07 DIIS
    Iter   8:  -2.2427901060895607E+02  -1.071E-09   1.668E-07 DIIS
    Iter   9:  -2.2427901060909116E+02  -1.351E-10   8.695E-08 DIIS
    Iter  10:  -2.2427901060911486E+02  -2.370E-11   2.387E-08 DIIS
    Iter  11:  -2.2427901060911779E+02  -2.927E-12   1.528E-08 DIIS
    Iter  12:  -2.2427901060911898E+02  -1.194E-12   4.965E-09 DIIS

    FISAPTSCF Converged.

    Final SCF Energy:  -2.2427901060911898E+02 [Eh]

   => Occupied Orbital Energies <=

       1  -20.612092     2  -20.550089     3  -11.387242  
       4  -11.298123     5   -1.441134     6   -1.360223  
       7   -0.964897     8   -0.769365     9   -0.671329  
      10   -0.666499    11   -0.625070    12   -0.545324  
      13   -0.539893    14   -0.475950    15   -0.464746  

   => Virtual Orbital Energies <=

      16    0.008775    17    0.053095    18    0.057131  
      19    0.063049    20    0.066647    21    0.077019  
      22    0.082644    23    0.089820    24    0.092194  
      25    0.097785    26    0.100991    27    0.107508  
      28    0.111365    29    0.115911    30    0.123385  
      31    0.128647    32    0.129549    33    0.136046  
      34    0.143810    35    0.146007    36    0.160807  
      37    0.165212    38    0.167081    39    0.169932  
      40    0.176252    41    0.180342    42    0.187886  
      43    0.192740    44    0.197785    45    0.200637  
      46    0.201875    47    0.211378    48    0.212252  
      49    0.221338    50    0.224336    51    0.229356  
      52    0.236028    53    0.237957    54    0.242430  
      55    0.248147    56    0.253993    57    0.262110  
      58    0.263464    59    0.268729    60    0.280094  
      61    0.283403    62    0.288271    63    0.289948  
      64    0.303091    65    0.308059    66    0.310628  
      67    0.319630    68    0.325431    69    0.325524  
      70    0.329577    71    0.339982    72    0.345601  
      73    0.353021    74    0.355526    75    0.358985  
      76    0.363755    77    0.368416    78    0.375779  
      79    0.380007    80    0.388337    81    0.389301  
      82    0.393322    83    0.399683    84    0.407482  
      85    0.409668    86    0.413583    87    0.415951  
      88    0.425193    89    0.431921    90    0.434311  
      91    0.438970    92    0.440471    93    0.445131  
      94    0.453820    95    0.455807    96    0.470920  
      97    0.471727    98    0.475714    99    0.483799  
     100    0.499312   101    0.503854   102    0.508871  
     103    0.518135   104    0.525786   105    0.530623  
     106    0.545974   107    0.547344   108    0.557426  
     109    0.561103   110    0.572840   111    0.575880  
     112    0.582778   113    0.587128   114    0.594499  
     115    0.621292   116    0.624554   117    0.633919  
     118    0.644134   119    0.651742   120    0.663109  
     121    0.679418   122    0.689759   123    0.737882  
     124    0.755307   125    0.769647   126    0.788406  
     127    0.796493   128    0.802667   129    0.832636  
     130    0.836915   131    0.843357   132    0.857393  
     133    0.870207   134    0.888438   135    0.892089  
     136    0.905164   137    0.909141   138    0.918522  
     139    0.926704   140    0.936476   141    0.937552  
     142    0.947018   143    0.951793   144    0.956070  
     145    0.958552   146    0.965028   147    0.971308  
     148    0.979676   149    0.983815   150    0.986691  
     151    0.999785   152    1.004909   153    1.012041  
     154    1.024054   155    1.027618   156    1.031928  
     157    1.038542   158    1.059559   159    1.063628  
     160    1.079014   161    1.088245   162    1.097805  
     163    1.104925   164    1.112600   165    1.126300  
     166    1.135964   167    1.140360   168    1.144352  
     169    1.166598   170    1.194966   171    1.206840  
     172    1.244182   173    1.251222   174    1.262987  
     175    1.280762   176    1.303704   177    1.334413  
     178    1.344586   179    1.367912   180    1.384676  
     181    1.390157   182    1.419499   183    1.441573  
     184    1.459274   185    1.473095   186    1.473888  
     187    1.498385   188    1.501333   189    1.510002  
     190    1.528767   191    1.541055   192    1.546026  
     193    1.555731   194    1.563981   195    1.582654  
     196    1.590797   197    1.608799   198    1.618946  
     199    1.623981   200    1.630054   201    1.645220  
     202    1.658595   203    1.671952   204    1.672439  
     205    1.683537   206    1.689597   207    1.699339  
     208    1.700747   209    1.711344   210    1.715355  
     211    1.722324   212    1.745347   213    1.747506  
     214    1.757976   215    1.788359   216    1.806994  
     217    1.809863   218    1.822273   219    1.846898  
     220    1.855412   221    1.863490   222    1.872990  
     223    1.885120   224    1.897536   225    1.903848  
     226    1.914905   227    1.925129   228    1.936763  
     229    1.946443   230    1.949727   231    1.961822  
     232    1.967176   233    1.969209   234    1.975946  
     235    1.983779   236    1.998727   237    2.003673  
     238    2.010783   239    2.023919   240    2.024763  
     241    2.028153   242    2.043269   243    2.045177  
     244    2.055994   245    2.058604   246    2.078019  
     247    2.085249   248    2.096686   249    2.102041  
     250    2.112014   251    2.122149   252    2.133724  
     253    2.148555   254    2.165013   255    2.170124  
     256    2.180464   257    2.192939   258    2.201766  
     259    2.212805   260    2.225458   261    2.235545  
     262    2.255775   263    2.276944   264    2.286785  
     265    2.291744   266    2.297927   267    2.315199  
     268    2.326067   269    2.343446   270    2.364974  
     271    2.372005   272    2.386436   273    2.402129  
     274    2.406373   275    2.414612   276    2.425659  
     277    2.434394   278    2.441691   279    2.449933  
     280    2.458514   281    2.467448   282    2.489511  
     283    2.500902   284    2.502106   285    2.542017  
     286    2.564043   287    2.581843   288    2.589844  
     289    2.615539   290    2.630956   291    2.639748  
     292    2.654675   293    2.682852   294    2.721876  
     295    2.738208   296    2.755248   297    2.764690  
     298    2.785396   299    2.800075   300    2.801139  
     301    2.808263   302    2.823157   303    2.824812  
     304    2.856017   305    2.862561   306    2.877071  
     307    2.889569   308    2.898621   309    2.916014  
     310    2.922049   311    2.931943   312    2.942219  
     313    2.960099   314    2.986680   315    2.998104  
     316    3.010601   317    3.027862   318    3.048293  
     319    3.059674   320    3.076691   321    3.100333  
     322    3.126551   323    3.140306   324    3.196024  
     325    3.264488   326    3.270516   327    3.309282  
     328    3.317262   329    3.383078   330    3.396435  
     331    3.444448   332    3.459238   333    3.537138  
     334    3.563137   335    3.588615   336    3.606968  
     337    3.688657   338    3.697534   339    3.768395  
     340    3.787307   341    3.797370   342    3.896265  
     343    3.931606   344    3.967748   345    4.002095  
     346    4.107702   347    4.119583   348    4.536903  
     349    4.539374   350   13.287412  

  ==> Frozen Core <==


    ------------------
    Range      A     B
    ------------------
    nbf      396   396
    nmo      350   350
    nocc       4    15
    nvir     346   335
    nfocc      1     4
    naocc      3    11
    navir    346   335
    nfvir      0     0
    ------------------

  ==> Unification <==

  ==> dHF <==

    E ABC(HF) =  -8.3931005326915852E+02 [Eh]
    E AC(0)   =  -6.1124997135260287E+02 [Eh]
    E BC(0)   =  -7.9914561515394939E+02 [Eh]
    E A(0)    =  -2.5034679052247608E+01 [Eh]
    E B(0)    =  -2.1265317766120506E+02 [Eh]
    E AC(HF)  =  -6.1124776038451341E+02 [Eh]
    E BC(HF)  =  -7.9913802961031729E+02 [Eh]
    E AB(HF)  =  -2.3765914945225396E+02 [Eh]
    E A(HF)   =  -2.5021012198055754E+01 [Eh]
    E B(HF)   =  -2.1263860998300026E+02 [Eh]
    E C       =  -5.7107526399686810E+02 [Eh]
    E HF      =   1.0269240525644818E-02 [Eh]

  ==> Electrostatics <==

    Elst10,r            =     0.008064307947 [Eh]

  ==> Exchange <==

    Exch10(S^2)         =     0.003324652413 [Eh]
    Exch10              =     0.003330432198 [Eh]

  ==> Induction <==

    Ind20,u (A<-B)      =    -0.001145570683 [Eh]
    Ind20,u (B<-A)      =    -0.000317305806 [Eh]
    Ind20,u             =    -0.001462876489 [Eh]
    Exch-Ind20,u (A<-B) =     0.000532323052 [Eh]
    Exch-Ind20,u (B<-A) =     0.000091811054 [Eh]
    Exch-Ind20,u        =     0.000624134106 [Eh]

  ==> CPHF Iterations <==

    Maxiter     =          50
    Convergence =   1.000E-08

    -----------------------------------------
    Iter   Monomer A    Monomer B    Time [s]
    -----------------------------------------
    1      1.657E-01    2.622E-01           1
    2      2.949E-02    8.034E-02           2
    3      4.791E-03    2.702E-02           4
    4      6.605E-04    1.008E-02           5
    5      9.061E-05    3.707E-03           6
    6      1.306E-05    1.271E-03           7
    7      1.830E-06    4.391E-04           8
    8      2.353E-07    1.456E-04           9
    9      2.579E-08    4.136E-05          10
    10     2.638E-09*   1.396E-05          11
    11     2.638E-09*   4.296E-06          12
    12     2.638E-09*   1.255E-06          13
    13     2.638E-09*   3.120E-07          13
    14     2.638E-09*   7.278E-08          14
    15     2.638E-09*   1.593E-08          15
    16     2.638E-09*   4.641E-09*         15
    -----------------------------------------

    Ind20,r (A<-B)      =    -0.001347771519 [Eh]
    Ind20,r (B<-A)      =    -0.000360927806 [Eh]
    Ind20,r             =    -0.001708699326 [Eh]
    Exch-Ind20,r (A<-B) =     0.000666517386 [Eh]
    Exch-Ind20,r (B<-A) =     0.000118072680 [Eh]
    Exch-Ind20,r        =     0.000784590066 [Eh]

  ==> F-SAPT Localization (IBO) <==

  Local Orbitals for Monomer A:

  ==> IBO Localizer 2 <==

    MinAO Basis = CC-PVTZ-MINAO
    Use Ghosts  =       FALSE
    Use Stars   =       FALSE
    Condition   =   1.000E-07
    Power       =           4
    Convergence =   1.000E-12
    Maxiter     =        1000

    @IBO Iter:                   Metric       Gradient
    @IBO    1:   1.0644204144651574E+00   1.891654E-02
    @IBO    2:   1.0833686306220200E+00   2.191600E-03
    @IBO    3:   1.0833719507688664E+00   3.339506E-07
    @IBO    4:   1.0833719507689434E+00   1.733458E-10
    @IBO    5:   1.0833719507689434E+00   5.928458E-15

    IBO Localizer 2 converged.

  Local Orbitals for Monomer B:

  ==> IBO Localizer 2 <==

    MinAO Basis = CC-PVTZ-MINAO
    Use Ghosts  =       FALSE
    Use Stars   =       FALSE
    Condition   =   1.000E-07
    Power       =           4
    Convergence =   1.000E-12
    Maxiter     =        1000

    @IBO Iter:                   Metric       Gradient
    @IBO    1:   1.4813937004525568E+00   1.675569E+00
    @IBO    2:   1.6775085983855351E+00   9.357949E-01
    @IBO    3:   1.7095593594308940E+00   3.323762E-01
    @IBO    4:   1.7109416340338179E+00   3.983471E-03
    @IBO    5:   1.7109421753487530E+00   1.790544E-04
    @IBO    6:   1.7109421757508427E+00   3.090890E-06
    @IBO    7:   1.7109421757510004E+00   8.184852E-08
    @IBO    8:   1.7109421757510004E+00   1.874193E-09
    @IBO    9:   1.7109421757510006E+00   4.946665E-11
    @IBO   10:   1.7109421757510004E+00   1.602305E-12
    @IBO   11:   1.7109421757510006E+00   6.068202E-14

    IBO Localizer 2 converged.

  ==> F-SAPT Electrostatics <==

  ==> DFERI: Density Fitted 3-Index Tensors <==

    Schwarz cutoff =   0.000E+00
    J cutoff       =   1.000E-12
    Mem (GB)       =         628

   => Auxiliary Basis <=

  Basis Set: (JUN-CC-PVDZ AUX)
    Blend: JUN-CC-PVDZ-JKFIT
    Number of shells: 621
    Number of basis function: 1757
    Number of Cartesian functions: 1997
    Spherical Harmonics?: true
    Max angular momentum: 3

    Elst10,r            =     0.008064308055 [Eh]

  ==> F-SAPT Exchange <==

  ==> DFERI: Density Fitted 3-Index Tensors <==

    Schwarz cutoff =   0.000E+00
    J cutoff       =   1.000E-12
    Mem (GB)       =         628

   => Auxiliary Basis <=

  Basis Set: (JUN-CC-PVDZ AUX)
    Blend: JUN-CC-PVDZ-JKFIT
    Number of shells: 621
    Number of basis function: 1757
    Number of Cartesian functions: 1997
    Spherical Harmonics?: true
    Max angular momentum: 3

    Exch10(S^2)         =     0.003324652413 [Eh]

    Scaling F-SAPT Exch10(S^2) by   1.002E+00 to match Exch10

  ==> F-SAPT Induction <==

  ==> DFERI: Density Fitted 3-Index Tensors <==

    Schwarz cutoff =   0.000E+00
    J cutoff       =   1.000E-12
    Mem (GB)       =         628

   => Auxiliary Basis <=

  Basis Set: (JUN-CC-PVDZ AUX)
    Blend: JUN-CC-PVDZ-JKFIT
    Number of shells: 621
    Number of basis function: 1757
    Number of Cartesian functions: 1997
    Spherical Harmonics?: true
    Max angular momentum: 3

    Ind20,u (A<-B)      =    -0.001145570683 [Eh]
    Ind20,u (B<-A)      =    -0.000317305806 [Eh]
    Ind20,u             =    -0.001462876490 [Eh]
    Exch-Ind20,u (A<-B) =     0.000532323052 [Eh]
    Exch-Ind20,u (B<-A) =     0.000091811054 [Eh]
    Exch-Ind20,u        =     0.000624134106 [Eh]

    Scaling for delta HF        =   1.218E+00
    Scaling for response (A<-B) =   1.111E+00
    Scaling for response (B<-A) =   1.077E+00
    Scaling for total (A<-B)    =   1.353E+00
    Scaling for total (B<-A)    =   1.312E+00

  ==> F-SAPT Dispersion <==

  ==> DFERI: Density Fitted 3-Index Tensors <==

    Schwarz cutoff =   0.000E+00
    J cutoff       =   1.000E-12
    Mem (GB)       =         628

   => Auxiliary Basis <=

  Basis Set: (JUN-CC-PVDZ AUX)
    Blend: JUN-CC-PVDZ-RI
    Number of shells: 465
    Number of basis function: 1357
    Number of Cartesian functions: 1562
    Spherical Harmonics?: true
    Max angular momentum: 3

    Disp20              =    -0.002610246077 [Eh]
    Exch-Disp20         =     0.000259199586 [Eh]

  ==> F-SAPT Output <==

    F-SAPT Data Filepath = fsapt/

  ==> Results <==


    SAPT Results  
  --------------------------------------------------------------------------------------------------------
    Electrostatics                  8.06430795 [mEh]       5.06042985 [kcal/mol]      21.17284052 [kJ/mol]
      Elst10,r                      8.06430795 [mEh]       5.06042985 [kcal/mol]      21.17284052 [kJ/mol]

    Exchange                        3.33043220 [mEh]       2.08987784 [kcal/mol]       8.74404973 [kJ/mol]
      Exch10                        3.33043220 [mEh]       2.08987784 [kcal/mol]       8.74404973 [kJ/mol]
      Exch10(S^2)                   3.32465241 [mEh]       2.08625097 [kcal/mol]       8.72887491 [kJ/mol]

    Induction                      -1.12549962 [mEh]      -0.70626170 [kcal/mol]      -2.95499925 [kJ/mol]
      Ind20,r                      -1.70869933 [mEh]      -1.07222506 [kcal/mol]      -4.48619008 [kJ/mol]
      Exch-Ind20,r                  0.78459007 [mEh]       0.49233772 [kcal/mol]       2.05994122 [kJ/mol]
      delta HF,r (2)               -0.20139036 [mEh]      -0.12637436 [kcal/mol]      -0.52875039 [kJ/mol]
      Induction (A<-B)             -0.82971928 [mEh]      -0.52065673 [kcal/mol]      -2.17842797 [kJ/mol]
      Induction (B<-A)             -0.29578034 [mEh]      -0.18560497 [kcal/mol]      -0.77657128 [kJ/mol]

    Dispersion                     -2.35104649 [mEh]      -1.47530401 [kcal/mol]      -6.17267256 [kJ/mol]
      Disp20                       -2.61024608 [mEh]      -1.63795421 [kcal/mol]      -6.85320107 [kJ/mol]
      Exch-Disp20                   0.25919959 [mEh]       0.16265020 [kcal/mol]       0.68052851 [kJ/mol]

  Total HF                         10.26924053 [mEh]       6.44404599 [kcal/mol]      26.96189100 [kJ/mol]
  Total SAPT0                       7.91819404 [mEh]       4.96874198 [kcal/mol]      20.78921844 [kJ/mol]

  --------------------------------------------------------------------------------------------------------
    Han Solo: This is *not* gonna work.
    Luke Skywalker: Why didn't you say so before?
    Han Solo: I *did* say so before.

*** tstop() called on vega05.cac.cornell.edu at Wed Oct 18 19:23:57 2017
Module time:
	user time   =    2084.24 seconds =      34.74 minutes
	system time =      13.84 seconds =       0.23 minutes
	total time  =         95 seconds =       1.58 minutes
Total time:
	user time   =    2883.49 seconds =      48.06 minutes
	system time =      20.75 seconds =       0.35 minutes
	total time  =        144 seconds =       2.40 minutes

*** Psi4 exiting successfully. Buy a developer a beer!
