
    -----------------------------------------------------------------------
          Psi4: An Open-Source Ab Initio Electronic Structure Package
                               Psi4 1.1 release

                         Git: Rev {HEAD} add49b9 


    R. M. Parrish, L. A. Burns, D. G. A. Smith, A. C. Simmonett,
    A. E. DePrince III, E. G. Hohenstein, U. Bozkaya, A. Yu. Sokolov,
    R. Di Remigio, R. M. Richard, J. F. Gonthier, A. M. James,
    H. R. McAlexander, A. Kumar, M. Saitow, X. Wang, B. P. Pritchard,
    P. Verma, H. F. Schaefer III, K. Patkowski, R. A. King, E. F. Valeev,
    F. A. Evangelista, J. M. Turney, T. D. Crawford, and C. D. Sherrill,
    J. Chem. Theory Comput. in press (2017).
    (doi: 10.1021/acs.jctc.7b00174)

    -----------------------------------------------------------------------


    Psi4 started on: Tuesday, 12 December 2017 11:34AM

    Process ID:  15709
    PSIDATADIR: /home/junteng/Softwares/psi4conda/share/psi4
    Memory:     500.0 MiB
    Threads:    1
    
  ==> Input File <==

--------------------------------------------------------------------------
memory 750000 mb

molecule mol {
0 1
C         -0.56632       -1.79004        0.40669
O         -0.32100       -2.97037        0.49680
O         -1.78262       -1.31841        0.09460
C         -2.79967       -2.29767       -0.18708
H         -2.49726       -2.92789       -1.02402
H         -2.97969       -2.92140        0.68962
H         -3.68807       -1.72428       -0.44168
--
0 1
C         -1.14811        1.17238       -0.13345
O         -1.29212        1.16687       -1.32838
O         -2.11227        1.58364        0.72677
C         -3.37525        1.91728        0.12882
H         -3.26453        2.74764       -0.57053
H         -3.78000        1.05521       -0.40443
H         -4.02558        2.19658        0.95517
--
0 1
C          2.06118       -2.03239       -0.96737
H          2.99054       -1.90032       -1.52611
H          2.15103       -2.90365       -0.31831
H          1.25402       -2.21962       -1.67705
C          1.31577        2.73369       -0.68220
H          2.27987        2.99232       -1.12558
H          1.07733        3.48393        0.07758
H          0.55583        2.76206       -1.46173
C          0.10963        0.80645        0.63885
C          0.46432       -0.71766        0.71374
C          1.40111        1.36200       -0.04815
C          2.58556        1.18150        0.94929
C          2.93559       -0.31851        0.77196
C          1.79220       -0.78417       -0.16026
O          1.65586        0.34770       -1.03108
H         -0.00830        1.20976        1.64430
H          0.73897       -0.95221        1.74488
H          3.41708        1.82542        0.65862
H          2.30451        1.44513        1.97137
H          3.89100       -0.44306        0.25852
H          2.97559       -0.87902        1.70795

symmetry c1
no_reorient
no_com
}

set {
basis jun-cc-pvdz
scf_type df
guess sad
freeze_core true
}

energy('fisapt0')
--------------------------------------------------------------------------

  Memory set to 698.492 GiB by Python driver.

*** tstart() called on ThinkPad-P50
*** at Tue Dec 12 11:34:21 2017

   => Loading Basis Set <=

    Name: JUN-CC-PVDZ
    Role: ORBITAL
    Keyword: BASIS
    atoms 1, 4, 8, 11, 15, 19, 23-28      entry C          line   157 file /home/junteng/Softwares/psi4conda/share/psi4/basis/jun-cc-pvdz.gbs 
    atoms 2-3, 9-10, 29                   entry O          line   225 file /home/junteng/Softwares/psi4conda/share/psi4/basis/jun-cc-pvdz.gbs 
    atoms 5-7, 12-14, 16-18, 20-22, 30-35 entry H          line    35 file /home/junteng/Softwares/psi4conda/share/psi4/basis/jun-cc-pvdz.gbs 


         ---------------------------------------------------------
                                   SCF
            by Justin Turney, Rob Parrish, and Andy Simmonett
                              RHF Reference
                        1 Threads, 715255 MiB Core
         ---------------------------------------------------------

  ==> Geometry <==

    Molecular point group: c1
    Full point group: C1

    Geometry (in Angstrom), charge = 0, multiplicity = 1:

       Center              X                  Y                   Z               Mass       
    ------------   -----------------  -----------------  -----------------  -----------------
           C         -0.566320000000    -1.790040000000     0.406690000000    12.000000000000
           O         -0.321000000000    -2.970370000000     0.496800000000    15.994914619560
           O         -1.782620000000    -1.318410000000     0.094600000000    15.994914619560
           C         -2.799670000000    -2.297670000000    -0.187080000000    12.000000000000
           H         -2.497260000000    -2.927890000000    -1.024020000000     1.007825032070
           H         -2.979690000000    -2.921400000000     0.689620000000     1.007825032070
           H         -3.688070000000    -1.724280000000    -0.441680000000     1.007825032070
           C         -1.148110000000     1.172380000000    -0.133450000000    12.000000000000
           O         -1.292120000000     1.166870000000    -1.328380000000    15.994914619560
           O         -2.112270000000     1.583640000000     0.726770000000    15.994914619560
           C         -3.375250000000     1.917280000000     0.128820000000    12.000000000000
           H         -3.264530000000     2.747640000000    -0.570530000000     1.007825032070
           H         -3.780000000000     1.055210000000    -0.404430000000     1.007825032070
           H         -4.025580000000     2.196580000000     0.955170000000     1.007825032070
           C          2.061180000000    -2.032390000000    -0.967370000000    12.000000000000
           H          2.990540000000    -1.900320000000    -1.526110000000     1.007825032070
           H          2.151030000000    -2.903650000000    -0.318310000000     1.007825032070
           H          1.254020000000    -2.219620000000    -1.677050000000     1.007825032070
           C          1.315770000000     2.733690000000    -0.682200000000    12.000000000000
           H          2.279870000000     2.992320000000    -1.125580000000     1.007825032070
           H          1.077330000000     3.483930000000     0.077580000000     1.007825032070
           H          0.555830000000     2.762060000000    -1.461730000000     1.007825032070
           C          0.109630000000     0.806450000000     0.638850000000    12.000000000000
           C          0.464320000000    -0.717660000000     0.713740000000    12.000000000000
           C          1.401110000000     1.362000000000    -0.048150000000    12.000000000000
           C          2.585560000000     1.181500000000     0.949290000000    12.000000000000
           C          2.935590000000    -0.318510000000     0.771960000000    12.000000000000
           C          1.792200000000    -0.784170000000    -0.160260000000    12.000000000000
           O          1.655860000000     0.347700000000    -1.031080000000    15.994914619560
           H         -0.008300000000     1.209760000000     1.644300000000     1.007825032070
           H          0.738970000000    -0.952210000000     1.744880000000     1.007825032070
           H          3.417080000000     1.825420000000     0.658620000000     1.007825032070
           H          2.304510000000     1.445130000000     1.971370000000     1.007825032070
           H          3.891000000000    -0.443060000000     0.258520000000     1.007825032070
           H          2.975590000000    -0.879020000000     1.707950000000     1.007825032070

  Running in c1 symmetry.

  Rotational constants: A =      0.02065  B =      0.01636  C =      0.01064 [cm^-1]
  Rotational constants: A =    619.06510  B =    490.57278  C =    318.86352 [MHz]
  Nuclear repulsion = 1395.616587452856720

  Charge       = 0
  Multiplicity = 1
  Electrons    = 130
  Nalpha       = 65
  Nbeta        = 65

  ==> Algorithm <==

  SCF Algorithm Type is DF.
  DIIS enabled.
  MOM disabled.
  Fractional occupation disabled.
  Guess Type is SAD.
  Energy threshold   = 1.00e-08
  Density threshold  = 1.00e-08
  Integral threshold = 0.00e+00

  ==> Primary Basis <==

  Basis Set: JUN-CC-PVDZ
    Blend: JUN-CC-PVDZ
    Number of shells: 190
    Number of basis function: 396
    Number of Cartesian functions: 413
    Spherical Harmonics?: true
    Max angular momentum: 2

   => Loading Basis Set <=

    Name: (JUN-CC-PVDZ AUX)
    Role: JKFIT
    Keyword: DF_BASIS_SCF
    atoms 1, 4, 8, 11, 15, 19, 23-28      entry C          line   145 file /home/junteng/Softwares/psi4conda/share/psi4/basis/jun-cc-pvdz-jkfit.gbs 
    atoms 2-3, 9-10, 29                   entry O          line   257 file /home/junteng/Softwares/psi4conda/share/psi4/basis/jun-cc-pvdz-jkfit.gbs 
    atoms 5-7, 12-14, 16-18, 20-22, 30-35 entry H          line    69 file /home/junteng/Softwares/psi4conda/share/psi4/basis/jun-cc-pvdz-jkfit.gbs 

  ==> Pre-Iterations <==

   -------------------------------------------------------
    Irrep   Nso     Nmo     Nalpha   Nbeta   Ndocc  Nsocc
   -------------------------------------------------------
     A        396     396       0       0       0       0
   -------------------------------------------------------
    Total     396     396      65      65      65       0
   -------------------------------------------------------

  ==> Integral Setup <==

  ==> DFJK: Density-Fitted J/K Matrices <==

    J tasked:                  Yes
    K tasked:                  Yes
    wK tasked:                  No
    OpenMP threads:              1
    Integrals threads:           1
    Memory (MB):            536441
    Algorithm:                Core
    Integral Cache:           NONE
    Schwarz Cutoff:          1E-12
    Fitting Condition:       1E-12

   => Auxiliary Basis Set <=

  Basis Set: (JUN-CC-PVDZ AUX)
    Blend: JUN-CC-PVDZ-JKFIT
    Number of shells: 621
    Number of basis function: 1757
    Number of Cartesian functions: 1997
    Spherical Harmonics?: true
    Max angular momentum: 3

  Minimum eigenvalue in the overlap matrix is 6.7977975386E-06.
  Using Symmetric Orthogonalization.

  SCF Guess: Superposition of Atomic Densities via on-the-fly atomic UHF.

  ==> Iterations <==

                           Total Energy        Delta E     RMS |[F,P]|

   @DF-RHF iter   0:  -846.95130267448098   -8.46951e+02   1.97764e-02 
   @DF-RHF iter   1:  -838.70214925591301    8.24915e+00   2.46819e-03 
   @DF-RHF iter   2:  -839.12605802222470   -4.23909e-01   1.57846e-03 DIIS
   @DF-RHF iter   3:  -839.28270544399811   -1.56647e-01   4.18133e-04 DIIS
   @DF-RHF iter   4:  -839.30134776912507   -1.86423e-02   1.34016e-04 DIIS
   @DF-RHF iter   5:  -839.30338540347282   -2.03763e-03   4.34352e-05 DIIS
   @DF-RHF iter   6:  -839.30368795613163   -3.02553e-04   1.74300e-05 DIIS
   @DF-RHF iter   7:  -839.30375172727327   -6.37711e-05   6.56534e-06 DIIS
   @DF-RHF iter   8:  -839.30376290609888   -1.11788e-05   2.61380e-06 DIIS
   @DF-RHF iter   9:  -839.30376477931293   -1.87321e-06   1.01679e-06 DIIS
   @DF-RHF iter  10:  -839.30376505498930   -2.75676e-07   3.79023e-07 DIIS
   @DF-RHF iter  11:  -839.30376510094641   -4.59571e-08   1.43529e-07 DIIS
   @DF-RHF iter  12:  -839.30376510717269   -6.22629e-09   5.86558e-08 DIIS
   @DF-RHF iter  13:  -839.30376510797350   -8.00810e-10   2.28269e-08 DIIS
   @DF-RHF iter  14:  -839.30376510808742   -1.13914e-10   7.15456e-09 DIIS

  ==> Post-Iterations <==

    Orbital Energies (a.u.)
    -----------------------

    Doubly Occupied:                                                      

       1A    -20.616549     2A    -20.605323     3A    -20.560035  
       4A    -20.555684     5A    -20.545241     6A    -11.396273  
       7A    -11.385215     8A    -11.301130     9A    -11.299879  
      10A    -11.299750    11A    -11.292671    12A    -11.269623  
      13A    -11.261928    14A    -11.237358    15A    -11.235123  
      16A    -11.224140    17A    -11.219648    18A     -1.474094  
      19A     -1.458731    20A     -1.400730    21A     -1.369083  
      22A     -1.358522    23A     -1.112345    24A     -1.073767  
      25A     -1.049370    26A     -0.994606    27A     -0.975598  
      28A     -0.968599    29A     -0.912085    30A     -0.872983  
      31A     -0.812891    32A     -0.785974    33A     -0.769048  
      34A     -0.756279    35A     -0.715045    36A     -0.693537  
      37A     -0.690536    38A     -0.677746    39A     -0.665254  
      40A     -0.663416    41A     -0.658510    42A     -0.643159  
      43A     -0.625238    44A     -0.598004    45A     -0.590176  
      46A     -0.583183    47A     -0.573193    48A     -0.561959  
      49A     -0.555401    50A     -0.547863    51A     -0.543795  
      52A     -0.528926    53A     -0.525390    54A     -0.506958  
      55A     -0.504758    56A     -0.501133    57A     -0.497424  
      58A     -0.482924    59A     -0.471837    60A     -0.467624  
      61A     -0.460372    62A     -0.451909    63A     -0.444488  
      64A     -0.428644    65A     -0.417852  

    Virtual:                                                              

      66A      0.048861    67A      0.053169    68A      0.058610  
      69A      0.068129    70A      0.068822    71A      0.076076  
      72A      0.084366    73A      0.092387    74A      0.094890  
      75A      0.103914    76A      0.109499    77A      0.113740  
      78A      0.114591    79A      0.118188    80A      0.129777  
      81A      0.131140    82A      0.133460    83A      0.143311  
      84A      0.146703    85A      0.152515    86A      0.157268  
      87A      0.163693    88A      0.168342    89A      0.170623  
      90A      0.174216    91A      0.176981    92A      0.184205  
      93A      0.195451    94A      0.200837    95A      0.202824  
      96A      0.206755    97A      0.208111    98A      0.217240  
      99A      0.220965   100A      0.228174   101A      0.232898  
     102A      0.236716   103A      0.240934   104A      0.243930  
     105A      0.253779   106A      0.254618   107A      0.257136  
     108A      0.262021   109A      0.263204   110A      0.268401  
     111A      0.276498   112A      0.282615   113A      0.291794  
     114A      0.295216   115A      0.298987   116A      0.304682  
     117A      0.309444   118A      0.316021   119A      0.322257  
     120A      0.331963   121A      0.342258   122A      0.344068  
     123A      0.352418   124A      0.359594   125A      0.365551  
     126A      0.367416   127A      0.370763   128A      0.371361  
     129A      0.377856   130A      0.388161   131A      0.390102  
     132A      0.391253   133A      0.394793   134A      0.399635  
     135A      0.405757   136A      0.408267   137A      0.414075  
     138A      0.421278   139A      0.423148   140A      0.427031  
     141A      0.430165   142A      0.437379   143A      0.443549  
     144A      0.448631   145A      0.458247   146A      0.465103  
     147A      0.474606   148A      0.479628   149A      0.482184  
     150A      0.486259   151A      0.493396   152A      0.502226  
     153A      0.504443   154A      0.508861   155A      0.517175  
     156A      0.522755   157A      0.534368   158A      0.542199  
     159A      0.545414   160A      0.556972   161A      0.564397  
     162A      0.575854   163A      0.591972   164A      0.594493  
     165A      0.606510   166A      0.613797   167A      0.638958  
     168A      0.648194   169A      0.668391   170A      0.703601  
     171A      0.731027   172A      0.745547   173A      0.770823  
     174A      0.781129   175A      0.793434   176A      0.798551  
     177A      0.804955   178A      0.811672   179A      0.831958  
     180A      0.837380   181A      0.860854   182A      0.868724  
     183A      0.883874   184A      0.887266   185A      0.892343  
     186A      0.903064   187A      0.911681   188A      0.913312  
     189A      0.918291   190A      0.926486   191A      0.932177  
     192A      0.941018   193A      0.942744   194A      0.945143  
     195A      0.948703   196A      0.951657   197A      0.956382  
     198A      0.964485   199A      0.971373   200A      0.976058  
     201A      0.981447   202A      0.989098   203A      0.995886  
     204A      1.006847   205A      1.008386   206A      1.013781  
     207A      1.019555   208A      1.026719   209A      1.048293  
     210A      1.052661   211A      1.064534   212A      1.072552  
     213A      1.077911   214A      1.085804   215A      1.099955  
     216A      1.107714   217A      1.114919   218A      1.116909  
     219A      1.129955   220A      1.135021   221A      1.144304  
     222A      1.166346   223A      1.172885   224A      1.192721  
     225A      1.212986   226A      1.226668   227A      1.243542  
     228A      1.266272   229A      1.290742   230A      1.302871  
     231A      1.321960   232A      1.338123   233A      1.343338  
     234A      1.378610   235A      1.424870   236A      1.428625  
     237A      1.448224   238A      1.472278   239A      1.481480  
     240A      1.488568   241A      1.501637   242A      1.502898  
     243A      1.516499   244A      1.533030   245A      1.546675  
     246A      1.554682   247A      1.572079   248A      1.578998  
     249A      1.592194   250A      1.594906   251A      1.607582  
     252A      1.624834   253A      1.635032   254A      1.642960  
     255A      1.653933   256A      1.662594   257A      1.667937  
     258A      1.671124   259A      1.672405   260A      1.697025  
     261A      1.706593   262A      1.708769   263A      1.718935  
     264A      1.726887   265A      1.735500   266A      1.754234  
     267A      1.768159   268A      1.773576   269A      1.787413  
     270A      1.813410   271A      1.816224   272A      1.850564  
     273A      1.861340   274A      1.868885   275A      1.873644  
     276A      1.876085   277A      1.882705   278A      1.910912  
     279A      1.924346   280A      1.933761   281A      1.940329  
     282A      1.950771   283A      1.957765   284A      1.961821  
     285A      1.975785   286A      1.980993   287A      1.985591  
     288A      1.987881   289A      2.002286   290A      2.012238  
     291A      2.025148   292A      2.028298   293A      2.030487  
     294A      2.038844   295A      2.042933   296A      2.059961  
     297A      2.068769   298A      2.071610   299A      2.075797  
     300A      2.087578   301A      2.100693   302A      2.107003  
     303A      2.110563   304A      2.122947   305A      2.137531  
     306A      2.149869   307A      2.163722   308A      2.169359  
     309A      2.175913   310A      2.184819   311A      2.201579  
     312A      2.203013   313A      2.222882   314A      2.244303  
     315A      2.259849   316A      2.271969   317A      2.290637  
     318A      2.310625   319A      2.322001   320A      2.329301  
     321A      2.336751   322A      2.347785   323A      2.362031  
     324A      2.383074   325A      2.387368   326A      2.391112  
     327A      2.394998   328A      2.400584   329A      2.416321  
     330A      2.431903   331A      2.439513   332A      2.446456  
     333A      2.457546   334A      2.479641   335A      2.500293  
     336A      2.516819   337A      2.529256   338A      2.550012  
     339A      2.586487   340A      2.604413   341A      2.616972  
     342A      2.634885   343A      2.674631   344A      2.687116  
     345A      2.709246   346A      2.735850   347A      2.755976  
     348A      2.766799   349A      2.785943   350A      2.790010  
     351A      2.793278   352A      2.811197   353A      2.826671  
     354A      2.850507   355A      2.851883   356A      2.860880  
     357A      2.877056   358A      2.883759   359A      2.887799  
     360A      2.892977   361A      2.901060   362A      2.914927  
     363A      2.933480   364A      2.946449   365A      2.954908  
     366A      2.965498   367A      2.985166   368A      3.024064  
     369A      3.034082   370A      3.054139   371A      3.061042  
     372A      3.123121   373A      3.131232   374A      3.160358  
     375A      3.250302   376A      3.274106   377A      3.300268  
     378A      3.323865   379A      3.376559   380A      3.394577  
     381A      3.415949   382A      3.426887   383A      3.516307  
     384A      3.547078   385A      3.569923   386A      3.587534  
     387A      3.681961   388A      3.712767   389A      3.735834  
     390A      3.785739   391A      3.796818   392A      3.913293  
     393A      3.945350   394A      3.978410   395A      4.075645  
     396A      4.132722  

    Final Occupation by Irrep:
              A 
    DOCC [    65 ]

  Energy converged.

  @DF-RHF Final Energy:  -839.30376510808742

   => Energetics <=

    Nuclear Repulsion Energy =           1395.6165874528567201
    One-Electron Energy =               -3922.3876368778655888
    Two-Electron Energy =                1687.4672843169212229
    DFT Exchange-Correlation Energy =       0.0000000000000000
    Empirical Dispersion Energy =           0.0000000000000000
    PCM Polarization Energy =               0.0000000000000000
    EFP Energy =                            0.0000000000000000
    Total Energy =                       -839.3037651080874184



Properties will be evaluated at   0.000000,   0.000000,   0.000000 Bohr

Properties computed using the SCF density matrix

  Nuclear Dipole Moment: (a.u.)
     X:     2.3266      Y:     1.3591      Z:     2.6707

  Electronic Dipole Moment: (a.u.)
     X:    -2.7337      Y:    -0.8231      Z:    -1.6030

  Dipole Moment: (a.u.)
     X:    -0.4071      Y:     0.5360      Z:     1.0677     Total:     1.2622

  Dipole Moment: (Debye)
     X:    -1.0347      Y:     1.3624      Z:     2.7139     Total:     3.2081


*** tstop() called on ThinkPad-P50 at Tue Dec 12 11:40:31 2017
Module time:
	user time   =     364.99 seconds =       6.08 minutes
	system time =       3.40 seconds =       0.06 minutes
	total time  =        370 seconds =       6.17 minutes
Total time:
	user time   =     364.99 seconds =       6.08 minutes
	system time =       3.40 seconds =       0.06 minutes
	total time  =        370 seconds =       6.17 minutes
   => Loading Basis Set <=

    Name: (JUN-CC-PVDZ AUX)
    Role: JKFIT
    Keyword: DF_BASIS_SCF
    atoms 1, 4, 8, 11, 15, 19, 23-28      entry C          line   145 file /home/junteng/Softwares/psi4conda/share/psi4/basis/jun-cc-pvdz-jkfit.gbs 
    atoms 2-3, 9-10, 29                   entry O          line   257 file /home/junteng/Softwares/psi4conda/share/psi4/basis/jun-cc-pvdz-jkfit.gbs 
    atoms 5-7, 12-14, 16-18, 20-22, 30-35 entry H          line    69 file /home/junteng/Softwares/psi4conda/share/psi4/basis/jun-cc-pvdz-jkfit.gbs 

   => Loading Basis Set <=

    Name: (JUN-CC-PVDZ AUX)
    Role: RIFIT
    Keyword: DF_BASIS_SAPT
    atoms 1, 4, 8, 11, 15, 19, 23-28      entry C          line    99 file /home/junteng/Softwares/psi4conda/share/psi4/basis/jun-cc-pvdz-ri.gbs 
    atoms 2-3, 9-10, 29                   entry O          line   187 file /home/junteng/Softwares/psi4conda/share/psi4/basis/jun-cc-pvdz-ri.gbs 
    atoms 5-7, 12-14, 16-18, 20-22, 30-35 entry H          line    29 file /home/junteng/Softwares/psi4conda/share/psi4/basis/jun-cc-pvdz-ri.gbs 

   => Loading Basis Set <=

    Name: CC-PVTZ-MINAO
    Role: ORBITAL
    Keyword: BASIS
    atoms 1, 4, 8, 11, 15, 19, 23-28      entry C          line   130 file /home/junteng/Softwares/psi4conda/share/psi4/basis/cc-pvtz-minao.gbs 
    atoms 2-3, 9-10, 29                   entry O          line   190 file /home/junteng/Softwares/psi4conda/share/psi4/basis/cc-pvtz-minao.gbs 
    atoms 5-7, 12-14, 16-18, 20-22, 30-35 entry H          line    19 file /home/junteng/Softwares/psi4conda/share/psi4/basis/cc-pvtz-minao.gbs 


*** tstart() called on ThinkPad-P50
*** at Tue Dec 12 11:40:34 2017

	 --------------------------------------------
	                    FISAPT0                  
	                  Rob Parrish                
	 --------------------------------------------

    Do F-SAPT =         Yes
    Do Plot   =          No
    Memory    =      78.580 [GD]

  ==> Localization (IBO) <==

  ==> IBO Localizer 2 <==

    MinAO Basis = CC-PVTZ-MINAO
    Use Ghosts  =       FALSE
    Use Stars   =       FALSE
    Condition   =   1.000E-07
    Power       =           4
    Convergence =   1.000E-12
    Maxiter     =        1000

    @IBO Iter:                   Metric       Gradient
    @IBO    1:   2.0283978255071506E+00   2.191199E+00
    @IBO    2:   2.2345973240327641E+00   2.565404E+00
    @IBO    3:   2.3383708974671502E+00   1.213912E+00
    @IBO    4:   2.3576988518450324E+00   2.679299E-01
    @IBO    5:   2.3585872540389325E+00   1.826529E-02
    @IBO    6:   2.3585892459577709E+00   1.876748E-04
    @IBO    7:   2.3585892462095690E+00   3.262052E-06
    @IBO    8:   2.3585892462096569E+00   9.162843E-08
    @IBO    9:   2.3585892462096569E+00   3.161229E-09
    @IBO   10:   2.3585892462096569E+00   1.196855E-10
    @IBO   11:   2.3585892462096569E+00   4.979316E-12
    @IBO   12:   2.3585892462096574E+00   2.180107E-13

    IBO Localizer 2 converged.

  ==> Partitioning <==

   => Atomic Partitioning <= 

    Monomer A:   7 atoms
    Monomer B:   7 atoms
    Monomer C:  21 atoms

   => Link Bond Identification <=

    Link Bond Selection = AUTOMATIC

    Charge Completeness = 0.800

    Total Link Bonds = 2

    --------------------------
    N     Orb Type Aind1 Aind2
    --------------------------
    1      28   BC     8    23
    2      52   AC     1    24
    --------------------------

   => Link Bond Assignment <=

    Link Bond Assignment      = C

   => Partition Summary <=

    Monomer A:  0 charge,  30 protons,  30 electrons,  15 docc
    Monomer B:  0 charge,  30 protons,  30 electrons,  15 docc
    Monomer C:  0 charge,  70 protons,  70 electrons,  35 docc

  ==> Overlap Integrals <==

  ==> Kinetic Integrals <==

  ==> Nuclear Integrals <==

    Nuclear Repulsion Tot:   1.3956165874528583E+03 [Eh]

  ==> Coulomb Integrals <==

  ==> DFJK: Density-Fitted J/K Matrices <==

    J tasked:                  Yes
    K tasked:                  Yes
    wK tasked:                  No
    OpenMP threads:              1
    Integrals threads:           1
    Memory (MB):            643730
    Algorithm:                Core
    Integral Cache:           NONE
    Schwarz Cutoff:          1E-12
    Fitting Condition:       1E-12

   => Auxiliary Basis Set <=

  Basis Set: (JUN-CC-PVDZ AUX)
    Blend: JUN-CC-PVDZ-JKFIT
    Number of shells: 621
    Number of basis function: 1757
    Number of Cartesian functions: 1997
    Spherical Harmonics?: true
    Max angular momentum: 3

  ==> Relaxed SCF Equations <==

  ==> SCF A: <==

    Maxiter =          50
    E Tol   =   1.000E-06
    D Tol   =   1.000E-08

    Max DIIS Vectors = 5

    Iter   N:                        E          dE         |D|
    Iter   1:  -2.2411672234624078E+02  -2.241E+02   9.412E-04 
    Iter   2:  -2.2413568067508785E+02  -1.896E-02   5.762E-05 DIIS
    Iter   3:  -2.2413598780270257E+02  -3.071E-04   2.155E-05 DIIS
    Iter   4:  -2.2413601746958130E+02  -2.967E-05   9.559E-06 DIIS
    Iter   5:  -2.2413602408535689E+02  -6.616E-06   1.713E-06 DIIS
    Iter   6:  -2.2413602442778586E+02  -3.424E-07   5.686E-07 DIIS
    Iter   7:  -2.2413602447135992E+02  -4.357E-08   1.684E-07 DIIS
    Iter   8:  -2.2413602447420004E+02  -2.840E-09   6.839E-08 DIIS
    Iter   9:  -2.2413602447459411E+02  -3.941E-10   2.331E-08 DIIS
    Iter  10:  -2.2413602447465442E+02  -6.031E-11   8.479E-09 DIIS

    FISAPTSCF Converged.

    Final SCF Energy:  -2.2413602447465442E+02 [Eh]

   => Occupied Orbital Energies <=

       1  -20.607040     2  -20.544376     3  -11.385057  
       4  -11.293897     5   -1.438757     6   -1.354227  
       7   -0.962455     8   -0.766273     9   -0.667066  
      10   -0.662241    11   -0.620717    12   -0.540784  
      13   -0.534973    14   -0.471457    15   -0.458440  

   => Virtual Orbital Energies <=

      16    0.030928    17    0.054271    18    0.059287  
      19    0.064108    20    0.066884    21    0.076658  
      22    0.079329    23    0.085455    24    0.091207  
      25    0.095655    26    0.106263    27    0.109794  
      28    0.111430    29    0.116668    30    0.124146  
      31    0.128624    32    0.131665    33    0.136326  
      34    0.144417    35    0.147443    36    0.155195  
      37    0.159124    38    0.165572    39    0.168548  
      40    0.172919    41    0.176283    42    0.182898  
      43    0.184795    44    0.195207    45    0.202746  
      46    0.204606    47    0.205981    48    0.217473  
      49    0.222880    50    0.227551    51    0.232771  
      52    0.233872    53    0.235438    54    0.245056  
      55    0.248580    56    0.257905    57    0.259471  
      58    0.265007    59    0.267285    60    0.275251  
      61    0.281054    62    0.282144    63    0.294189  
      64    0.296743    65    0.301089    66    0.304083  
      67    0.310051    68    0.318480    69    0.322175  
      70    0.329181    71    0.337740    72    0.345173  
      73    0.348464    74    0.353544    75    0.360381  
      76    0.364585    77    0.367812    78    0.372429  
      79    0.380460    80    0.384448    81    0.388714  
      82    0.393045    83    0.397816    84    0.400405  
      85    0.405990    86    0.409084    87    0.414953  
      88    0.418025    89    0.428480    90    0.434237  
      91    0.439148    92    0.442951    93    0.448653  
      94    0.453685    95    0.461821    96    0.468226  
      97    0.480744    98    0.485056    99    0.487375  
     100    0.488614   101    0.504402   102    0.514343  
     103    0.519644   104    0.525809   105    0.537476  
     106    0.540546   107    0.554314   108    0.558157  
     109    0.569960   110    0.576629   111    0.599046  
     112    0.606802   113    0.611901   114    0.617412  
     115    0.620411   116    0.634381   117    0.635994  
     118    0.652626   119    0.661143   120    0.688659  
     121    0.690421   122    0.711373   123    0.744277  
     124    0.759446   125    0.776993   126    0.792643  
     127    0.795147   128    0.817798   129    0.820169  
     130    0.842596   131    0.847400   132    0.867994  
     133    0.879604   134    0.887378   135    0.895209  
     136    0.908988   137    0.916654   138    0.927191  
     139    0.929470   140    0.935881   141    0.944087  
     142    0.953773   143    0.954886   144    0.959517  
     145    0.963869   146    0.967805   147    0.975281  
     148    0.981341   149    0.993242   150    0.997572  
     151    1.006983   152    1.014580   153    1.017174  
     154    1.023622   155    1.030869   156    1.037991  
     157    1.054815   158    1.062523   159    1.069446  
     160    1.080575   161    1.093852   162    1.100539  
     163    1.106410   164    1.118470   165    1.123246  
     166    1.132438   167    1.136362   168    1.144039  
     169    1.152759   170    1.169228   171    1.179730  
     172    1.189664   173    1.203547   174    1.224401  
     175    1.247877   176    1.286223   177    1.298691  
     178    1.304352   179    1.321793   180    1.339433  
     181    1.376132   182    1.384083   183    1.415494  
     184    1.447780   185    1.462218   186    1.472868  
     187    1.490049   188    1.498363   189    1.518949  
     190    1.532452   191    1.541181   192    1.560078  
     193    1.567730   194    1.568623   195    1.587598  
     196    1.596722   197    1.624948   198    1.632182  
     199    1.642783   200    1.659797   201    1.666769  
     202    1.670753   203    1.685012   204    1.703711  
     205    1.710366   206    1.723985   207    1.738124  
     208    1.741836   209    1.758328   210    1.765763  
     211    1.784235   212    1.796729   213    1.813961  
     214    1.825733   215    1.829820   216    1.839424  
     217    1.859746   218    1.868540   219    1.883485  
     220    1.892435   221    1.897014   222    1.919503  
     223    1.932243   224    1.936829   225    1.959505  
     226    1.965001   227    1.972505   228    1.983326  
     229    1.989429   230    1.993568   231    2.003997  
     232    2.012893   233    2.018607   234    2.027318  
     235    2.031204   236    2.035948   237    2.047071  
     238    2.062190   239    2.070062   240    2.076128  
     241    2.087519   242    2.096986   243    2.108054  
     244    2.120141   245    2.124018   246    2.126190  
     247    2.134331   248    2.141883   249    2.152102  
     250    2.171819   251    2.175263   252    2.191187  
     253    2.196986   254    2.209985   255    2.219500  
     256    2.233313   257    2.240343   258    2.262241  
     259    2.285726   260    2.293195   261    2.305359  
     262    2.311354   263    2.321361   264    2.337906  
     265    2.350133   266    2.366875   267    2.376003  
     268    2.377669   269    2.383614   270    2.391176  
     271    2.403238   272    2.414482   273    2.417250  
     274    2.440600   275    2.453707   276    2.475524  
     277    2.492678   278    2.501362   279    2.504010  
     280    2.529632   281    2.539466   282    2.577331  
     283    2.593459   284    2.609986   285    2.616640  
     286    2.640701   287    2.648824   288    2.667142  
     289    2.679401   290    2.679882   291    2.697912  
     292    2.721348   293    2.730764   294    2.761312  
     295    2.782827   296    2.795198   297    2.797074  
     298    2.808265   299    2.830930   300    2.864494  
     301    2.865370   302    2.873544   303    2.877092  
     304    2.886428   305    2.889847   306    2.892112  
     307    2.900910   308    2.908334   309    2.924187  
     310    2.940512   311    2.947370   312    2.967584  
     313    2.982593   314    3.000650   315    3.031618  
     316    3.045730   317    3.062045   318    3.085486  
     319    3.124878   320    3.157053   321    3.197174  
     322    3.261801   323    3.309058   324    3.363753  
     325    3.400316   326    3.431775   327    3.446217  
     328    3.559511   329    3.577705   330    3.642663  
     331    3.696572   332    3.705549   333    3.754613  
     334    3.816659   335    3.818594   336    3.941967  
     337    3.960504   338    3.968564   339    4.086021  
     340    4.152759   341    4.218169   342    4.446516  
     343    4.526732   344    4.554546   345    4.766392  
     346    4.954510   347    5.041897   348    5.067422  
     349    5.231175   350    5.329573   351    5.547832  
     352    5.597320   353    5.768579   354    5.863313  
     355    6.094015   356    6.326722   357    6.727357  
     358   13.392111   359   18.430933   360   33.436685  
     361   33.482269  

  ==> SCF B: <==

    Maxiter =          50
    E Tol   =   1.000E-06
    D Tol   =   1.000E-08

    Max DIIS Vectors = 5

    Iter   N:                        E          dE         |D|
    Iter   1:  -2.2399094956599308E+02  -2.240E+02   6.376E-04 
    Iter   2:  -2.2400051146161169E+02  -9.562E-03   3.791E-05 DIIS
    Iter   3:  -2.2400067795943667E+02  -1.665E-04   1.101E-05 DIIS
    Iter   4:  -2.2400068911332542E+02  -1.115E-05   5.263E-06 DIIS
    Iter   5:  -2.2400069139120674E+02  -2.278E-06   1.411E-06 DIIS
    Iter   6:  -2.2400069161462807E+02  -2.234E-07   5.214E-07 DIIS
    Iter   7:  -2.2400069165228334E+02  -3.766E-08   2.278E-07 DIIS
    Iter   8:  -2.2400069165973721E+02  -7.454E-09   8.091E-08 DIIS
    Iter   9:  -2.2400069166080985E+02  -1.073E-09   3.676E-08 DIIS
    Iter  10:  -2.2400069166107323E+02  -2.634E-10   1.217E-08 DIIS
    Iter  11:  -2.2400069166109463E+02  -2.140E-11   7.651E-09 DIIS

    FISAPTSCF Converged.

    Final SCF Energy:  -2.2400069166109463E+02 [Eh]

   => Occupied Orbital Energies <=

       1  -20.601695     2  -20.540550     3  -11.378926  
       4  -11.288933     5   -1.431369     6   -1.350530  
       7   -0.955018     8   -0.759660     9   -0.661854  
      10   -0.657216    11   -0.616235    12   -0.535211  
      13   -0.530646    14   -0.464968    15   -0.454190  

   => Virtual Orbital Energies <=

      16    0.028844    17    0.053549    18    0.056863  
      19    0.064612    20    0.068370    21    0.072932  
      22    0.083294    23    0.087422    24    0.093487  
      25    0.097645    26    0.099018    27    0.112040  
      28    0.112739    29    0.116999    30    0.125395  
      31    0.131052    32    0.132898    33    0.136727  
      34    0.142401    35    0.143060    36    0.157246  
      37    0.161948    38    0.164961    39    0.170759  
      40    0.172885    41    0.179904    42    0.181285  
      43    0.187884    44    0.196621    45    0.200931  
      46    0.209645    47    0.209865    48    0.217092  
      49    0.221392    50    0.224557    51    0.235122  
      52    0.239465    53    0.242998    54    0.246972  
      55    0.248380    56    0.254640    57    0.257444  
      58    0.261807    59    0.267530    60    0.272258  
      61    0.277888    62    0.281320    63    0.292358  
      64    0.293916    65    0.298540    66    0.310087  
      67    0.315332    68    0.316373    69    0.320833  
      70    0.331778    71    0.335264    72    0.336606  
      73    0.339737    74    0.346422    75    0.360658  
      76    0.364196    77    0.369557    78    0.375380  
      79    0.382639    80    0.383112    81    0.390862  
      82    0.395402    83    0.399477    84    0.403773  
      85    0.409895    86    0.417219    87    0.423095  
      88    0.427400    89    0.433254    90    0.436867  
      91    0.438470    92    0.449724    93    0.452659  
      94    0.455841    95    0.462366    96    0.467765  
      97    0.477068    98    0.483752    99    0.492794  
     100    0.499784   101    0.509688   102    0.517896  
     103    0.526966   104    0.532136   105    0.540996  
     106    0.545987   107    0.564741   108    0.574592  
     109    0.575256   110    0.584172   111    0.594283  
     112    0.597808   113    0.606225   114    0.619268  
     115    0.626923   116    0.634111   117    0.640622  
     118    0.654349   119    0.658784   120    0.673269  
     121    0.684444   122    0.719683   123    0.746211  
     124    0.757947   125    0.770375   126    0.791613  
     127    0.799176   128    0.807223   129    0.819255  
     130    0.843915   131    0.856405   132    0.864997  
     133    0.886826   134    0.890577   135    0.900937  
     136    0.905685   137    0.913312   138    0.925600  
     139    0.931686   140    0.937963   141    0.939906  
     142    0.950286   143    0.955486   144    0.960535  
     145    0.965557   146    0.970734   147    0.976553  
     148    0.977164   149    0.988881   150    0.990536  
     151    0.992744   152    1.000593   153    1.009579  
     154    1.010459   155    1.022458   156    1.033690  
     157    1.043883   158    1.048970   159    1.067980  
     160    1.085017   161    1.086707   162    1.100367  
     163    1.104733   164    1.110452   165    1.119760  
     166    1.129425   167    1.138664   168    1.147691  
     169    1.156815   170    1.161858   171    1.173030  
     172    1.195408   173    1.203934   174    1.227932  
     175    1.249453   176    1.269584   177    1.300897  
     178    1.305609   179    1.338537   180    1.343725  
     181    1.390528   182    1.409660   183    1.450490  
     184    1.454450   185    1.482572   186    1.492453  
     187    1.507060   188    1.523464   189    1.536059  
     190    1.550501   191    1.560509   192    1.569519  
     193    1.580987   194    1.600132   195    1.606292  
     196    1.612763   197    1.615239   198    1.635720  
     199    1.650465   200    1.658174   201    1.669031  
     202    1.676002   203    1.689317   204    1.696469  
     205    1.707758   206    1.715573   207    1.716711  
     208    1.737849   209    1.746309   210    1.755294  
     211    1.784839   212    1.799448   213    1.804884  
     214    1.822512   215    1.833440   216    1.845738  
     217    1.851133   218    1.876619   219    1.877879  
     220    1.898128   221    1.900175   222    1.918956  
     223    1.935154   224    1.946586   225    1.948302  
     226    1.964015   227    1.967458   228    1.979009  
     229    1.991943   230    1.995649   231    2.004989  
     232    2.016317   233    2.023304   234    2.027073  
     235    2.029939   236    2.035904   237    2.040799  
     238    2.050013   239    2.071697   240    2.081235  
     241    2.084230   242    2.100332   243    2.106625  
     244    2.115636   245    2.127712   246    2.132007  
     247    2.144740   248    2.157549   249    2.163017  
     250    2.166146   251    2.176069   252    2.179484  
     253    2.194301   254    2.203390   255    2.218498  
     256    2.244379   257    2.250831   258    2.253817  
     259    2.270540   260    2.286042   261    2.309701  
     262    2.313336   263    2.321479   264    2.329869  
     265    2.348978   266    2.358751   267    2.374106  
     268    2.383608   269    2.386863   270    2.395730  
     271    2.404484   272    2.412491   273    2.423927  
     274    2.435913   275    2.446373   276    2.459380  
     277    2.478072   278    2.486602   279    2.504666  
     280    2.518244   281    2.521473   282    2.554000  
     283    2.586961   284    2.604959   285    2.608492  
     286    2.629646   287    2.650230   288    2.665520  
     289    2.684210   290    2.694251   291    2.705852  
     292    2.726150   293    2.753472   294    2.761966  
     295    2.779600   296    2.790294   297    2.798151  
     298    2.816844   299    2.832867   300    2.842419  
     301    2.860801   302    2.865999   303    2.871315  
     304    2.882277   305    2.890059   306    2.893897  
     307    2.897303   308    2.910733   309    2.929019  
     310    2.943270   311    2.951812   312    2.959155  
     313    2.970848   314    3.005790   315    3.020890  
     316    3.038686   317    3.070846   318    3.082707  
     319    3.092556   320    3.134345   321    3.176278  
     322    3.276897   323    3.327778   324    3.378327  
     325    3.427953   326    3.445706   327    3.480419  
     328    3.553656   329    3.580150   330    3.604290  
     331    3.648498   332    3.734406   333    3.739825  
     334    3.771523   335    3.800389   336    3.934029  
     337    3.965126   338    4.013208   339    4.125654  
     340    4.140370   341    4.206036   342    4.444836  
     343    4.511639   344    4.536565   345    4.748723  
     346    4.946083   347    5.045368   348    5.069092  
     349    5.208635   350    5.330161   351    5.519190  
     352    5.578353   353    5.671837   354    5.824207  
     355    6.237769   356    6.356649   357    6.693889  
     358   13.376167   359   18.430897   360   33.415871  
     361   33.473356  

  ==> Frozen Core <==


    ------------------
    Range      A     B
    ------------------
    nbf      396   396
    nmo      361   361
    nocc      15    15
    nvir     346   346
    nfocc      4     4
    naocc     11    11
    navir    346   346
    nfvir      0     0
    ------------------

  ==> Unification <==

  ==> dHF <==

    E ABC(HF) =  -8.3930376510808742E+02 [Eh]
    E AC(0)   =  -6.1127558338120616E+02 [Eh]
    E BC(0)   =  -6.1127058230024363E+02 [Eh]
    E A(0)    =  -2.1265980458084476E+02 [Eh]
    E B(0)    =  -2.1266118287734361E+02 [Eh]
    E AC(HF)  =  -6.1125628125279229E+02 [Eh]
    E BC(HF)  =  -6.1126084020514156E+02 [Eh]
    E AB(HF)  =  -4.2528506594330270E+02 [Eh]
    E A(HF)   =  -2.1263138036191077E+02 [Eh]
    E B(HF)   =  -2.1264337877777524E+02 [Eh]
    E C       =  -3.8322366315345107E+02 [Eh]
    E HF      =   1.8737419911303732E-02 [Eh]

  ==> Electrostatics <==

    Elst10,r            =     0.011496902700 [Eh]

  ==> Exchange <==

    Exch10(S^2)         =     0.009456009062 [Eh]
    Exch10              =     0.009498344616 [Eh]

  ==> Induction <==

    Ind20,u (A<-B)      =    -0.002188672017 [Eh]
    Ind20,u (B<-A)      =    -0.001495041315 [Eh]
    Ind20,u             =    -0.003683713331 [Eh]
    Exch-Ind20,u (A<-B) =     0.001127996390 [Eh]
    Exch-Ind20,u (B<-A) =     0.001069834337 [Eh]
    Exch-Ind20,u        =     0.002197830727 [Eh]

  ==> CPHF Iterations <==

    Maxiter     =          50
    Convergence =   1.000E-08

    -----------------------------------------
    Iter   Monomer A    Monomer B    Time [s]
    -----------------------------------------
    1      2.146E-01    1.537E-01          22
    2      8.052E-02    5.554E-02          43
    3      2.027E-02    1.268E-02          65
    4      6.782E-03    5.906E-03          92
    5      1.989E-03    2.041E-03         122
    6      6.679E-04    8.976E-04         149
    7      1.780E-04    2.529E-04         168
    8      5.008E-05    1.073E-04         190
    9      1.138E-05    3.087E-05         209
    10     4.762E-06    7.808E-06         229
    11     1.652E-06    2.322E-06         248
    12     3.341E-07    7.482E-07         263
    13     9.205E-08    1.187E-07         281
    14     1.993E-08    2.565E-08         305
    15     4.747E-09*   8.465E-09*        324
    -----------------------------------------

    Ind20,r (A<-B)      =    -0.002585141261 [Eh]
    Ind20,r (B<-A)      =    -0.001712057413 [Eh]
    Ind20,r             =    -0.004297198674 [Eh]
    Exch-Ind20,r (A<-B) =     0.001441483071 [Eh]
    Exch-Ind20,r (B<-A) =     0.001274237031 [Eh]
    Exch-Ind20,r        =     0.002715720102 [Eh]

  ==> F-SAPT Localization (IBO) <==

  Local Orbitals for Monomer A:

  ==> IBO Localizer 2 <==

    MinAO Basis = CC-PVTZ-MINAO
    Use Ghosts  =       FALSE
    Use Stars   =       FALSE
    Condition   =   1.000E-07
    Power       =           4
    Convergence =   1.000E-12
    Maxiter     =        1000

    @IBO Iter:                   Metric       Gradient
    @IBO    1:   1.4832671393881689E+00   1.670281E+00
    @IBO    2:   1.6775154549569136E+00   9.256717E-01
    @IBO    3:   1.7088756670828784E+00   3.134144E-01
    @IBO    4:   1.7100885297891548E+00   2.401900E-03
    @IBO    5:   1.7100887110272582E+00   8.756867E-05
    @IBO    6:   1.7100887111223519E+00   1.401791E-06
    @IBO    7:   1.7100887111223901E+00   4.407136E-08
    @IBO    8:   1.7100887111223904E+00   1.014672E-09
    @IBO    9:   1.7100887111223901E+00   2.602728E-11
    @IBO   10:   1.7100887111223904E+00   8.151407E-13

    IBO Localizer 2 converged.

  Local Orbitals for Monomer B:

  ==> IBO Localizer 2 <==

    MinAO Basis = CC-PVTZ-MINAO
    Use Ghosts  =       FALSE
    Use Stars   =       FALSE
    Condition   =   1.000E-07
    Power       =           4
    Convergence =   1.000E-12
    Maxiter     =        1000

    @IBO Iter:                   Metric       Gradient
    @IBO    1:   1.4820614679678277E+00   1.679247E+00
    @IBO    2:   1.6780694345501372E+00   9.342169E-01
    @IBO    3:   1.7096710377471800E+00   3.205464E-01
    @IBO    4:   1.7109400258072589E+00   2.896928E-03
    @IBO    5:   1.7109403099640252E+00   1.244459E-04
    @IBO    6:   1.7109403101630356E+00   2.429393E-06
    @IBO    7:   1.7109403101631513E+00   7.884374E-08
    @IBO    8:   1.7109403101631515E+00   2.485045E-09
    @IBO    9:   1.7109403101631513E+00   9.336526E-11
    @IBO   10:   1.7109403101631513E+00   3.813661E-12
    @IBO   11:   1.7109403101631513E+00   1.601688E-13

    IBO Localizer 2 converged.

  ==> F-SAPT Electrostatics <==

  ==> DFERI: Density Fitted 3-Index Tensors <==

    Schwarz cutoff =   0.000E+00
    J cutoff       =   1.000E-12
    Mem (GB)       =         628

   => Auxiliary Basis <=

  Basis Set: (JUN-CC-PVDZ AUX)
    Blend: JUN-CC-PVDZ-JKFIT
    Number of shells: 621
    Number of basis function: 1757
    Number of Cartesian functions: 1997
    Spherical Harmonics?: true
    Max angular momentum: 3

    Elst10,r            =     0.011496903185 [Eh]

  ==> F-SAPT Exchange <==

  ==> DFERI: Density Fitted 3-Index Tensors <==

    Schwarz cutoff =   0.000E+00
    J cutoff       =   1.000E-12
    Mem (GB)       =         628

   => Auxiliary Basis <=

  Basis Set: (JUN-CC-PVDZ AUX)
    Blend: JUN-CC-PVDZ-JKFIT
    Number of shells: 621
    Number of basis function: 1757
    Number of Cartesian functions: 1997
    Spherical Harmonics?: true
    Max angular momentum: 3

    Exch10(S^2)         =     0.009456009062 [Eh]

    Scaling F-SAPT Exch10(S^2) by   1.004E+00 to match Exch10

  ==> F-SAPT Induction <==

  ==> DFERI: Density Fitted 3-Index Tensors <==

    Schwarz cutoff =   0.000E+00
    J cutoff       =   1.000E-12
    Mem (GB)       =         628

   => Auxiliary Basis <=

  Basis Set: (JUN-CC-PVDZ AUX)
    Blend: JUN-CC-PVDZ-JKFIT
    Number of shells: 621
    Number of basis function: 1757
    Number of Cartesian functions: 1997
    Spherical Harmonics?: true
    Max angular momentum: 3

    Ind20,u (A<-B)      =    -0.002188672018 [Eh]
    Ind20,u (B<-A)      =    -0.001495041315 [Eh]
    Ind20,u             =    -0.003683713332 [Eh]
    Exch-Ind20,u (A<-B) =     0.001127996391 [Eh]
    Exch-Ind20,u (B<-A) =     0.001069834337 [Eh]
    Exch-Ind20,u        =     0.002197830728 [Eh]

    Scaling for delta HF        =   1.428E+00
    Scaling for response (A<-B) =   1.078E+00
    Scaling for response (B<-A) =   1.030E+00
    Scaling for total (A<-B)    =   1.539E+00
    Scaling for total (B<-A)    =   1.470E+00

  ==> F-SAPT Dispersion <==

  ==> DFERI: Density Fitted 3-Index Tensors <==

    Schwarz cutoff =   0.000E+00
    J cutoff       =   1.000E-12
    Mem (GB)       =         628

   => Auxiliary Basis <=

  Basis Set: (JUN-CC-PVDZ AUX)
    Blend: JUN-CC-PVDZ-RI
    Number of shells: 465
    Number of basis function: 1357
    Number of Cartesian functions: 1562
    Spherical Harmonics?: true
    Max angular momentum: 3

    Disp20              =    -0.004897662988 [Eh]
    Exch-Disp20         =     0.000683261968 [Eh]

  ==> F-SAPT Output <==

    F-SAPT Data Filepath = fsapt/

  ==> Results <==


    SAPT Results  
  --------------------------------------------------------------------------------------------------------
    Electrostatics                 11.49690270 [mEh]       7.21441567 [kcal/mol]      30.18511804 [kJ/mol]
      Elst10,r                     11.49690270 [mEh]       7.21441567 [kcal/mol]      30.18511804 [kJ/mol]

    Exchange                        9.49834462 [mEh]       5.96030148 [kcal/mol]      24.93790379 [kJ/mol]
      Exch10                        9.49834462 [mEh]       5.96030148 [kcal/mol]      24.93790379 [kJ/mol]
      Exch10(S^2)                   9.45600906 [mEh]       5.93373552 [kcal/mol]      24.82675179 [kJ/mol]

    Induction                      -2.25782741 [mEh]      -1.41680815 [kcal/mol]      -5.92792585 [kJ/mol]
      Ind20,r                      -4.29719867 [mEh]      -2.69653299 [kcal/mol]     -11.28229512 [kJ/mol]
      Exch-Ind20,r                  2.71572010 [mEh]       1.70414016 [kcal/mol]       7.13012313 [kJ/mol]
      delta HF,r (2)               -0.67634883 [mEh]      -0.42441532 [kcal/mol]      -1.77575386 [kJ/mol]
      Induction (A<-B)             -1.63276496 [mEh]      -1.02457553 [kcal/mol]      -4.28682442 [kJ/mol]
      Induction (B<-A)             -0.62506244 [mEh]      -0.39223262 [kcal/mol]      -1.64110144 [kJ/mol]

    Dispersion                     -4.21440102 [mEh]      -2.64457668 [kcal/mol]     -11.06490988 [kJ/mol]
      Disp20                       -4.89766299 [mEh]      -3.07333005 [kcal/mol]     -12.85881417 [kJ/mol]
      Exch-Disp20                   0.68326197 [mEh]       0.42875338 [kcal/mol]       1.79390430 [kJ/mol]

  Total HF                         18.73741991 [mEh]      11.75790900 [kcal/mol]      49.19509598 [kJ/mol]
  Total SAPT0                      14.52301889 [mEh]       9.11333232 [kcal/mol]      38.13018610 [kJ/mol]

  --------------------------------------------------------------------------------------------------------
    Han Solo: This is *not* gonna work.
    Luke Skywalker: Why didn't you say so before?
    Han Solo: I *did* say so before.

*** tstop() called on ThinkPad-P50 at Tue Dec 12 11:55:30 2017
Module time:
	user time   =     888.28 seconds =      14.80 minutes
	system time =       6.61 seconds =       0.11 minutes
	total time  =        896 seconds =      14.93 minutes
Total time:
	user time   =    1255.69 seconds =      20.93 minutes
	system time =      10.01 seconds =       0.17 minutes
	total time  =       1269 seconds =      21.15 minutes

*** Psi4 exiting successfully. Buy a developer a beer!
