
    -----------------------------------------------------------------------
          Psi4: An Open-Source Ab Initio Electronic Structure Package
                               Psi4 1.1 release

                         Git: Rev {HEAD} add49b9 


    R. M. Parrish, L. A. Burns, D. G. A. Smith, A. C. Simmonett,
    A. E. DePrince III, E. G. Hohenstein, U. Bozkaya, A. Yu. Sokolov,
    R. Di Remigio, R. M. Richard, J. F. Gonthier, A. M. James,
    H. R. McAlexander, A. Kumar, M. Saitow, X. Wang, B. P. Pritchard,
    P. Verma, H. F. Schaefer III, K. Patkowski, R. A. King, E. F. Valeev,
    F. A. Evangelista, J. M. Turney, T. D. Crawford, and C. D. Sherrill,
    J. Chem. Theory Comput. in press (2017).
    (doi: 10.1021/acs.jctc.7b00174)

    -----------------------------------------------------------------------


    Psi4 started on: Wednesday, 18 October 2017 07:24PM

    Process ID:  53299
    PSIDATADIR: /opt/software/psi4/psi4conda/share/psi4
    Memory:     500.0 MiB
    Threads:    48
    
  ==> Input File <==

--------------------------------------------------------------------------
memory 750000 mb

molecule mol {
0 1
C          2.06118       -2.03239       -0.96737
H          2.99054       -1.90032       -1.52611
H          2.15103       -2.90365       -0.31831
H          1.25402       -2.21962       -1.67705
--
0 1
C         -0.56632       -1.79004        0.40669
O         -0.32100       -2.97037        0.49680
O         -1.78262       -1.31841        0.09460
C         -2.79967       -2.29767       -0.18708
H         -2.49726       -2.92789       -1.02402
H         -2.97969       -2.92140        0.68962
H         -3.68807       -1.72428       -0.44168
--
0 1
C          1.31577        2.73369       -0.68220
H          2.27987        2.99232       -1.12558
H          1.07733        3.48393        0.07758
H          0.55583        2.76206       -1.46173
C         -1.14811        1.17238       -0.13345
O         -1.29212        1.16687       -1.32838
O         -2.11227        1.58364        0.72677
C         -3.37525        1.91728        0.12882
H         -3.26453        2.74764       -0.57053
H         -3.78000        1.05521       -0.40443
H         -4.02558        2.19658        0.95517
C          0.10963        0.80645        0.63885
C          0.46432       -0.71766        0.71374
C          1.40111        1.36200       -0.04815
C          2.58556        1.18150        0.94929
C          2.93559       -0.31851        0.77196
C          1.79220       -0.78417       -0.16026
O          1.65586        0.34770       -1.03108
H         -0.00830        1.20976        1.64430
H          0.73897       -0.95221        1.74488
H          3.41708        1.82542        0.65862
H          2.30451        1.44513        1.97137
H          3.89100       -0.44306        0.25852
H          2.97559       -0.87902        1.70795

symmetry c1
no_reorient
no_com
}

set {
basis jun-cc-pvdz
scf_type df
guess sad
freeze_core true
}

energy('fisapt0')
--------------------------------------------------------------------------

  Memory set to 698.492 GiB by Python driver.

*** tstart() called on vega05.cac.cornell.edu
*** at Wed Oct 18 19:24:31 2017

   => Loading Basis Set <=

    Name: JUN-CC-PVDZ
    Role: ORBITAL
    Keyword: BASIS
    atoms 1, 5, 8, 12, 16, 19, 23-28     entry C          line   157 file /opt/software/psi4/psi4conda/share/psi4/basis/jun-cc-pvdz.gbs 
    atoms 2-4, 9-11, 13-15, 20-22, 30-35 entry H          line    35 file /opt/software/psi4/psi4conda/share/psi4/basis/jun-cc-pvdz.gbs 
    atoms 6-7, 17-18, 29                 entry O          line   225 file /opt/software/psi4/psi4conda/share/psi4/basis/jun-cc-pvdz.gbs 


         ---------------------------------------------------------
                                   SCF
            by Justin Turney, Rob Parrish, and Andy Simmonett
                              RHF Reference
                       48 Threads, 715255 MiB Core
         ---------------------------------------------------------

  ==> Geometry <==

    Molecular point group: c1
    Full point group: C1

    Geometry (in Angstrom), charge = 0, multiplicity = 1:

       Center              X                  Y                   Z               Mass       
    ------------   -----------------  -----------------  -----------------  -----------------
           C          2.061180000000    -2.032390000000    -0.967370000000    12.000000000000
           H          2.990540000000    -1.900320000000    -1.526110000000     1.007825032070
           H          2.151030000000    -2.903650000000    -0.318310000000     1.007825032070
           H          1.254020000000    -2.219620000000    -1.677050000000     1.007825032070
           C         -0.566320000000    -1.790040000000     0.406690000000    12.000000000000
           O         -0.321000000000    -2.970370000000     0.496800000000    15.994914619560
           O         -1.782620000000    -1.318410000000     0.094600000000    15.994914619560
           C         -2.799670000000    -2.297670000000    -0.187080000000    12.000000000000
           H         -2.497260000000    -2.927890000000    -1.024020000000     1.007825032070
           H         -2.979690000000    -2.921400000000     0.689620000000     1.007825032070
           H         -3.688070000000    -1.724280000000    -0.441680000000     1.007825032070
           C          1.315770000000     2.733690000000    -0.682200000000    12.000000000000
           H          2.279870000000     2.992320000000    -1.125580000000     1.007825032070
           H          1.077330000000     3.483930000000     0.077580000000     1.007825032070
           H          0.555830000000     2.762060000000    -1.461730000000     1.007825032070
           C         -1.148110000000     1.172380000000    -0.133450000000    12.000000000000
           O         -1.292120000000     1.166870000000    -1.328380000000    15.994914619560
           O         -2.112270000000     1.583640000000     0.726770000000    15.994914619560
           C         -3.375250000000     1.917280000000     0.128820000000    12.000000000000
           H         -3.264530000000     2.747640000000    -0.570530000000     1.007825032070
           H         -3.780000000000     1.055210000000    -0.404430000000     1.007825032070
           H         -4.025580000000     2.196580000000     0.955170000000     1.007825032070
           C          0.109630000000     0.806450000000     0.638850000000    12.000000000000
           C          0.464320000000    -0.717660000000     0.713740000000    12.000000000000
           C          1.401110000000     1.362000000000    -0.048150000000    12.000000000000
           C          2.585560000000     1.181500000000     0.949290000000    12.000000000000
           C          2.935590000000    -0.318510000000     0.771960000000    12.000000000000
           C          1.792200000000    -0.784170000000    -0.160260000000    12.000000000000
           O          1.655860000000     0.347700000000    -1.031080000000    15.994914619560
           H         -0.008300000000     1.209760000000     1.644300000000     1.007825032070
           H          0.738970000000    -0.952210000000     1.744880000000     1.007825032070
           H          3.417080000000     1.825420000000     0.658620000000     1.007825032070
           H          2.304510000000     1.445130000000     1.971370000000     1.007825032070
           H          3.891000000000    -0.443060000000     0.258520000000     1.007825032070
           H          2.975590000000    -0.879020000000     1.707950000000     1.007825032070

  Running in c1 symmetry.

  Rotational constants: A =      0.02065  B =      0.01636  C =      0.01064 [cm^-1]
  Rotational constants: A =    619.06510  B =    490.57278  C =    318.86352 [MHz]
  Nuclear repulsion = 1395.616587452857402

  Charge       = 0
  Multiplicity = 1
  Electrons    = 130
  Nalpha       = 65
  Nbeta        = 65

  ==> Algorithm <==

  SCF Algorithm Type is DF.
  DIIS enabled.
  MOM disabled.
  Fractional occupation disabled.
  Guess Type is SAD.
  Energy threshold   = 1.00e-08
  Density threshold  = 1.00e-08
  Integral threshold = 0.00e+00

  ==> Primary Basis <==

  Basis Set: JUN-CC-PVDZ
    Blend: JUN-CC-PVDZ
    Number of shells: 190
    Number of basis function: 396
    Number of Cartesian functions: 413
    Spherical Harmonics?: true
    Max angular momentum: 2

   => Loading Basis Set <=

    Name: (JUN-CC-PVDZ AUX)
    Role: JKFIT
    Keyword: DF_BASIS_SCF
    atoms 1, 5, 8, 12, 16, 19, 23-28     entry C          line   145 file /opt/software/psi4/psi4conda/share/psi4/basis/jun-cc-pvdz-jkfit.gbs 
    atoms 2-4, 9-11, 13-15, 20-22, 30-35 entry H          line    69 file /opt/software/psi4/psi4conda/share/psi4/basis/jun-cc-pvdz-jkfit.gbs 
    atoms 6-7, 17-18, 29                 entry O          line   257 file /opt/software/psi4/psi4conda/share/psi4/basis/jun-cc-pvdz-jkfit.gbs 

  ==> Pre-Iterations <==

   -------------------------------------------------------
    Irrep   Nso     Nmo     Nalpha   Nbeta   Ndocc  Nsocc
   -------------------------------------------------------
     A        396     396       0       0       0       0
   -------------------------------------------------------
    Total     396     396      65      65      65       0
   -------------------------------------------------------

  ==> Integral Setup <==

  ==> DFJK: Density-Fitted J/K Matrices <==

    J tasked:                  Yes
    K tasked:                  Yes
    wK tasked:                  No
    OpenMP threads:             48
    Integrals threads:          48
    Memory (MB):            536441
    Algorithm:                Core
    Integral Cache:           NONE
    Schwarz Cutoff:          1E-12
    Fitting Condition:       1E-12

   => Auxiliary Basis Set <=

  Basis Set: (JUN-CC-PVDZ AUX)
    Blend: JUN-CC-PVDZ-JKFIT
    Number of shells: 621
    Number of basis function: 1757
    Number of Cartesian functions: 1997
    Spherical Harmonics?: true
    Max angular momentum: 3

  Minimum eigenvalue in the overlap matrix is 6.7977975385E-06.
  Using Symmetric Orthogonalization.

  SCF Guess: Superposition of Atomic Densities via on-the-fly atomic UHF.

  ==> Iterations <==

                           Total Energy        Delta E     RMS |[F,P]|

   @DF-RHF iter   0:  -846.72355262559813   -8.46724e+02   1.29429e-01 
   @DF-RHF iter   1:  -838.80209558944807    7.92146e+00   1.24729e-02 
   @DF-RHF iter   2:  -839.20899392029855   -4.06898e-01   2.22650e-03 DIIS
   @DF-RHF iter   3:  -839.28595869605931   -7.69648e-02   2.39091e-03 DIIS
   @DF-RHF iter   4:  -839.30211422677814   -1.61555e-02   6.69140e-04 DIIS
   @DF-RHF iter   5:  -839.30338977519068   -1.27555e-03   2.69647e-04 DIIS
   @DF-RHF iter   6:  -839.30368258741328   -2.92812e-04   1.18791e-04 DIIS
   @DF-RHF iter   7:  -839.30374812943444   -6.55420e-05   3.59817e-05 DIIS
   @DF-RHF iter   8:  -839.30376186227659   -1.37328e-05   1.62966e-05 DIIS
   @DF-RHF iter   9:  -839.30376472130888   -2.85903e-06   7.23528e-06 DIIS
   @DF-RHF iter  10:  -839.30376505325421   -3.31945e-07   2.32158e-06 DIIS
   @DF-RHF iter  11:  -839.30376509278733   -3.95331e-08   7.38803e-07 DIIS
   @DF-RHF iter  12:  -839.30376509608811   -3.30078e-09   3.36963e-07 DIIS
   @DF-RHF iter  13:  -839.30376509659948   -5.11363e-10   1.57743e-07 DIIS
   @DF-RHF iter  14:  -839.30376509667951   -8.00355e-11   4.52284e-08 DIIS
   @DF-RHF iter  15:  -839.30376509669952   -2.00089e-11   2.15889e-08 DIIS
   @DF-RHF iter  16:  -839.30376509669588    3.63798e-12   5.90425e-09 DIIS

  ==> Post-Iterations <==

    Orbital Energies (a.u.)
    -----------------------

    Doubly Occupied:                                                      

       1A    -20.616549     2A    -20.605323     3A    -20.560035  
       4A    -20.555684     5A    -20.545241     6A    -11.396273  
       7A    -11.385215     8A    -11.301130     9A    -11.299879  
      10A    -11.299750    11A    -11.292671    12A    -11.269623  
      13A    -11.261928    14A    -11.237358    15A    -11.235123  
      16A    -11.224140    17A    -11.219648    18A     -1.474094  
      19A     -1.458731    20A     -1.400730    21A     -1.369083  
      22A     -1.358522    23A     -1.112345    24A     -1.073767  
      25A     -1.049370    26A     -0.994606    27A     -0.975598  
      28A     -0.968599    29A     -0.912085    30A     -0.872983  
      31A     -0.812891    32A     -0.785974    33A     -0.769048  
      34A     -0.756279    35A     -0.715045    36A     -0.693537  
      37A     -0.690536    38A     -0.677745    39A     -0.665254  
      40A     -0.663416    41A     -0.658510    42A     -0.643159  
      43A     -0.625238    44A     -0.598004    45A     -0.590176  
      46A     -0.583183    47A     -0.573193    48A     -0.561959  
      49A     -0.555401    50A     -0.547863    51A     -0.543795  
      52A     -0.528926    53A     -0.525390    54A     -0.506958  
      55A     -0.504758    56A     -0.501133    57A     -0.497424  
      58A     -0.482924    59A     -0.471837    60A     -0.467624  
      61A     -0.460372    62A     -0.451909    63A     -0.444488  
      64A     -0.428644    65A     -0.417852  

    Virtual:                                                              

      66A      0.048861    67A      0.053169    68A      0.058610  
      69A      0.068129    70A      0.068822    71A      0.076076  
      72A      0.084366    73A      0.092387    74A      0.094890  
      75A      0.103914    76A      0.109499    77A      0.113740  
      78A      0.114591    79A      0.118188    80A      0.129777  
      81A      0.131140    82A      0.133460    83A      0.143311  
      84A      0.146703    85A      0.152515    86A      0.157268  
      87A      0.163693    88A      0.168342    89A      0.170623  
      90A      0.174216    91A      0.176981    92A      0.184205  
      93A      0.195451    94A      0.200837    95A      0.202824  
      96A      0.206755    97A      0.208111    98A      0.217240  
      99A      0.220965   100A      0.228174   101A      0.232898  
     102A      0.236716   103A      0.240934   104A      0.243930  
     105A      0.253779   106A      0.254618   107A      0.257136  
     108A      0.262021   109A      0.263204   110A      0.268401  
     111A      0.276498   112A      0.282615   113A      0.291794  
     114A      0.295216   115A      0.298987   116A      0.304682  
     117A      0.309444   118A      0.316021   119A      0.322257  
     120A      0.331963   121A      0.342258   122A      0.344068  
     123A      0.352418   124A      0.359594   125A      0.365551  
     126A      0.367416   127A      0.370763   128A      0.371361  
     129A      0.377856   130A      0.388161   131A      0.390102  
     132A      0.391253   133A      0.394793   134A      0.399635  
     135A      0.405757   136A      0.408267   137A      0.414075  
     138A      0.421278   139A      0.423148   140A      0.427031  
     141A      0.430165   142A      0.437379   143A      0.443549  
     144A      0.448631   145A      0.458246   146A      0.465104  
     147A      0.474606   148A      0.479628   149A      0.482184  
     150A      0.486259   151A      0.493396   152A      0.502226  
     153A      0.504443   154A      0.508861   155A      0.517175  
     156A      0.522755   157A      0.534368   158A      0.542199  
     159A      0.545414   160A      0.556972   161A      0.564396  
     162A      0.575854   163A      0.591972   164A      0.594493  
     165A      0.606510   166A      0.613797   167A      0.638958  
     168A      0.648194   169A      0.668391   170A      0.703601  
     171A      0.731027   172A      0.745547   173A      0.770823  
     174A      0.781129   175A      0.793434   176A      0.798551  
     177A      0.804955   178A      0.811672   179A      0.831958  
     180A      0.837380   181A      0.860854   182A      0.868724  
     183A      0.883874   184A      0.887266   185A      0.892343  
     186A      0.903064   187A      0.911681   188A      0.913312  
     189A      0.918291   190A      0.926487   191A      0.932177  
     192A      0.941018   193A      0.942744   194A      0.945143  
     195A      0.948703   196A      0.951657   197A      0.956382  
     198A      0.964485   199A      0.971373   200A      0.976058  
     201A      0.981447   202A      0.989098   203A      0.995886  
     204A      1.006847   205A      1.008386   206A      1.013781  
     207A      1.019555   208A      1.026719   209A      1.048293  
     210A      1.052661   211A      1.064534   212A      1.072552  
     213A      1.077911   214A      1.085804   215A      1.099955  
     216A      1.107713   217A      1.114919   218A      1.116909  
     219A      1.129955   220A      1.135021   221A      1.144304  
     222A      1.166346   223A      1.172885   224A      1.192721  
     225A      1.212986   226A      1.226668   227A      1.243542  
     228A      1.266273   229A      1.290742   230A      1.302871  
     231A      1.321961   232A      1.338123   233A      1.343338  
     234A      1.378610   235A      1.424870   236A      1.428625  
     237A      1.448224   238A      1.472278   239A      1.481480  
     240A      1.488568   241A      1.501637   242A      1.502898  
     243A      1.516499   244A      1.533030   245A      1.546675  
     246A      1.554682   247A      1.572079   248A      1.578998  
     249A      1.592195   250A      1.594906   251A      1.607582  
     252A      1.624834   253A      1.635032   254A      1.642960  
     255A      1.653933   256A      1.662594   257A      1.667937  
     258A      1.671124   259A      1.672405   260A      1.697025  
     261A      1.706593   262A      1.708769   263A      1.718935  
     264A      1.726887   265A      1.735501   266A      1.754234  
     267A      1.768159   268A      1.773576   269A      1.787413  
     270A      1.813410   271A      1.816224   272A      1.850564  
     273A      1.861340   274A      1.868885   275A      1.873644  
     276A      1.876085   277A      1.882705   278A      1.910912  
     279A      1.924346   280A      1.933761   281A      1.940329  
     282A      1.950771   283A      1.957765   284A      1.961821  
     285A      1.975785   286A      1.980993   287A      1.985591  
     288A      1.987881   289A      2.002286   290A      2.012238  
     291A      2.025148   292A      2.028298   293A      2.030487  
     294A      2.038844   295A      2.042933   296A      2.059961  
     297A      2.068769   298A      2.071610   299A      2.075797  
     300A      2.087578   301A      2.100693   302A      2.107003  
     303A      2.110563   304A      2.122947   305A      2.137531  
     306A      2.149869   307A      2.163722   308A      2.169359  
     309A      2.175913   310A      2.184819   311A      2.201579  
     312A      2.203013   313A      2.222882   314A      2.244303  
     315A      2.259849   316A      2.271969   317A      2.290637  
     318A      2.310625   319A      2.322001   320A      2.329301  
     321A      2.336751   322A      2.347785   323A      2.362031  
     324A      2.383074   325A      2.387368   326A      2.391112  
     327A      2.394998   328A      2.400584   329A      2.416321  
     330A      2.431903   331A      2.439513   332A      2.446456  
     333A      2.457546   334A      2.479641   335A      2.500293  
     336A      2.516819   337A      2.529256   338A      2.550012  
     339A      2.586487   340A      2.604413   341A      2.616972  
     342A      2.634885   343A      2.674631   344A      2.687116  
     345A      2.709246   346A      2.735850   347A      2.755976  
     348A      2.766799   349A      2.785943   350A      2.790010  
     351A      2.793278   352A      2.811197   353A      2.826671  
     354A      2.850507   355A      2.851883   356A      2.860880  
     357A      2.877056   358A      2.883759   359A      2.887799  
     360A      2.892977   361A      2.901060   362A      2.914927  
     363A      2.933480   364A      2.946449   365A      2.954908  
     366A      2.965498   367A      2.985166   368A      3.024064  
     369A      3.034082   370A      3.054139   371A      3.061042  
     372A      3.123121   373A      3.131232   374A      3.160358  
     375A      3.250302   376A      3.274106   377A      3.300268  
     378A      3.323865   379A      3.376559   380A      3.394577  
     381A      3.415949   382A      3.426887   383A      3.516307  
     384A      3.547077   385A      3.569923   386A      3.587534  
     387A      3.681961   388A      3.712767   389A      3.735834  
     390A      3.785739   391A      3.796818   392A      3.913293  
     393A      3.945350   394A      3.978410   395A      4.075645  
     396A      4.132722  

    Final Occupation by Irrep:
              A 
    DOCC [    65 ]

  Energy converged.

  @DF-RHF Final Energy:  -839.30376509669588

   => Energetics <=

    Nuclear Repulsion Energy =           1395.6165874528574022
    One-Electron Energy =               -3922.3876414380370079
    Two-Electron Energy =                1687.4672888884836084
    DFT Exchange-Correlation Energy =       0.0000000000000000
    Empirical Dispersion Energy =           0.0000000000000000
    PCM Polarization Energy =               0.0000000000000000
    EFP Energy =                            0.0000000000000000
    Total Energy =                       -839.3037650966959973



Properties will be evaluated at   0.000000,   0.000000,   0.000000 Bohr

Properties computed using the SCF density matrix

  Nuclear Dipole Moment: (a.u.)
     X:     2.3266      Y:     1.3591      Z:     2.6707

  Electronic Dipole Moment: (a.u.)
     X:    -2.7337      Y:    -0.8231      Z:    -1.6030

  Dipole Moment: (a.u.)
     X:    -0.4071      Y:     0.5360      Z:     1.0677     Total:     1.2622

  Dipole Moment: (Debye)
     X:    -1.0347      Y:     1.3624      Z:     2.7139     Total:     3.2081


*** tstop() called on vega05.cac.cornell.edu at Wed Oct 18 19:25:22 2017
Module time:
	user time   =     802.70 seconds =      13.38 minutes
	system time =       8.07 seconds =       0.13 minutes
	total time  =         51 seconds =       0.85 minutes
Total time:
	user time   =     802.70 seconds =      13.38 minutes
	system time =       8.07 seconds =       0.13 minutes
	total time  =         51 seconds =       0.85 minutes
   => Loading Basis Set <=

    Name: (JUN-CC-PVDZ AUX)
    Role: JKFIT
    Keyword: DF_BASIS_SCF
    atoms 1, 5, 8, 12, 16, 19, 23-28     entry C          line   145 file /opt/software/psi4/psi4conda/share/psi4/basis/jun-cc-pvdz-jkfit.gbs 
    atoms 2-4, 9-11, 13-15, 20-22, 30-35 entry H          line    69 file /opt/software/psi4/psi4conda/share/psi4/basis/jun-cc-pvdz-jkfit.gbs 
    atoms 6-7, 17-18, 29                 entry O          line   257 file /opt/software/psi4/psi4conda/share/psi4/basis/jun-cc-pvdz-jkfit.gbs 

   => Loading Basis Set <=

    Name: (JUN-CC-PVDZ AUX)
    Role: RIFIT
    Keyword: DF_BASIS_SAPT
    atoms 1, 5, 8, 12, 16, 19, 23-28     entry C          line    99 file /opt/software/psi4/psi4conda/share/psi4/basis/jun-cc-pvdz-ri.gbs 
    atoms 2-4, 9-11, 13-15, 20-22, 30-35 entry H          line    29 file /opt/software/psi4/psi4conda/share/psi4/basis/jun-cc-pvdz-ri.gbs 
    atoms 6-7, 17-18, 29                 entry O          line   187 file /opt/software/psi4/psi4conda/share/psi4/basis/jun-cc-pvdz-ri.gbs 

   => Loading Basis Set <=

    Name: CC-PVTZ-MINAO
    Role: ORBITAL
    Keyword: BASIS
    atoms 1, 5, 8, 12, 16, 19, 23-28     entry C          line   130 file /opt/software/psi4/psi4conda/share/psi4/basis/cc-pvtz-minao.gbs 
    atoms 2-4, 9-11, 13-15, 20-22, 30-35 entry H          line    19 file /opt/software/psi4/psi4conda/share/psi4/basis/cc-pvtz-minao.gbs 
    atoms 6-7, 17-18, 29                 entry O          line   190 file /opt/software/psi4/psi4conda/share/psi4/basis/cc-pvtz-minao.gbs 


*** tstart() called on vega05.cac.cornell.edu
*** at Wed Oct 18 19:25:22 2017

	 --------------------------------------------
	                    FISAPT0                  
	                  Rob Parrish                
	 --------------------------------------------

    Do F-SAPT =         Yes
    Do Plot   =          No
    Memory    =      78.580 [GD]

  ==> Localization (IBO) <==

  ==> IBO Localizer 2 <==

    MinAO Basis = CC-PVTZ-MINAO
    Use Ghosts  =       FALSE
    Use Stars   =       FALSE
    Condition   =   1.000E-07
    Power       =           4
    Convergence =   1.000E-12
    Maxiter     =        1000

    @IBO Iter:                   Metric       Gradient
    @IBO    1:   2.0283965755270503E+00   2.191259E+00
    @IBO    2:   2.2345962111252535E+00   2.565389E+00
    @IBO    3:   2.3383705305458009E+00   1.213926E+00
    @IBO    4:   2.3576988536148091E+00   2.679310E-01
    @IBO    5:   2.3585872625075481E+00   1.826504E-02
    @IBO    6:   2.3585892544289702E+00   1.876742E-04
    @IBO    7:   2.3585892546807790E+00   3.262285E-06
    @IBO    8:   2.3585892546808669E+00   9.163961E-08
    @IBO    9:   2.3585892546808673E+00   3.161750E-09
    @IBO   10:   2.3585892546808669E+00   1.197095E-10
    @IBO   11:   2.3585892546808669E+00   4.980454E-12
    @IBO   12:   2.3585892546808669E+00   2.181243E-13

    IBO Localizer 2 converged.

  ==> Partitioning <==

   => Atomic Partitioning <= 

    Monomer A:   4 atoms
    Monomer B:   7 atoms
    Monomer C:  24 atoms

   => Link Bond Identification <=

    Link Bond Selection = AUTOMATIC

    Charge Completeness = 0.800

    Total Link Bonds = 2

    --------------------------
    N     Orb Type Aind1 Aind2
    --------------------------
    1      17   AC     1    28
    2      52   BC     5    24
    --------------------------

   => Link Bond Assignment <=

    Link Bond Assignment      = C

   => Partition Summary <=

    Monomer A:  0 charge,   8 protons,   8 electrons,   4 docc
    Monomer B:  0 charge,  30 protons,  30 electrons,  15 docc
    Monomer C:  0 charge,  92 protons,  92 electrons,  46 docc

  ==> Overlap Integrals <==

  ==> Kinetic Integrals <==

  ==> Nuclear Integrals <==

    Nuclear Repulsion Tot:   1.3956165874528588E+03 [Eh]

  ==> Coulomb Integrals <==

  ==> DFJK: Density-Fitted J/K Matrices <==

    J tasked:                  Yes
    K tasked:                  Yes
    wK tasked:                  No
    OpenMP threads:             48
    Integrals threads:          48
    Memory (MB):            643730
    Algorithm:                Core
    Integral Cache:           NONE
    Schwarz Cutoff:          1E-12
    Fitting Condition:       1E-12

   => Auxiliary Basis Set <=

  Basis Set: (JUN-CC-PVDZ AUX)
    Blend: JUN-CC-PVDZ-JKFIT
    Number of shells: 621
    Number of basis function: 1757
    Number of Cartesian functions: 1997
    Spherical Harmonics?: true
    Max angular momentum: 3

  ==> Relaxed SCF Equations <==

  ==> SCF A: <==

    Maxiter =          50
    E Tol   =   1.000E-06
    D Tol   =   1.000E-08

    Max DIIS Vectors = 5

    Iter   N:                        E          dE         |D|
    Iter   1:  -3.6230705230130475E+01  -3.623E+01   1.644E-03 
    Iter   2:  -3.6233301729789702E+01  -2.596E-03   1.604E-04 DIIS
    Iter   3:  -3.6233375221544854E+01  -7.349E-05   2.462E-05 DIIS
    Iter   4:  -3.6233379751987016E+01  -4.530E-06   6.926E-06 DIIS
    Iter   5:  -3.6233380013041952E+01  -2.611E-07   1.628E-06 DIIS
    Iter   6:  -3.6233380024609716E+01  -1.157E-08   2.565E-07 DIIS
    Iter   7:  -3.6233380024852302E+01  -2.426E-10   3.315E-08 DIIS
    Iter   8:  -3.6233380024856032E+01  -3.730E-12   4.797E-09 DIIS

    FISAPTSCF Converged.

    Final SCF Energy:  -3.6233380024856032E+01 [Eh]

   => Occupied Orbital Energies <=

       1  -11.222216     2   -0.838623     3   -0.552411  
       4   -0.544777  

   => Virtual Orbital Energies <=

       5    0.028710     6    0.053657     7    0.056890  
       8    0.064656     9    0.068351    10    0.072943  
      11    0.083437    12    0.087241    13    0.093375  
      14    0.097377    15    0.098610    16    0.111828  
      17    0.112595    18    0.117113    19    0.125267  
      20    0.131130    21    0.132806    22    0.136655  
      23    0.142439    24    0.143166    25    0.157012  
      26    0.161926    27    0.164919    28    0.170749  
      29    0.172679    30    0.180054    31    0.181161  
      32    0.187873    33    0.196704    34    0.200836  
      35    0.209383    36    0.209889    37    0.216447  
      38    0.221464    39    0.224124    40    0.235059  
      41    0.239776    42    0.242814    43    0.246846  
      44    0.248507    45    0.254311    46    0.257378  
      47    0.261636    48    0.267405    49    0.272249  
      50    0.277877    51    0.281171    52    0.292017  
      53    0.293680    54    0.297865    55    0.309660  
      56    0.315429    57    0.315520    58    0.320471  
      59    0.331514    60    0.334867    61    0.336197  
      62    0.339144    63    0.346114    64    0.360104  
      65    0.363823    66    0.369109    67    0.374811  
      68    0.382271    69    0.382487    70    0.390496  
      71    0.394807    72    0.398960    73    0.403256  
      74    0.408875    75    0.416949    76    0.422591  
      77    0.426877    78    0.432707    79    0.436115  
      80    0.437844    81    0.449137    82    0.452273  
      83    0.454920    84    0.461526    85    0.467107  
      86    0.476791    87    0.483327    88    0.492336  
      89    0.499108    90    0.508969    91    0.517259  
      92    0.525988    93    0.531316    94    0.540724  
      95    0.545888    96    0.564134    97    0.573683  
      98    0.574715    99    0.583381   100    0.593506  
     101    0.597363   102    0.606104   103    0.618473  
     104    0.626121   105    0.633806   106    0.640110  
     107    0.653552   108    0.658186   109    0.672491  
     110    0.683491   111    0.718881   112    0.746332  
     113    0.757338   114    0.769925   115    0.790902  
     116    0.798549   117    0.806072   118    0.818395  
     119    0.843640   120    0.855694   121    0.864232  
     122    0.886048   123    0.890003   124    0.899592  
     125    0.904462   126    0.913289   127    0.924710  
     128    0.931012   129    0.937323   130    0.939021  
     131    0.949442   132    0.954583   133    0.959583  
     134    0.965087   135    0.969912   136    0.976153  
     137    0.976301   138    0.987944   139    0.989864  
     140    0.992379   141    0.999291   142    1.009219  
     143    1.010393   144    1.022037   145    1.032699  
     146    1.043057   147    1.048754   148    1.067133  
     149    1.083051   150    1.086027   151    1.099776  
     152    1.104038   153    1.109337   154    1.118944  
     155    1.128840   156    1.138388   157    1.146975  
     158    1.156465   159    1.161460   160    1.172766  
     161    1.195133   162    1.203175   163    1.227529  
     164    1.248422   165    1.269082   166    1.299653  
     167    1.304587   168    1.338059   169    1.342624  
     170    1.389686   171    1.409078   172    1.449500  
     173    1.453920   174    1.481856   175    1.491860  
     176    1.506104   177    1.522593   178    1.535320  
     179    1.549773   180    1.560062   181    1.568835  
     182    1.580240   183    1.599467   184    1.605142  
     185    1.612099   186    1.614836   187    1.634895  
     188    1.649645   189    1.657176   190    1.667862  
     191    1.674541   192    1.688260   193    1.696044  
     194    1.707261   195    1.715184   196    1.716933  
     197    1.736967   198    1.745396   199    1.754775  
     200    1.783769   201    1.798564   202    1.804039  
     203    1.821679   204    1.832692   205    1.844648  
     206    1.850562   207    1.875658   208    1.876868  
     209    1.897210   210    1.898938   211    1.917907  
     212    1.934423   213    1.945662   214    1.948078  
     215    1.963243   216    1.966662   217    1.978227  
     218    1.991037   219    1.994928   220    2.004275  
     221    2.015889   222    2.021972   223    2.026200  
     224    2.028438   225    2.034519   226    2.039879  
     227    2.049404   228    2.070882   229    2.080560  
     230    2.083566   231    2.099355   232    2.105521  
     233    2.114559   234    2.126734   235    2.131467  
     236    2.144135   237    2.157192   238    2.162270  
     239    2.165477   240    2.175395   241    2.178983  
     242    2.193666   243    2.202567   244    2.217149  
     245    2.243737   246    2.250060   247    2.253048  
     248    2.269956   249    2.285352   250    2.309135  
     251    2.312286   252    2.320562   253    2.329386  
     254    2.348540   255    2.358628   256    2.373539  
     257    2.382836   258    2.385959   259    2.394153  
     260    2.403943   261    2.411380   262    2.423041  
     263    2.434423   264    2.445954   265    2.458707  
     266    2.477848   267    2.485829   268    2.503935  
     269    2.517873   270    2.520843   271    2.552883  
     272    2.586188   273    2.604385   274    2.607553  
     275    2.629221   276    2.649616   277    2.664436  
     278    2.683405   279    2.693482   280    2.704712  
     281    2.725049   282    2.752610   283    2.760880  
     284    2.778269   285    2.789021   286    2.796976  
     287    2.815101   288    2.831990   289    2.841802  
     290    2.859213   291    2.864817   292    2.870916  
     293    2.881497   294    2.888654   295    2.893706  
     296    2.896326   297    2.910185   298    2.927614  
     299    2.942192   300    2.950975   301    2.957836  
     302    2.970182   303    3.005433   304    3.020029  
     305    3.038019   306    3.069899   307    3.082381  
     308    3.091908   309    3.133738   310    3.175384  
     311    3.275825   312    3.326904   313    3.377411  
     314    3.426709   315    3.443626   316    3.479250  
     317    3.552096   318    3.578925   319    3.603840  
     320    3.647764   321    3.733812   322    3.738742  
     323    3.770028   324    3.799418   325    3.932556  
     326    3.964040   327    4.012340   328    4.125772  
     329    4.141312   330    4.207233   331    4.442504  
     332    4.510478   333    4.535436   334    4.748493  
     335    4.945824   336    5.044354   337    5.067833  
     338    5.207048   339    5.327867   340    5.519725  
     341    5.578534   342    5.669726   343    5.825345  
     344    6.234492   345    6.354407   346    6.694142  
     347   13.375318   348   18.429725   349   33.416680  
     350   33.471254  

  ==> SCF B: <==

    Maxiter =          50
    E Tol   =   1.000E-06
    D Tol   =   1.000E-08

    Max DIIS Vectors = 5

    Iter   N:                        E          dE         |D|
    Iter   1:  -2.2436106794343252E+02  -2.244E+02   3.488E-03 
    Iter   2:  -2.2437230764784533E+02  -1.124E-02   3.455E-04 DIIS
    Iter   3:  -2.2437273901398163E+02  -4.314E-04   1.217E-04 DIIS
    Iter   4:  -2.2437277346860711E+02  -3.445E-05   5.657E-05 DIIS
    Iter   5:  -2.2437278166235200E+02  -8.194E-06   1.039E-05 DIIS
    Iter   6:  -2.2437278203304413E+02  -3.707E-07   4.662E-06 DIIS
    Iter   7:  -2.2437278207701354E+02  -4.397E-08   1.540E-06 DIIS
    Iter   8:  -2.2437278208468138E+02  -7.668E-09   5.238E-07 DIIS
    Iter   9:  -2.2437278208561750E+02  -9.361E-10   2.164E-07 DIIS
    Iter  10:  -2.2437278208578380E+02  -1.663E-10   7.859E-08 DIIS
    Iter  11:  -2.2437278208581100E+02  -2.720E-11   1.895E-08 DIIS
    Iter  12:  -2.2437278208581202E+02  -1.023E-12   1.099E-08 DIIS
    Iter  13:  -2.2437278208581290E+02  -8.811E-13   4.650E-09 DIIS

    FISAPTSCF Converged.

    Final SCF Energy:  -2.2437278208581290E+02 [Eh]

   => Occupied Orbital Energies <=

       1  -20.613473     2  -20.553283     3  -11.394144  
       4  -11.298071     5   -1.447004     6   -1.362157  
       7   -0.968001     8   -0.772984     9   -0.675822  
      10   -0.668040    11   -0.628121    12   -0.546548  
      13   -0.541380    14   -0.479238    15   -0.465748  

   => Virtual Orbital Energies <=

      16    0.021129    17    0.050757    18    0.055946  
      19    0.064424    20    0.069293    21    0.075646  
      22    0.082719    23    0.092920    24    0.095634  
      25    0.098571    26    0.105173    27    0.110294  
      28    0.114337    29    0.116313    30    0.118785  
      31    0.127016    32    0.133015    33    0.136032  
      34    0.142147    35    0.149554    36    0.155879  
      37    0.161471    38    0.165897    39    0.168391  
      40    0.175203    41    0.176698    42    0.181598  
      43    0.188115    44    0.196929    45    0.201924  
      46    0.205406    47    0.210199    48    0.212127  
      49    0.221244    50    0.223042    51    0.231312  
      52    0.233256    53    0.238238    54    0.242889  
      55    0.247158    56    0.256673    57    0.257831  
      58    0.259890    59    0.265486    60    0.267942  
      61    0.280317    62    0.283497    63    0.295165  
      64    0.297572    65    0.305763    66    0.311011  
      67    0.314235    68    0.316094    69    0.324740  
      70    0.326738    71    0.341932    72    0.350061  
      73    0.350716    74    0.355490    75    0.363348  
      76    0.369858    77    0.375989    78    0.377609  
      79    0.383407    80    0.386355    81    0.387531  
      82    0.395713    83    0.398254    84    0.404125  
      85    0.410575    86    0.412575    87    0.420180  
      88    0.421841    89    0.430382    90    0.434316  
      91    0.440821    92    0.442084    93    0.449630  
      94    0.455012    95    0.459668    96    0.470023  
      97    0.474631    98    0.481494    99    0.488602  
     100    0.494928   101    0.497185   102    0.509457  
     103    0.515994   104    0.517052   105    0.524265  
     106    0.533788   107    0.541088   108    0.547261  
     109    0.556374   110    0.567561   111    0.574532  
     112    0.583483   113    0.587969   114    0.604527  
     115    0.615721   116    0.626548   117    0.631565  
     118    0.637430   119    0.656515   120    0.663642  
     121    0.683633   122    0.700431   123    0.742043  
     124    0.743824   125    0.764861   126    0.779820  
     127    0.804056   128    0.808201   129    0.814994  
     130    0.818783   131    0.848242   132    0.861886  
     133    0.879798   134    0.887362   135    0.895145  
     136    0.902570   137    0.912568   138    0.918412  
     139    0.925132   140    0.934954   141    0.939834  
     142    0.945908   143    0.950654   144    0.957463  
     145    0.960688   146    0.965057   147    0.977705  
     148    0.977995   149    0.981876   150    0.990393  
     151    0.998328   152    1.003326   153    1.012134  
     154    1.020289   155    1.022202   156    1.040302  
     157    1.043522   158    1.064782   159    1.071333  
     160    1.075095   161    1.083780   162    1.098254  
     163    1.102491   164    1.117726   165    1.122360  
     166    1.129195   167    1.141074   168    1.149002  
     169    1.172458   170    1.183733   171    1.196662  
     172    1.219576   173    1.227844   174    1.253298  
     175    1.275555   176    1.301546   177    1.329284  
     178    1.333663   179    1.355233   180    1.376972  
     181    1.399094   182    1.419846   183    1.439812  
     184    1.457421   185    1.471209   186    1.489770  
     187    1.501253   188    1.509204   189    1.510445  
     190    1.523328   191    1.534025   192    1.541807  
     193    1.546756   194    1.562607   195    1.570203  
     196    1.576956   197    1.595534   198    1.611819  
     199    1.617958   200    1.626389   201    1.640016  
     202    1.661024   203    1.664121   204    1.665157  
     205    1.669749   206    1.677116   207    1.686765  
     208    1.688868   209    1.696375   210    1.713762  
     211    1.718496   212    1.725667   213    1.757357  
     214    1.768170   215    1.769915   216    1.781975  
     217    1.800308   218    1.812913   219    1.836751  
     220    1.857048   221    1.869332   222    1.876524  
     223    1.885790   224    1.889709   225    1.896064  
     226    1.920472   227    1.923943   228    1.941472  
     229    1.953030   230    1.958471   231    1.967079  
     232    1.977024   233    1.982602   234    1.989606  
     235    1.992671   236    2.000181   237    2.002241  
     238    2.018505   239    2.028987   240    2.032422  
     241    2.034359   242    2.042779   243    2.045311  
     244    2.055195   245    2.059139   246    2.072469  
     247    2.082174   248    2.096788   249    2.111025  
     250    2.117179   251    2.135836   252    2.137384  
     253    2.155346   254    2.158923   255    2.165123  
     256    2.173787   257    2.186650   258    2.192798  
     259    2.210461   260    2.226474   261    2.237288  
     262    2.251155   263    2.262324   264    2.276460  
     265    2.283022   266    2.308943   267    2.318427  
     268    2.333058   269    2.350370   270    2.364334  
     271    2.371185   272    2.389399   273    2.394532  
     274    2.408424   275    2.415688   276    2.425476  
     277    2.427766   278    2.434212   279    2.440639  
     280    2.454439   281    2.465589   282    2.492510  
     283    2.511336   284    2.523555   285    2.540000  
     286    2.564878   287    2.575359   288    2.591922  
     289    2.624537   290    2.631359   291    2.647978  
     292    2.664190   293    2.671246   294    2.695724  
     295    2.710032   296    2.748441   297    2.758627  
     298    2.774869   299    2.792509   300    2.801580  
     301    2.810526   302    2.823653   303    2.833913  
     304    2.850166   305    2.862583   306    2.873080  
     307    2.880957   308    2.887248   309    2.902702  
     310    2.915856   311    2.921951   312    2.943110  
     313    2.957154   314    2.968868   315    2.988816  
     316    3.006194   317    3.027918   318    3.043160  
     319    3.053677   320    3.082991   321    3.096429  
     322    3.130021   323    3.143601   324    3.183288  
     325    3.255355   326    3.278275   327    3.304606  
     328    3.328542   329    3.384306   330    3.409984  
     331    3.436700   332    3.453188   333    3.530751  
     334    3.575625   335    3.586203   336    3.592873  
     337    3.685113   338    3.711829   339    3.759196  
     340    3.791466   341    3.800365   342    3.916334  
     343    3.937453   344    3.952670   345    3.991646  
     346    4.077736   347    4.141004   348    4.547207  
     349    4.562219   350   13.297756  

  ==> Frozen Core <==


    ------------------
    Range      A     B
    ------------------
    nbf      396   396
    nmo      350   350
    nocc       4    15
    nvir     346   335
    nfocc      1     4
    naocc      3    11
    navir    346   335
    nfvir      0     0
    ------------------

  ==> Unification <==

  ==> dHF <==

    E ABC(HF) =  -8.3930376509669588E+02 [Eh]
    E AC(0)   =  -6.1126351481704921E+02 [Eh]
    E BC(0)   =  -7.9915699357784547E+02 [Eh]
    E A(0)    =  -2.5030839890486583E+01 [Eh]
    E B(0)    =  -2.1265091868819587E+02 [Eh]
    E AC(HF)  =  -6.1126084002232255E+02 [Eh]
    E BC(HF)  =  -7.9914527943546500E+02 [Eh]
    E AB(HF)  =  -2.3764921125180484E+02 [Eh]
    E A(HF)   =  -2.5016909473792580E+01 [Eh]
    E B(HF)   =  -2.1263138043566198E+02 [Eh]
    E C       =  -5.7110327570344180E+02 [Eh]
    E HF      =   1.3467594757003098E-02 [Eh]

  ==> Electrostatics <==

    Elst10,r            =     0.008888763089 [Eh]

  ==> Exchange <==

    Exch10(S^2)         =     0.006047101779 [Eh]
    Exch10              =     0.006067288135 [Eh]

  ==> Induction <==

    Ind20,u (A<-B)      =    -0.001336096158 [Eh]
    Ind20,u (B<-A)      =    -0.000842442831 [Eh]
    Ind20,u             =    -0.002178538989 [Eh]
    Exch-Ind20,u (A<-B) =     0.000597168263 [Eh]
    Exch-Ind20,u (B<-A) =     0.000616408279 [Eh]
    Exch-Ind20,u        =     0.001213576542 [Eh]

  ==> CPHF Iterations <==

    Maxiter     =          50
    Convergence =   1.000E-08

    -----------------------------------------
    Iter   Monomer A    Monomer B    Time [s]
    -----------------------------------------
    1      1.436E-01    2.541E-01           1
    2      2.439E-02    9.518E-02           2
    3      6.389E-03    2.059E-02           3
    4      8.917E-04    1.028E-02           4
    5      9.647E-05    3.757E-03           5
    6      1.473E-05    1.553E-03           6
    7      2.217E-06    4.003E-04           7
    8      3.385E-07    1.584E-04           8
    9      3.626E-08    4.456E-05           9
    10     3.179E-09*   1.578E-05          10
    11     3.179E-09*   4.440E-06          11
    12     3.179E-09*   8.847E-07          12
    13     3.179E-09*   1.776E-07          12
    14     3.179E-09*   4.175E-08          13
    15     3.179E-09*   9.044E-09*         14
    -----------------------------------------

    Ind20,r (A<-B)      =    -0.001556813998 [Eh]
    Ind20,r (B<-A)      =    -0.001016873722 [Eh]
    Ind20,r             =    -0.002573687719 [Eh]
    Exch-Ind20,r (A<-B) =     0.000714777458 [Eh]
    Exch-Ind20,r (B<-A) =     0.000809940951 [Eh]
    Exch-Ind20,r        =     0.001524718409 [Eh]

  ==> F-SAPT Localization (IBO) <==

  Local Orbitals for Monomer A:

  ==> IBO Localizer 2 <==

    MinAO Basis = CC-PVTZ-MINAO
    Use Ghosts  =       FALSE
    Use Stars   =       FALSE
    Condition   =   1.000E-07
    Power       =           4
    Convergence =   1.000E-12
    Maxiter     =        1000

    @IBO Iter:                   Metric       Gradient
    @IBO    1:   1.0652277584073073E+00   6.421309E-02
    @IBO    2:   1.0831457509186782E+00   2.967222E-02
    @IBO    3:   1.0837974753363340E+00   6.762670E-04
    @IBO    4:   1.0837977929014742E+00   1.366937E-07
    @IBO    5:   1.0837977929014870E+00   4.371000E-11
    @IBO    6:   1.0837977929014870E+00   3.088613E-15

    IBO Localizer 2 converged.

  Local Orbitals for Monomer B:

  ==> IBO Localizer 2 <==

    MinAO Basis = CC-PVTZ-MINAO
    Use Ghosts  =       FALSE
    Use Stars   =       FALSE
    Condition   =   1.000E-07
    Power       =           4
    Convergence =   1.000E-12
    Maxiter     =        1000

    @IBO Iter:                   Metric       Gradient
    @IBO    1:   1.4826682610498281E+00   1.673984E+00
    @IBO    2:   1.6757134352240357E+00   9.264830E-01
    @IBO    3:   1.7082558405752510E+00   3.863410E-01
    @IBO    4:   1.7101942274435475E+00   4.935921E-03
    @IBO    5:   1.7101948171643531E+00   1.411418E-04
    @IBO    6:   1.7101948174249806E+00   1.933641E-06
    @IBO    7:   1.7101948174250570E+00   5.928542E-08
    @IBO    8:   1.7101948174250570E+00   1.411626E-09
    @IBO    9:   1.7101948174250570E+00   4.082136E-11
    @IBO   10:   1.7101948174250570E+00   1.457671E-12
    @IBO   11:   1.7101948174250567E+00   5.829441E-14

    IBO Localizer 2 converged.

  ==> F-SAPT Electrostatics <==

  ==> DFERI: Density Fitted 3-Index Tensors <==

    Schwarz cutoff =   0.000E+00
    J cutoff       =   1.000E-12
    Mem (GB)       =         628

   => Auxiliary Basis <=

  Basis Set: (JUN-CC-PVDZ AUX)
    Blend: JUN-CC-PVDZ-JKFIT
    Number of shells: 621
    Number of basis function: 1757
    Number of Cartesian functions: 1997
    Spherical Harmonics?: true
    Max angular momentum: 3

    Elst10,r            =     0.008888763180 [Eh]

  ==> F-SAPT Exchange <==

  ==> DFERI: Density Fitted 3-Index Tensors <==

    Schwarz cutoff =   0.000E+00
    J cutoff       =   1.000E-12
    Mem (GB)       =         628

   => Auxiliary Basis <=

  Basis Set: (JUN-CC-PVDZ AUX)
    Blend: JUN-CC-PVDZ-JKFIT
    Number of shells: 621
    Number of basis function: 1757
    Number of Cartesian functions: 1997
    Spherical Harmonics?: true
    Max angular momentum: 3

    Exch10(S^2)         =     0.006047101779 [Eh]

    Scaling F-SAPT Exch10(S^2) by   1.003E+00 to match Exch10

  ==> F-SAPT Induction <==

  ==> DFERI: Density Fitted 3-Index Tensors <==

    Schwarz cutoff =   0.000E+00
    J cutoff       =   1.000E-12
    Mem (GB)       =         628

   => Auxiliary Basis <=

  Basis Set: (JUN-CC-PVDZ AUX)
    Blend: JUN-CC-PVDZ-JKFIT
    Number of shells: 621
    Number of basis function: 1757
    Number of Cartesian functions: 1997
    Spherical Harmonics?: true
    Max angular momentum: 3

    Ind20,u (A<-B)      =    -0.001336096157 [Eh]
    Ind20,u (B<-A)      =    -0.000842442831 [Eh]
    Ind20,u             =    -0.002178538988 [Eh]
    Exch-Ind20,u (A<-B) =     0.000597168263 [Eh]
    Exch-Ind20,u (B<-A) =     0.000616408279 [Eh]
    Exch-Ind20,u        =     0.001213576542 [Eh]

    Scaling for delta HF        =   1.419E+00
    Scaling for response (A<-B) =   1.140E+00
    Scaling for response (B<-A) =   9.155E-01
    Scaling for total (A<-B)    =   1.617E+00
    Scaling for total (B<-A)    =   1.299E+00

  ==> F-SAPT Dispersion <==

  ==> DFERI: Density Fitted 3-Index Tensors <==

    Schwarz cutoff =   0.000E+00
    J cutoff       =   1.000E-12
    Mem (GB)       =         628

   => Auxiliary Basis <=

  Basis Set: (JUN-CC-PVDZ AUX)
    Blend: JUN-CC-PVDZ-RI
    Number of shells: 465
    Number of basis function: 1357
    Number of Cartesian functions: 1562
    Spherical Harmonics?: true
    Max angular momentum: 3

    Disp20              =    -0.002740292119 [Eh]
    Exch-Disp20         =     0.000433504438 [Eh]

  ==> F-SAPT Output <==

    F-SAPT Data Filepath = fsapt/

  ==> Results <==


    SAPT Results  
  --------------------------------------------------------------------------------------------------------
    Electrostatics                  8.88876309 [mEh]       5.57778328 [kcal/mol]      23.33744749 [kJ/mol]
      Elst10,r                      8.88876309 [mEh]       5.57778328 [kcal/mol]      23.33744749 [kJ/mol]

    Exchange                        6.06728813 [mEh]       3.80728094 [kcal/mol]      15.92966500 [kJ/mol]
      Exch10                        6.06728813 [mEh]       3.80728094 [kcal/mol]      15.92966500 [kJ/mol]
      Exch10(S^2)                   6.04710178 [mEh]       3.79461381 [kcal/mol]      15.87666572 [kJ/mol]

    Induction                      -1.48845647 [mEh]      -0.93402057 [kcal/mol]      -3.90794245 [kJ/mol]
      Ind20,r                      -2.57368772 [mEh]      -1.61501349 [kcal/mol]      -6.75721711 [kJ/mol]
      Exch-Ind20,r                  1.52471841 [mEh]       0.95677529 [kcal/mol]       4.00314818 [kJ/mol]
      delta HF,r (2)               -0.43948716 [mEh]      -0.27578237 [kcal/mol]      -1.15387353 [kJ/mol]
      Induction (A<-B)             -1.19482498 [mEh]      -0.74976402 [kcal/mol]      -3.13701298 [kJ/mol]
      Induction (B<-A)             -0.29363149 [mEh]      -0.18425655 [kcal/mol]      -0.77092947 [kJ/mol]

    Dispersion                     -2.30678768 [mEh]      -1.44753118 [kcal/mol]      -6.05647106 [kJ/mol]
      Disp20                       -2.74029212 [mEh]      -1.71955934 [kcal/mol]      -7.19463696 [kJ/mol]
      Exch-Disp20                   0.43350444 [mEh]       0.27202815 [kcal/mol]       1.13816590 [kJ/mol]

  Total HF                         13.46759476 [mEh]       8.45104365 [kcal/mol]      35.35917003 [kJ/mol]
  Total SAPT0                      11.16080708 [mEh]       7.00351247 [kcal/mol]      29.30269898 [kJ/mol]

  --------------------------------------------------------------------------------------------------------
    Han Solo: This is *not* gonna work.
    Luke Skywalker: Why didn't you say so before?
    Han Solo: I *did* say so before.

*** tstop() called on vega05.cac.cornell.edu at Wed Oct 18 19:26:59 2017
Module time:
	user time   =    2076.40 seconds =      34.61 minutes
	system time =      15.21 seconds =       0.25 minutes
	total time  =         97 seconds =       1.62 minutes
Total time:
	user time   =    2884.20 seconds =      48.07 minutes
	system time =      23.31 seconds =       0.39 minutes
	total time  =        148 seconds =       2.47 minutes

*** Psi4 exiting successfully. Buy a developer a beer!
