
    -----------------------------------------------------------------------
          Psi4: An Open-Source Ab Initio Electronic Structure Package
                               Psi4 1.1 release

                         Git: Rev {HEAD} add49b9 


    R. M. Parrish, L. A. Burns, D. G. A. Smith, A. C. Simmonett,
    A. E. DePrince III, E. G. Hohenstein, U. Bozkaya, A. Yu. Sokolov,
    R. Di Remigio, R. M. Richard, J. F. Gonthier, A. M. James,
    H. R. McAlexander, A. Kumar, M. Saitow, X. Wang, B. P. Pritchard,
    P. Verma, H. F. Schaefer III, K. Patkowski, R. A. King, E. F. Valeev,
    F. A. Evangelista, J. M. Turney, T. D. Crawford, and C. D. Sherrill,
    J. Chem. Theory Comput. in press (2017).
    (doi: 10.1021/acs.jctc.7b00174)

    -----------------------------------------------------------------------


    Psi4 started on: Wednesday, 18 October 2017 07:27PM

    Process ID:  53378
    PSIDATADIR: /opt/software/psi4/psi4conda/share/psi4
    Memory:     500.0 MiB
    Threads:    48
    
  ==> Input File <==

--------------------------------------------------------------------------
memory 750000 mb

molecule mol {
0 1
C          1.31577        2.73369       -0.68220
H          2.27987        2.99232       -1.12558
H          1.07733        3.48393        0.07758
H          0.55583        2.76206       -1.46173
--
0 1
C         -1.14811        1.17238       -0.13345
O         -1.29212        1.16687       -1.32838
O         -2.11227        1.58364        0.72677
C         -3.37525        1.91728        0.12882
H         -3.26453        2.74764       -0.57053
H         -3.78000        1.05521       -0.40443
H         -4.02558        2.19658        0.95517
--
0 1
C          0.10963        0.80645        0.63885
C          0.46432       -0.71766        0.71374
C          1.40111        1.36200       -0.04815
C          2.58556        1.18150        0.94929
C          2.93559       -0.31851        0.77196
C          1.79220       -0.78417       -0.16026
O          1.65586        0.34770       -1.03108
H         -0.00830        1.20976        1.64430
H          0.73897       -0.95221        1.74488
H          3.41708        1.82542        0.65862
H          2.30451        1.44513        1.97137
H          3.89100       -0.44306        0.25852
H          2.97559       -0.87902        1.70795
C          2.06118       -2.03239       -0.96737
H          2.99054       -1.90032       -1.52611
H          2.15103       -2.90365       -0.31831
H          1.25402       -2.21962       -1.67705
C         -0.56632       -1.79004        0.40669
O         -0.32100       -2.97037        0.49680
O         -1.78262       -1.31841        0.09460
C         -2.79967       -2.29767       -0.18708
H         -2.49726       -2.92789       -1.02402
H         -2.97969       -2.92140        0.68962
H         -3.68807       -1.72428       -0.44168

symmetry c1
no_reorient
no_com
}

set {
basis jun-cc-pvdz
scf_type df
guess sad
freeze_core true
}

energy('fisapt0')
--------------------------------------------------------------------------

  Memory set to 698.492 GiB by Python driver.

*** tstart() called on vega05.cac.cornell.edu
*** at Wed Oct 18 19:27:25 2017

   => Loading Basis Set <=

    Name: JUN-CC-PVDZ
    Role: ORBITAL
    Keyword: BASIS
    atoms 1, 5, 8, 12-17, 25, 29, 32     entry C          line   157 file /opt/software/psi4/psi4conda/share/psi4/basis/jun-cc-pvdz.gbs 
    atoms 2-4, 9-11, 19-24, 26-28, 33-35 entry H          line    35 file /opt/software/psi4/psi4conda/share/psi4/basis/jun-cc-pvdz.gbs 
    atoms 6-7, 18, 30-31                 entry O          line   225 file /opt/software/psi4/psi4conda/share/psi4/basis/jun-cc-pvdz.gbs 


         ---------------------------------------------------------
                                   SCF
            by Justin Turney, Rob Parrish, and Andy Simmonett
                              RHF Reference
                       48 Threads, 715255 MiB Core
         ---------------------------------------------------------

  ==> Geometry <==

    Molecular point group: c1
    Full point group: C1

    Geometry (in Angstrom), charge = 0, multiplicity = 1:

       Center              X                  Y                   Z               Mass       
    ------------   -----------------  -----------------  -----------------  -----------------
           C          1.315770000000     2.733690000000    -0.682200000000    12.000000000000
           H          2.279870000000     2.992320000000    -1.125580000000     1.007825032070
           H          1.077330000000     3.483930000000     0.077580000000     1.007825032070
           H          0.555830000000     2.762060000000    -1.461730000000     1.007825032070
           C         -1.148110000000     1.172380000000    -0.133450000000    12.000000000000
           O         -1.292120000000     1.166870000000    -1.328380000000    15.994914619560
           O         -2.112270000000     1.583640000000     0.726770000000    15.994914619560
           C         -3.375250000000     1.917280000000     0.128820000000    12.000000000000
           H         -3.264530000000     2.747640000000    -0.570530000000     1.007825032070
           H         -3.780000000000     1.055210000000    -0.404430000000     1.007825032070
           H         -4.025580000000     2.196580000000     0.955170000000     1.007825032070
           C          0.109630000000     0.806450000000     0.638850000000    12.000000000000
           C          0.464320000000    -0.717660000000     0.713740000000    12.000000000000
           C          1.401110000000     1.362000000000    -0.048150000000    12.000000000000
           C          2.585560000000     1.181500000000     0.949290000000    12.000000000000
           C          2.935590000000    -0.318510000000     0.771960000000    12.000000000000
           C          1.792200000000    -0.784170000000    -0.160260000000    12.000000000000
           O          1.655860000000     0.347700000000    -1.031080000000    15.994914619560
           H         -0.008300000000     1.209760000000     1.644300000000     1.007825032070
           H          0.738970000000    -0.952210000000     1.744880000000     1.007825032070
           H          3.417080000000     1.825420000000     0.658620000000     1.007825032070
           H          2.304510000000     1.445130000000     1.971370000000     1.007825032070
           H          3.891000000000    -0.443060000000     0.258520000000     1.007825032070
           H          2.975590000000    -0.879020000000     1.707950000000     1.007825032070
           C          2.061180000000    -2.032390000000    -0.967370000000    12.000000000000
           H          2.990540000000    -1.900320000000    -1.526110000000     1.007825032070
           H          2.151030000000    -2.903650000000    -0.318310000000     1.007825032070
           H          1.254020000000    -2.219620000000    -1.677050000000     1.007825032070
           C         -0.566320000000    -1.790040000000     0.406690000000    12.000000000000
           O         -0.321000000000    -2.970370000000     0.496800000000    15.994914619560
           O         -1.782620000000    -1.318410000000     0.094600000000    15.994914619560
           C         -2.799670000000    -2.297670000000    -0.187080000000    12.000000000000
           H         -2.497260000000    -2.927890000000    -1.024020000000     1.007825032070
           H         -2.979690000000    -2.921400000000     0.689620000000     1.007825032070
           H         -3.688070000000    -1.724280000000    -0.441680000000     1.007825032070

  Running in c1 symmetry.

  Rotational constants: A =      0.02065  B =      0.01636  C =      0.01064 [cm^-1]
  Rotational constants: A =    619.06510  B =    490.57278  C =    318.86352 [MHz]
  Nuclear repulsion = 1395.616587452858084

  Charge       = 0
  Multiplicity = 1
  Electrons    = 130
  Nalpha       = 65
  Nbeta        = 65

  ==> Algorithm <==

  SCF Algorithm Type is DF.
  DIIS enabled.
  MOM disabled.
  Fractional occupation disabled.
  Guess Type is SAD.
  Energy threshold   = 1.00e-08
  Density threshold  = 1.00e-08
  Integral threshold = 0.00e+00

  ==> Primary Basis <==

  Basis Set: JUN-CC-PVDZ
    Blend: JUN-CC-PVDZ
    Number of shells: 190
    Number of basis function: 396
    Number of Cartesian functions: 413
    Spherical Harmonics?: true
    Max angular momentum: 2

   => Loading Basis Set <=

    Name: (JUN-CC-PVDZ AUX)
    Role: JKFIT
    Keyword: DF_BASIS_SCF
    atoms 1, 5, 8, 12-17, 25, 29, 32     entry C          line   145 file /opt/software/psi4/psi4conda/share/psi4/basis/jun-cc-pvdz-jkfit.gbs 
    atoms 2-4, 9-11, 19-24, 26-28, 33-35 entry H          line    69 file /opt/software/psi4/psi4conda/share/psi4/basis/jun-cc-pvdz-jkfit.gbs 
    atoms 6-7, 18, 30-31                 entry O          line   257 file /opt/software/psi4/psi4conda/share/psi4/basis/jun-cc-pvdz-jkfit.gbs 

  ==> Pre-Iterations <==

   -------------------------------------------------------
    Irrep   Nso     Nmo     Nalpha   Nbeta   Ndocc  Nsocc
   -------------------------------------------------------
     A        396     396       0       0       0       0
   -------------------------------------------------------
    Total     396     396      65      65      65       0
   -------------------------------------------------------

  ==> Integral Setup <==

  ==> DFJK: Density-Fitted J/K Matrices <==

    J tasked:                  Yes
    K tasked:                  Yes
    wK tasked:                  No
    OpenMP threads:             48
    Integrals threads:          48
    Memory (MB):            536441
    Algorithm:                Core
    Integral Cache:           NONE
    Schwarz Cutoff:          1E-12
    Fitting Condition:       1E-12

   => Auxiliary Basis Set <=

  Basis Set: (JUN-CC-PVDZ AUX)
    Blend: JUN-CC-PVDZ-JKFIT
    Number of shells: 621
    Number of basis function: 1757
    Number of Cartesian functions: 1997
    Spherical Harmonics?: true
    Max angular momentum: 3

  Minimum eigenvalue in the overlap matrix is 6.7977975384E-06.
  Using Symmetric Orthogonalization.

  SCF Guess: Superposition of Atomic Densities via on-the-fly atomic UHF.

  ==> Iterations <==

                           Total Energy        Delta E     RMS |[F,P]|

   @DF-RHF iter   0:  -846.85560108236064   -8.46856e+02   9.81509e-02 
   @DF-RHF iter   1:  -838.73724570554646    8.11836e+00   1.13224e-02 
   @DF-RHF iter   2:  -839.14339822680040   -4.06153e-01   8.80514e-03 DIIS
   @DF-RHF iter   3:  -839.28154772742107   -1.38150e-01   2.68282e-03 DIIS
   @DF-RHF iter   4:  -839.30143325208655   -1.98855e-02   7.80004e-04 DIIS
   @DF-RHF iter   5:  -839.30331423866676   -1.88099e-03   3.19401e-04 DIIS
   @DF-RHF iter   6:  -839.30368726597430   -3.73027e-04   1.19853e-04 DIIS
   @DF-RHF iter   7:  -839.30375525005934   -6.79841e-05   3.82559e-05 DIIS
   @DF-RHF iter   8:  -839.30376347708193   -8.22702e-06   1.52445e-05 DIIS
   @DF-RHF iter   9:  -839.30376484892258   -1.37184e-06   6.33106e-06 DIIS
   @DF-RHF iter  10:  -839.30376506081052   -2.11888e-07   2.46249e-06 DIIS
   @DF-RHF iter  11:  -839.30376509282007   -3.20096e-08   8.92899e-07 DIIS
   @DF-RHF iter  12:  -839.30376509849293   -5.67286e-09   3.13560e-07 DIIS
   @DF-RHF iter  13:  -839.30376509922223   -7.29301e-10   1.39519e-07 DIIS
   @DF-RHF iter  14:  -839.30376509936252   -1.40290e-10   7.14652e-08 DIIS
   @DF-RHF iter  15:  -839.30376509938799   -2.54659e-11   2.16722e-08 DIIS
   @DF-RHF iter  16:  -839.30376509939663   -8.64020e-12   8.83693e-09 DIIS

  ==> Post-Iterations <==

    Orbital Energies (a.u.)
    -----------------------

    Doubly Occupied:                                                      

       1A    -20.616549     2A    -20.605323     3A    -20.560035  
       4A    -20.555684     5A    -20.545241     6A    -11.396273  
       7A    -11.385215     8A    -11.301130     9A    -11.299879  
      10A    -11.299750    11A    -11.292671    12A    -11.269623  
      13A    -11.261928    14A    -11.237358    15A    -11.235123  
      16A    -11.224140    17A    -11.219648    18A     -1.474094  
      19A     -1.458731    20A     -1.400730    21A     -1.369083  
      22A     -1.358522    23A     -1.112345    24A     -1.073767  
      25A     -1.049370    26A     -0.994606    27A     -0.975598  
      28A     -0.968599    29A     -0.912085    30A     -0.872983  
      31A     -0.812891    32A     -0.785974    33A     -0.769048  
      34A     -0.756279    35A     -0.715045    36A     -0.693537  
      37A     -0.690536    38A     -0.677745    39A     -0.665254  
      40A     -0.663416    41A     -0.658510    42A     -0.643159  
      43A     -0.625238    44A     -0.598004    45A     -0.590176  
      46A     -0.583183    47A     -0.573193    48A     -0.561959  
      49A     -0.555401    50A     -0.547863    51A     -0.543795  
      52A     -0.528926    53A     -0.525390    54A     -0.506958  
      55A     -0.504758    56A     -0.501133    57A     -0.497424  
      58A     -0.482924    59A     -0.471837    60A     -0.467624  
      61A     -0.460372    62A     -0.451909    63A     -0.444488  
      64A     -0.428644    65A     -0.417852  

    Virtual:                                                              

      66A      0.048861    67A      0.053169    68A      0.058610  
      69A      0.068129    70A      0.068822    71A      0.076076  
      72A      0.084366    73A      0.092387    74A      0.094890  
      75A      0.103914    76A      0.109499    77A      0.113740  
      78A      0.114591    79A      0.118188    80A      0.129777  
      81A      0.131140    82A      0.133460    83A      0.143311  
      84A      0.146703    85A      0.152515    86A      0.157268  
      87A      0.163693    88A      0.168342    89A      0.170623  
      90A      0.174216    91A      0.176981    92A      0.184205  
      93A      0.195451    94A      0.200837    95A      0.202824  
      96A      0.206755    97A      0.208111    98A      0.217240  
      99A      0.220965   100A      0.228174   101A      0.232898  
     102A      0.236716   103A      0.240934   104A      0.243930  
     105A      0.253779   106A      0.254618   107A      0.257136  
     108A      0.262021   109A      0.263205   110A      0.268401  
     111A      0.276498   112A      0.282615   113A      0.291794  
     114A      0.295216   115A      0.298987   116A      0.304683  
     117A      0.309444   118A      0.316022   119A      0.322257  
     120A      0.331963   121A      0.342258   122A      0.344068  
     123A      0.352418   124A      0.359594   125A      0.365551  
     126A      0.367416   127A      0.370763   128A      0.371361  
     129A      0.377856   130A      0.388161   131A      0.390102  
     132A      0.391253   133A      0.394793   134A      0.399635  
     135A      0.405757   136A      0.408267   137A      0.414075  
     138A      0.421278   139A      0.423148   140A      0.427031  
     141A      0.430165   142A      0.437379   143A      0.443550  
     144A      0.448631   145A      0.458247   146A      0.465103  
     147A      0.474606   148A      0.479628   149A      0.482184  
     150A      0.486259   151A      0.493396   152A      0.502226  
     153A      0.504443   154A      0.508861   155A      0.517175  
     156A      0.522755   157A      0.534368   158A      0.542199  
     159A      0.545414   160A      0.556972   161A      0.564398  
     162A      0.575854   163A      0.591972   164A      0.594493  
     165A      0.606510   166A      0.613797   167A      0.638958  
     168A      0.648194   169A      0.668391   170A      0.703602  
     171A      0.731027   172A      0.745547   173A      0.770823  
     174A      0.781129   175A      0.793434   176A      0.798551  
     177A      0.804955   178A      0.811672   179A      0.831958  
     180A      0.837380   181A      0.860854   182A      0.868724  
     183A      0.883874   184A      0.887266   185A      0.892343  
     186A      0.903064   187A      0.911681   188A      0.913312  
     189A      0.918291   190A      0.926487   191A      0.932177  
     192A      0.941018   193A      0.942744   194A      0.945143  
     195A      0.948703   196A      0.951657   197A      0.956382  
     198A      0.964485   199A      0.971373   200A      0.976058  
     201A      0.981447   202A      0.989098   203A      0.995886  
     204A      1.006847   205A      1.008386   206A      1.013781  
     207A      1.019555   208A      1.026719   209A      1.048293  
     210A      1.052661   211A      1.064534   212A      1.072552  
     213A      1.077911   214A      1.085804   215A      1.099955  
     216A      1.107714   217A      1.114919   218A      1.116910  
     219A      1.129956   220A      1.135021   221A      1.144304  
     222A      1.166346   223A      1.172885   224A      1.192721  
     225A      1.212986   226A      1.226668   227A      1.243542  
     228A      1.266273   229A      1.290742   230A      1.302871  
     231A      1.321961   232A      1.338123   233A      1.343338  
     234A      1.378610   235A      1.424870   236A      1.428625  
     237A      1.448224   238A      1.472278   239A      1.481480  
     240A      1.488568   241A      1.501637   242A      1.502898  
     243A      1.516499   244A      1.533030   245A      1.546675  
     246A      1.554682   247A      1.572079   248A      1.578998  
     249A      1.592195   250A      1.594906   251A      1.607582  
     252A      1.624834   253A      1.635032   254A      1.642960  
     255A      1.653933   256A      1.662594   257A      1.667937  
     258A      1.671124   259A      1.672405   260A      1.697025  
     261A      1.706593   262A      1.708769   263A      1.718935  
     264A      1.726887   265A      1.735501   266A      1.754234  
     267A      1.768159   268A      1.773576   269A      1.787413  
     270A      1.813410   271A      1.816224   272A      1.850564  
     273A      1.861340   274A      1.868885   275A      1.873644  
     276A      1.876085   277A      1.882705   278A      1.910912  
     279A      1.924346   280A      1.933761   281A      1.940329  
     282A      1.950771   283A      1.957765   284A      1.961821  
     285A      1.975785   286A      1.980993   287A      1.985591  
     288A      1.987881   289A      2.002286   290A      2.012238  
     291A      2.025148   292A      2.028298   293A      2.030487  
     294A      2.038844   295A      2.042933   296A      2.059961  
     297A      2.068769   298A      2.071610   299A      2.075797  
     300A      2.087578   301A      2.100693   302A      2.107003  
     303A      2.110563   304A      2.122947   305A      2.137531  
     306A      2.149869   307A      2.163722   308A      2.169359  
     309A      2.175913   310A      2.184819   311A      2.201579  
     312A      2.203013   313A      2.222882   314A      2.244303  
     315A      2.259849   316A      2.271969   317A      2.290637  
     318A      2.310625   319A      2.322002   320A      2.329301  
     321A      2.336751   322A      2.347785   323A      2.362031  
     324A      2.383074   325A      2.387368   326A      2.391112  
     327A      2.394998   328A      2.400584   329A      2.416321  
     330A      2.431903   331A      2.439513   332A      2.446456  
     333A      2.457546   334A      2.479641   335A      2.500293  
     336A      2.516819   337A      2.529256   338A      2.550012  
     339A      2.586487   340A      2.604413   341A      2.616972  
     342A      2.634885   343A      2.674631   344A      2.687116  
     345A      2.709246   346A      2.735850   347A      2.755976  
     348A      2.766799   349A      2.785943   350A      2.790010  
     351A      2.793278   352A      2.811197   353A      2.826671  
     354A      2.850507   355A      2.851883   356A      2.860880  
     357A      2.877056   358A      2.883759   359A      2.887799  
     360A      2.892977   361A      2.901060   362A      2.914927  
     363A      2.933480   364A      2.946449   365A      2.954908  
     366A      2.965498   367A      2.985166   368A      3.024064  
     369A      3.034082   370A      3.054139   371A      3.061042  
     372A      3.123121   373A      3.131232   374A      3.160358  
     375A      3.250302   376A      3.274106   377A      3.300268  
     378A      3.323865   379A      3.376559   380A      3.394577  
     381A      3.415949   382A      3.426887   383A      3.516307  
     384A      3.547077   385A      3.569923   386A      3.587534  
     387A      3.681961   388A      3.712767   389A      3.735834  
     390A      3.785739   391A      3.796818   392A      3.913293  
     393A      3.945350   394A      3.978410   395A      4.075645  
     396A      4.132722  

    Final Occupation by Irrep:
              A 
    DOCC [    65 ]

  Energy converged.

  @DF-RHF Final Energy:  -839.30376509939663

   => Energetics <=

    Nuclear Repulsion Energy =           1395.6165874528580844
    One-Electron Energy =               -3922.3876414561373167
    Two-Electron Energy =                1687.4672889038827179
    DFT Exchange-Correlation Energy =       0.0000000000000000
    Empirical Dispersion Energy =           0.0000000000000000
    PCM Polarization Energy =               0.0000000000000000
    EFP Energy =                            0.0000000000000000
    Total Energy =                       -839.3037650993967418



Properties will be evaluated at   0.000000,   0.000000,   0.000000 Bohr

Properties computed using the SCF density matrix

  Nuclear Dipole Moment: (a.u.)
     X:     2.3266      Y:     1.3591      Z:     2.6707

  Electronic Dipole Moment: (a.u.)
     X:    -2.7337      Y:    -0.8231      Z:    -1.6030

  Dipole Moment: (a.u.)
     X:    -0.4071      Y:     0.5360      Z:     1.0677     Total:     1.2622

  Dipole Moment: (Debye)
     X:    -1.0347      Y:     1.3624      Z:     2.7139     Total:     3.2081


*** tstop() called on vega05.cac.cornell.edu at Wed Oct 18 19:28:11 2017
Module time:
	user time   =     800.68 seconds =      13.34 minutes
	system time =       9.68 seconds =       0.16 minutes
	total time  =         46 seconds =       0.77 minutes
Total time:
	user time   =     800.68 seconds =      13.34 minutes
	system time =       9.68 seconds =       0.16 minutes
	total time  =         46 seconds =       0.77 minutes
   => Loading Basis Set <=

    Name: (JUN-CC-PVDZ AUX)
    Role: JKFIT
    Keyword: DF_BASIS_SCF
    atoms 1, 5, 8, 12-17, 25, 29, 32     entry C          line   145 file /opt/software/psi4/psi4conda/share/psi4/basis/jun-cc-pvdz-jkfit.gbs 
    atoms 2-4, 9-11, 19-24, 26-28, 33-35 entry H          line    69 file /opt/software/psi4/psi4conda/share/psi4/basis/jun-cc-pvdz-jkfit.gbs 
    atoms 6-7, 18, 30-31                 entry O          line   257 file /opt/software/psi4/psi4conda/share/psi4/basis/jun-cc-pvdz-jkfit.gbs 

   => Loading Basis Set <=

    Name: (JUN-CC-PVDZ AUX)
    Role: RIFIT
    Keyword: DF_BASIS_SAPT
    atoms 1, 5, 8, 12-17, 25, 29, 32     entry C          line    99 file /opt/software/psi4/psi4conda/share/psi4/basis/jun-cc-pvdz-ri.gbs 
    atoms 2-4, 9-11, 19-24, 26-28, 33-35 entry H          line    29 file /opt/software/psi4/psi4conda/share/psi4/basis/jun-cc-pvdz-ri.gbs 
    atoms 6-7, 18, 30-31                 entry O          line   187 file /opt/software/psi4/psi4conda/share/psi4/basis/jun-cc-pvdz-ri.gbs 

   => Loading Basis Set <=

    Name: CC-PVTZ-MINAO
    Role: ORBITAL
    Keyword: BASIS
    atoms 1, 5, 8, 12-17, 25, 29, 32     entry C          line   130 file /opt/software/psi4/psi4conda/share/psi4/basis/cc-pvtz-minao.gbs 
    atoms 2-4, 9-11, 19-24, 26-28, 33-35 entry H          line    19 file /opt/software/psi4/psi4conda/share/psi4/basis/cc-pvtz-minao.gbs 
    atoms 6-7, 18, 30-31                 entry O          line   190 file /opt/software/psi4/psi4conda/share/psi4/basis/cc-pvtz-minao.gbs 


*** tstart() called on vega05.cac.cornell.edu
*** at Wed Oct 18 19:28:11 2017

	 --------------------------------------------
	                    FISAPT0                  
	                  Rob Parrish                
	 --------------------------------------------

    Do F-SAPT =         Yes
    Do Plot   =          No
    Memory    =      78.580 [GD]

  ==> Localization (IBO) <==

  ==> IBO Localizer 2 <==

    MinAO Basis = CC-PVTZ-MINAO
    Use Ghosts  =       FALSE
    Use Stars   =       FALSE
    Condition   =   1.000E-07
    Power       =           4
    Convergence =   1.000E-12
    Maxiter     =        1000

    @IBO Iter:                   Metric       Gradient
    @IBO    1:   2.0283966904232988E+00   2.191253E+00
    @IBO    2:   2.2345963808666234E+00   2.565392E+00
    @IBO    3:   2.3383706058140303E+00   1.213924E+00
    @IBO    4:   2.3576988583549787E+00   2.679306E-01
    @IBO    5:   2.3585872630211129E+00   1.826502E-02
    @IBO    6:   2.3585892549297718E+00   1.876741E-04
    @IBO    7:   2.3585892551815784E+00   3.262248E-06
    @IBO    8:   2.3585892551816667E+00   9.163782E-08
    @IBO    9:   2.3585892551816667E+00   3.161664E-09
    @IBO   10:   2.3585892551816667E+00   1.197056E-10
    @IBO   11:   2.3585892551816672E+00   4.980221E-12
    @IBO   12:   2.3585892551816667E+00   2.180847E-13

    IBO Localizer 2 converged.

  ==> Partitioning <==

   => Atomic Partitioning <= 

    Monomer A:   4 atoms
    Monomer B:   7 atoms
    Monomer C:  24 atoms

   => Link Bond Identification <=

    Link Bond Selection = AUTOMATIC

    Charge Completeness = 0.800

    Total Link Bonds = 2

    --------------------------
    N     Orb Type Aind1 Aind2
    --------------------------
    1      28   BC     5    12
    2      47   AC     1    14
    --------------------------

   => Link Bond Assignment <=

    Link Bond Assignment      = C

   => Partition Summary <=

    Monomer A:  0 charge,   8 protons,   8 electrons,   4 docc
    Monomer B:  0 charge,  30 protons,  30 electrons,  15 docc
    Monomer C:  0 charge,  92 protons,  92 electrons,  46 docc

  ==> Overlap Integrals <==

  ==> Kinetic Integrals <==

  ==> Nuclear Integrals <==

    Nuclear Repulsion Tot:   1.3956165874528583E+03 [Eh]

  ==> Coulomb Integrals <==

  ==> DFJK: Density-Fitted J/K Matrices <==

    J tasked:                  Yes
    K tasked:                  Yes
    wK tasked:                  No
    OpenMP threads:             48
    Integrals threads:          48
    Memory (MB):            643730
    Algorithm:                Core
    Integral Cache:           NONE
    Schwarz Cutoff:          1E-12
    Fitting Condition:       1E-12

   => Auxiliary Basis Set <=

  Basis Set: (JUN-CC-PVDZ AUX)
    Blend: JUN-CC-PVDZ-JKFIT
    Number of shells: 621
    Number of basis function: 1757
    Number of Cartesian functions: 1997
    Spherical Harmonics?: true
    Max angular momentum: 3

  ==> Relaxed SCF Equations <==

  ==> SCF A: <==

    Maxiter =          50
    E Tol   =   1.000E-06
    D Tol   =   1.000E-08

    Max DIIS Vectors = 5

    Iter   N:                        E          dE         |D|
    Iter   1:  -3.6226028441064663E+01  -3.623E+01   1.752E-03 
    Iter   2:  -3.6229229258152372E+01  -3.201E-03   1.672E-04 DIIS
    Iter   3:  -3.6229335064038793E+01  -1.058E-04   4.623E-05 DIIS
    Iter   4:  -3.6229343266658113E+01  -8.203E-06   1.086E-05 DIIS
    Iter   5:  -3.6229343777447781E+01  -5.108E-07   1.756E-06 DIIS
    Iter   6:  -3.6229343795096476E+01  -1.765E-08   2.356E-07 DIIS
    Iter   7:  -3.6229343795401128E+01  -3.047E-10   4.058E-08 DIIS
    Iter   8:  -3.6229343795407686E+01  -6.558E-12   5.889E-09 DIIS

    FISAPTSCF Converged.

    Final SCF Energy:  -3.6229343795407686E+01 [Eh]

   => Occupied Orbital Energies <=

       1  -11.223224     2   -0.839440     3   -0.551317  
       4   -0.547671  

   => Virtual Orbital Energies <=

       5    0.031307     6    0.054049     7    0.059175  
       8    0.064664     9    0.066576    10    0.076710  
      11    0.079715    12    0.085733    13    0.091243  
      14    0.095894    15    0.106237    16    0.109633  
      17    0.111315    18    0.117023    19    0.124319  
      20    0.128915    21    0.131954    22    0.135995  
      23    0.144494    24    0.147447    25    0.155652  
      26    0.159188    27    0.166267    28    0.168833  
      29    0.173038    30    0.176709    31    0.183321  
      32    0.186348    33    0.195510    34    0.203220  
      35    0.204622    36    0.206243    37    0.217723  
      38    0.222244    39    0.227809    40    0.233040  
      41    0.234164    42    0.235929    43    0.245232  
      44    0.249314    45    0.258105    46    0.259750  
      47    0.265311    48    0.267605    49    0.275311  
      50    0.281398    51    0.282665    52    0.294525  
      53    0.297042    54    0.301291    55    0.303949  
      56    0.310399    57    0.318961    58    0.322103  
      59    0.329286    60    0.338175    61    0.345427  
      62    0.348255    63    0.353541    64    0.360360  
      65    0.364543    66    0.367908    67    0.372262  
      68    0.380572    69    0.384864    70    0.388787  
      71    0.393468    72    0.398199    73    0.400906  
      74    0.406567    75    0.408803    76    0.415053  
      77    0.418129    78    0.428489    79    0.434133  
      80    0.439269    81    0.443768    82    0.449023  
      83    0.453939    84    0.462055    85    0.468565  
      86    0.480890    87    0.485097    88    0.488221  
      89    0.489408    90    0.504657    91    0.515153  
      92    0.520088    93    0.526010    94    0.538430  
      95    0.540749    96    0.554768    97    0.558904  
      98    0.570709    99    0.577506   100    0.599934  
     101    0.607625   102    0.612671   103    0.618418  
     104    0.621088   105    0.634763   106    0.636482  
     107    0.653784   108    0.661868   109    0.689343  
     110    0.692541   111    0.712149   112    0.745852  
     113    0.759831   114    0.777747   115    0.792433  
     116    0.795456   117    0.817318   118    0.819690  
     119    0.842680   120    0.847437   121    0.868485  
     122    0.879983   123    0.887619   124    0.895258  
     125    0.908258   126    0.916109   127    0.926516  
     128    0.928268   129    0.936160   130    0.944928  
     131    0.952893   132    0.955320   133    0.959440  
     134    0.963636   135    0.967687   136    0.976637  
     137    0.981910   138    0.993242   139    0.997756  
     140    1.007756   141    1.016100   142    1.017769  
     143    1.024305   144    1.031958   145    1.038161  
     146    1.054914   147    1.062444   148    1.070545  
     149    1.081836   150    1.094394   151    1.100787  
     152    1.105883   153    1.117970   154    1.123191  
     155    1.132622   156    1.136565   157    1.144076  
     158    1.153570   159    1.170026   160    1.180200  
     161    1.190264   162    1.204416   163    1.224148  
     164    1.247712   165    1.287310   166    1.298817  
     167    1.305989   168    1.323367   169    1.339590  
     170    1.376530   171    1.385675   172    1.417183  
     173    1.447981   174    1.464983   175    1.473167  
     176    1.490477   177    1.499351   178    1.519594  
     179    1.532929   180    1.541852   181    1.560324  
     182    1.568098   183    1.569127   184    1.588007  
     185    1.597124   186    1.626091   187    1.633269  
     188    1.643261   189    1.659655   190    1.664828  
     191    1.671278   192    1.685295   193    1.704008  
     194    1.710614   195    1.724416   196    1.738348  
     197    1.742281   198    1.759133   199    1.766195  
     200    1.784693   201    1.797366   202    1.814307  
     203    1.825832   204    1.830295   205    1.839772  
     206    1.859885   207    1.868800   208    1.883493  
     209    1.893177   210    1.897803   211    1.919680  
     212    1.933039   213    1.937163   214    1.959170  
     215    1.965917   216    1.972134   217    1.983657  
     218    1.989781   219    1.993825   220    2.003782  
     221    2.013035   222    2.019115   223    2.027426  
     224    2.030988   225    2.035226   226    2.045773  
     227    2.062968   228    2.069887   229    2.076281  
     230    2.087590   231    2.096478   232    2.107983  
     233    2.120496   234    2.124268   235    2.127018  
     236    2.134425   237    2.142025   238    2.153271  
     239    2.172532   240    2.175432   241    2.191363  
     242    2.196929   243    2.209817   244    2.220228  
     245    2.233702   246    2.240645   247    2.262968  
     248    2.286002   249    2.293395   250    2.305982  
     251    2.312012   252    2.322146   253    2.337864  
     254    2.350715   255    2.367803   256    2.375038  
     257    2.378200   258    2.383895   259    2.390380  
     260    2.403210   261    2.414223   262    2.416904  
     263    2.441042   264    2.454030   265    2.476026  
     266    2.492795   267    2.502072   268    2.504727  
     269    2.530618   270    2.540415   271    2.577629  
     272    2.594500   273    2.611405   274    2.618100  
     275    2.641497   276    2.649166   277    2.668509  
     278    2.679765   279    2.680527   280    2.698260  
     281    2.721731   282    2.731031   283    2.761187  
     284    2.783003   285    2.793286   286    2.796844  
     287    2.808143   288    2.830940   289    2.863366  
     290    2.865159   291    2.871949   292    2.877336  
     293    2.886846   294    2.889263   295    2.891654  
     296    2.901041   297    2.908439   298    2.924343  
     299    2.940818   300    2.946260   301    2.967927  
     302    2.982842   303    3.001789   304    3.032125  
     305    3.046812   306    3.062750   307    3.086452  
     308    3.126251   309    3.157463   310    3.197486  
     311    3.265133   312    3.312380   313    3.365257  
     314    3.403412   315    3.432932   316    3.446303  
     317    3.559689   318    3.580045   319    3.644092  
     320    3.700134   321    3.708187   322    3.755181  
     323    3.819199   324    3.822338   325    3.942234  
     326    3.963837   327    3.969031   328    4.087486  
     329    4.155660   330    4.221160   331    4.447862  
     332    4.528580   333    4.556458   334    4.768849  
     335    4.956741   336    5.042310   337    5.067926  
     338    5.232675   339    5.330677   340    5.550770  
     341    5.598967   342    5.768007   343    5.866358  
     344    6.095363   345    6.328290   346    6.730286  
     347   13.394161   348   18.431384   349   33.439847  
     350   33.484229  

  ==> SCF B: <==

    Maxiter =          50
    E Tol   =   1.000E-06
    D Tol   =   1.000E-08

    Max DIIS Vectors = 5

    Iter   N:                        E          dE         |D|
    Iter   1:  -2.2396222127089561E+02  -2.240E+02   3.183E-03 
    Iter   2:  -2.2397108701705346E+02  -8.866E-03   2.709E-04 DIIS
    Iter   3:  -2.2397137323456960E+02  -2.862E-04   8.125E-05 DIIS
    Iter   4:  -2.2397139186318287E+02  -1.863E-05   2.919E-05 DIIS
    Iter   5:  -2.2397139449556562E+02  -2.632E-06   5.739E-06 DIIS
    Iter   6:  -2.2397139472024591E+02  -2.247E-07   3.209E-06 DIIS
    Iter   7:  -2.2397139474562763E+02  -2.538E-08   1.328E-06 DIIS
    Iter   8:  -2.2397139475213282E+02  -6.505E-09   3.191E-07 DIIS
    Iter   9:  -2.2397139475325613E+02  -1.123E-09   2.168E-07 DIIS
    Iter  10:  -2.2397139475350056E+02  -2.444E-10   8.206E-08 DIIS
    Iter  11:  -2.2397139475353046E+02  -2.990E-11   3.681E-08 DIIS
    Iter  12:  -2.2397139475353700E+02  -6.537E-12   1.850E-08 DIIS
    Iter  13:  -2.2397139475353720E+02  -1.990E-13   5.943E-09 DIIS

    FISAPTSCF Converged.

    Final SCF Energy:  -2.2397139475353720E+02 [Eh]

   => Occupied Orbital Energies <=

       1  -20.601033     2  -20.539173     3  -11.379460  
       4  -11.290430     5   -1.430810     6   -1.349791  
       7   -0.956055     8   -0.759734     9   -0.661487  
      10   -0.657257    11   -0.616891    12   -0.535221  
      13   -0.531536    14   -0.464041    15   -0.454400  

   => Virtual Orbital Energies <=

      16    0.011577    17    0.051193    18    0.058970  
      19    0.063463    20    0.068992    21    0.075817  
      22    0.081084    23    0.088296    24    0.095208  
      25    0.101178    26    0.104273    27    0.110019  
      28    0.112014    29    0.116256    30    0.117625  
      31    0.130005    32    0.131713    33    0.136849  
      34    0.144382    35    0.148493    36    0.155309  
      37    0.159907    38    0.166601    39    0.170722  
      40    0.173439    41    0.177822    42    0.181582  
      43    0.189624    44    0.196566    45    0.202885  
      46    0.205841    47    0.209506    48    0.210771  
      49    0.218346    50    0.224526    51    0.229506  
      52    0.234639    53    0.237407    54    0.243130  
      55    0.247623    56    0.251028    57    0.257928  
      58    0.261379    59    0.264901    60    0.270698  
      61    0.283078    62    0.286778    63    0.293781  
      64    0.297374    65    0.306405    66    0.312577  
      67    0.317176    68    0.319094    69    0.327427  
      70    0.330032    71    0.345394    72    0.345976  
      73    0.351297    74    0.357393    75    0.364097  
      76    0.366950    77    0.373463    78    0.376032  
      79    0.383076    80    0.390185    81    0.391142  
      82    0.395654    83    0.400135    84    0.403364  
      85    0.406969    86    0.411898    87    0.414832  
      88    0.423493    89    0.431554    90    0.434371  
      91    0.438160    92    0.441714    93    0.446298  
      94    0.449233    95    0.459110    96    0.472365  
      97    0.476201    98    0.478113    99    0.487539  
     100    0.498321   101    0.499840   102    0.508069  
     103    0.514594   104    0.522308   105    0.524104  
     106    0.534305   107    0.546378   108    0.550931  
     109    0.561307   110    0.569632   111    0.573609  
     112    0.578675   113    0.600814   114    0.608081  
     115    0.610943   116    0.625548   117    0.633560  
     118    0.644341   119    0.647211   120    0.664487  
     121    0.679616   122    0.699120   123    0.726463  
     124    0.759580   125    0.779674   126    0.782934  
     127    0.806484   128    0.808633   129    0.815171  
     130    0.829478   131    0.843269   132    0.858242  
     133    0.870723   134    0.888537   135    0.892735  
     136    0.903568   137    0.906623   138    0.919362  
     139    0.924225   140    0.937949   141    0.940334  
     142    0.945635   143    0.947625   144    0.955015  
     145    0.962179   146    0.969823   147    0.970363  
     148    0.977195   149    0.986640   150    0.995130  
     151    1.002478   152    1.010940   153    1.014990  
     154    1.019973   155    1.024834   156    1.034537  
     157    1.038112   158    1.048086   159    1.072592  
     160    1.075939   161    1.086369   162    1.093069  
     163    1.101373   164    1.122090   165    1.126457  
     166    1.138710   167    1.143366   168    1.149972  
     169    1.158836   170    1.186462   171    1.222091  
     172    1.228226   173    1.233820   174    1.260445  
     175    1.280678   176    1.300141   177    1.328758  
     178    1.329787   179    1.345443   180    1.365202  
     181    1.398714   182    1.421735   183    1.424129  
     184    1.462453   185    1.470426   186    1.489674  
     187    1.495065   188    1.502322   189    1.514954  
     190    1.524168   191    1.530922   192    1.538754  
     193    1.554688   194    1.564615   195    1.575681  
     196    1.576906   197    1.601360   198    1.605984  
     199    1.609711   200    1.641111   201    1.649848  
     202    1.654083   203    1.659007   204    1.668236  
     205    1.671082   206    1.676415   207    1.693190  
     208    1.707534   209    1.710301   210    1.723270  
     211    1.726652   212    1.735346   213    1.746840  
     214    1.755659   215    1.784275   216    1.791724  
     217    1.802026   218    1.820119   219    1.839946  
     220    1.849993   221    1.874834   222    1.879270  
     223    1.885983   224    1.898092   225    1.907208  
     226    1.907430   227    1.921604   228    1.923636  
     229    1.948432   230    1.960089   231    1.971790  
     232    1.978994   233    1.980698   234    1.985786  
     235    1.989597   236    1.992807   237    2.011550  
     238    2.014602   239    2.021681   240    2.029253  
     241    2.030420   242    2.042030   243    2.043727  
     244    2.053771   245    2.068071   246    2.073681  
     247    2.088112   248    2.105994   249    2.114306  
     250    2.121562   251    2.132778   252    2.136555  
     253    2.146426   254    2.156706   255    2.167774  
     256    2.177530   257    2.190093   258    2.202175  
     259    2.211957   260    2.216704   261    2.239473  
     262    2.249032   263    2.269963   264    2.281447  
     265    2.287776   266    2.296563   267    2.319537  
     268    2.346607   269    2.351339   270    2.365822  
     271    2.381083   272    2.388761   273    2.394912  
     274    2.397661   275    2.414780   276    2.423683  
     277    2.428299   278    2.438395   279    2.448377  
     280    2.457045   281    2.466808   282    2.481365  
     283    2.513873   284    2.518265   285    2.524698  
     286    2.572500   287    2.586615   288    2.599051  
     289    2.614600   290    2.622878   291    2.642042  
     292    2.661172   293    2.678151   294    2.694569  
     295    2.733798   296    2.745912   297    2.755993  
     298    2.771276   299    2.783376   300    2.792943  
     301    2.799205   302    2.817161   303    2.834481  
     304    2.854146   305    2.858822   306    2.869734  
     307    2.890166   308    2.896045   309    2.901346  
     310    2.911637   311    2.919511   312    2.936577  
     313    2.953018   314    2.969970   315    2.997092  
     316    3.012931   317    3.020900   318    3.036126  
     319    3.057444   320    3.085951   321    3.095009  
     322    3.131067   323    3.151548   324    3.178323  
     325    3.256285   326    3.279255   327    3.306147  
     328    3.329437   329    3.386256   330    3.408519  
     331    3.444707   332    3.448364   333    3.536740  
     334    3.576178   335    3.587986   336    3.595407  
     337    3.687759   338    3.708422   339    3.756457  
     340    3.794360   341    3.803438   342    3.903033  
     343    3.939017   344    3.956266   345    3.990655  
     346    4.080592   347    4.140965   348    4.535291  
     349    4.550706   350   13.290491  

  ==> Frozen Core <==


    ------------------
    Range      A     B
    ------------------
    nbf      396   396
    nmo      350   350
    nocc       4    15
    nvir     346   335
    nfocc      1     4
    naocc      3    11
    navir    346   335
    nfvir      0     0
    ------------------

  ==> Unification <==

  ==> dHF <==

    E ABC(HF) =  -8.3930376509939663E+02 [Eh]
    E AC(0)   =  -6.1125959669213773E+02 [Eh]
    E BC(0)   =  -7.9914633996339080E+02 [Eh]
    E A(0)    =  -2.5033306137851842E+01 [Eh]
    E B(0)    =  -2.1265880686387607E+02 [Eh]
    E AC(HF)  =  -6.1125628133779480E+02 [Eh]
    E BC(HF)  =  -7.9913716648074910E+02 [Eh]
    E AB(HF)  =  -2.3766266809772875E+02 [Eh]
    E A(HF)   =  -2.5017647986825562E+01 [Eh]
    E B(HF)   =  -2.1264337881679251E+02 [Eh]
    E C       =  -5.7109132401326235E+02 [Eh]
    E HF      =   1.0847542869555582E-02 [Eh]

  ==> Electrostatics <==

    Elst10,r            =     0.006713976893 [Eh]

  ==> Exchange <==

    Exch10(S^2)         =     0.005569587051 [Eh]
    Exch10              =     0.005595760655 [Eh]

  ==> Induction <==

    Ind20,u (A<-B)      =    -0.001419917899 [Eh]
    Ind20,u (B<-A)      =    -0.000449976990 [Eh]
    Ind20,u             =    -0.001869894890 [Eh]
    Exch-Ind20,u (A<-B) =     0.000691856862 [Eh]
    Exch-Ind20,u (B<-A) =     0.000232695287 [Eh]
    Exch-Ind20,u        =     0.000924552149 [Eh]

  ==> CPHF Iterations <==

    Maxiter     =          50
    Convergence =   1.000E-08

    -----------------------------------------
    Iter   Monomer A    Monomer B    Time [s]
    -----------------------------------------
    1      1.555E-01    2.518E-01           1
    2      2.665E-02    8.619E-02           2
    3      6.192E-03    2.519E-02           4
    4      8.913E-04    9.706E-03           5
    5      9.640E-05    4.153E-03           6
    6      1.410E-05    1.750E-03           7
    7      2.221E-06    5.549E-04           8
    8      3.280E-07    1.738E-04           9
    9      3.828E-08    4.759E-05          10
    10     3.402E-09*   1.512E-05          11
    11     3.402E-09*   4.644E-06          12
    12     3.402E-09*   1.053E-06          13
    13     3.402E-09*   2.528E-07          14
    14     3.402E-09*   6.253E-08          14
    15     3.402E-09*   1.388E-08          15
    16     3.402E-09*   4.291E-09*         16
    -----------------------------------------

    Ind20,r (A<-B)      =    -0.001675671785 [Eh]
    Ind20,r (B<-A)      =    -0.000540327199 [Eh]
    Ind20,r             =    -0.002215998984 [Eh]
    Exch-Ind20,r (A<-B) =     0.000835877685 [Eh]
    Exch-Ind20,r (B<-A) =     0.000320808160 [Eh]
    Exch-Ind20,r        =     0.001156685845 [Eh]

  ==> F-SAPT Localization (IBO) <==

  Local Orbitals for Monomer A:

  ==> IBO Localizer 2 <==

    MinAO Basis = CC-PVTZ-MINAO
    Use Ghosts  =       FALSE
    Use Stars   =       FALSE
    Condition   =   1.000E-07
    Power       =           4
    Convergence =   1.000E-12
    Maxiter     =        1000

    @IBO Iter:                   Metric       Gradient
    @IBO    1:   1.0646101695420795E+00   6.844099E-02
    @IBO    2:   1.0827397347040950E+00   3.141744E-02
    @IBO    3:   1.0834790307093323E+00   8.052814E-04
    @IBO    4:   1.0834794832470609E+00   1.625911E-07
    @IBO    5:   1.0834794832470793E+00   1.222729E-10
    @IBO    6:   1.0834794832470793E+00   1.423161E-15

    IBO Localizer 2 converged.

  Local Orbitals for Monomer B:

  ==> IBO Localizer 2 <==

    MinAO Basis = CC-PVTZ-MINAO
    Use Ghosts  =       FALSE
    Use Stars   =       FALSE
    Condition   =   1.000E-07
    Power       =           4
    Convergence =   1.000E-12
    Maxiter     =        1000

    @IBO Iter:                   Metric       Gradient
    @IBO    1:   1.4827221635752863E+00   1.674816E+00
    @IBO    2:   1.6780195741674355E+00   9.297188E-01
    @IBO    3:   1.7094721646796036E+00   3.228281E-01
    @IBO    4:   1.7107740961978271E+00   2.988152E-03
    @IBO    5:   1.7107743720993500E+00   1.069267E-04
    @IBO    6:   1.7107743722659903E+00   2.185489E-06
    @IBO    7:   1.7107743722660973E+00   7.597379E-08
    @IBO    8:   1.7107743722660975E+00   2.594505E-09
    @IBO    9:   1.7107743722660973E+00   1.014734E-10
    @IBO   10:   1.7107743722660975E+00   4.178004E-12
    @IBO   11:   1.7107743722660975E+00   1.743099E-13

    IBO Localizer 2 converged.

  ==> F-SAPT Electrostatics <==

  ==> DFERI: Density Fitted 3-Index Tensors <==

    Schwarz cutoff =   0.000E+00
    J cutoff       =   1.000E-12
    Mem (GB)       =         628

   => Auxiliary Basis <=

  Basis Set: (JUN-CC-PVDZ AUX)
    Blend: JUN-CC-PVDZ-JKFIT
    Number of shells: 621
    Number of basis function: 1757
    Number of Cartesian functions: 1997
    Spherical Harmonics?: true
    Max angular momentum: 3

    Elst10,r            =     0.006713977009 [Eh]

  ==> F-SAPT Exchange <==

  ==> DFERI: Density Fitted 3-Index Tensors <==

    Schwarz cutoff =   0.000E+00
    J cutoff       =   1.000E-12
    Mem (GB)       =         628

   => Auxiliary Basis <=

  Basis Set: (JUN-CC-PVDZ AUX)
    Blend: JUN-CC-PVDZ-JKFIT
    Number of shells: 621
    Number of basis function: 1757
    Number of Cartesian functions: 1997
    Spherical Harmonics?: true
    Max angular momentum: 3

    Exch10(S^2)         =     0.005569587051 [Eh]

    Scaling F-SAPT Exch10(S^2) by   1.005E+00 to match Exch10

  ==> F-SAPT Induction <==

  ==> DFERI: Density Fitted 3-Index Tensors <==

    Schwarz cutoff =   0.000E+00
    J cutoff       =   1.000E-12
    Mem (GB)       =         628

   => Auxiliary Basis <=

  Basis Set: (JUN-CC-PVDZ AUX)
    Blend: JUN-CC-PVDZ-JKFIT
    Number of shells: 621
    Number of basis function: 1757
    Number of Cartesian functions: 1997
    Spherical Harmonics?: true
    Max angular momentum: 3

    Ind20,u (A<-B)      =    -0.001419917901 [Eh]
    Ind20,u (B<-A)      =    -0.000449976990 [Eh]
    Ind20,u             =    -0.001869894891 [Eh]
    Exch-Ind20,u (A<-B) =     0.000691856862 [Eh]
    Exch-Ind20,u (B<-A) =     0.000232695287 [Eh]
    Exch-Ind20,u        =     0.000924552149 [Eh]

    Scaling for delta HF        =   1.380E+00
    Scaling for response (A<-B) =   1.153E+00
    Scaling for response (B<-A) =   1.010E+00
    Scaling for total (A<-B)    =   1.592E+00
    Scaling for total (B<-A)    =   1.395E+00

  ==> F-SAPT Dispersion <==

  ==> DFERI: Density Fitted 3-Index Tensors <==

    Schwarz cutoff =   0.000E+00
    J cutoff       =   1.000E-12
    Mem (GB)       =         628

   => Auxiliary Basis <=

  Basis Set: (JUN-CC-PVDZ AUX)
    Blend: JUN-CC-PVDZ-RI
    Number of shells: 465
    Number of basis function: 1357
    Number of Cartesian functions: 1562
    Spherical Harmonics?: true
    Max angular momentum: 3

    Disp20              =    -0.002541085998 [Eh]
    Exch-Disp20         =     0.000361434876 [Eh]

  ==> F-SAPT Output <==

    F-SAPT Data Filepath = fsapt/

  ==> Results <==


    SAPT Results  
  --------------------------------------------------------------------------------------------------------
    Electrostatics                  6.71397689 [mEh]       4.21308428 [kcal/mol]      17.62754633 [kJ/mol]
      Elst10,r                      6.71397689 [mEh]       4.21308428 [kcal/mol]      17.62754633 [kJ/mol]

    Exchange                        5.59576065 [mEh]       3.51139297 [kcal/mol]      14.69166960 [kJ/mol]
      Exch10                        5.59576065 [mEh]       3.51139297 [kcal/mol]      14.69166960 [kJ/mol]
      Exch10(S^2)                   5.56958705 [mEh]       3.49496879 [kcal/mol]      14.62295080 [kJ/mol]

    Induction                      -1.46219468 [mEh]      -0.91754105 [kcal/mol]      -3.83899213 [kJ/mol]
      Ind20,r                      -2.21599898 [mEh]      -1.39056041 [kcal/mol]      -5.81810533 [kJ/mol]
      Exch-Ind20,r                  1.15668585 [mEh]       0.72583136 [kcal/mol]       3.03687869 [kJ/mol]
      delta HF,r (2)               -0.40288154 [mEh]      -0.25281199 [kcal/mol]      -1.05776548 [kJ/mol]
      Induction (A<-B)             -1.15918742 [mEh]      -0.72740112 [kcal/mol]      -3.04344657 [kJ/mol]
      Induction (B<-A)             -0.30300726 [mEh]      -0.19013993 [kcal/mol]      -0.79554556 [kJ/mol]

    Dispersion                     -2.17965112 [mEh]      -1.36775179 [kcal/mol]      -5.72267402 [kJ/mol]
      Disp20                       -2.54108600 [mEh]      -1.59455560 [kcal/mol]      -6.67162129 [kJ/mol]
      Exch-Disp20                   0.36143488 [mEh]       0.22680382 [kcal/mol]       0.94894727 [kJ/mol]

  Total HF                         10.84754287 [mEh]       6.80693620 [kcal/mol]      28.48022380 [kJ/mol]
  Total SAPT0                       8.66789175 [mEh]       5.43918442 [kcal/mol]      22.75754978 [kJ/mol]

  --------------------------------------------------------------------------------------------------------
    Han Solo: This is *not* gonna work.
    Luke Skywalker: Why didn't you say so before?
    Han Solo: I *did* say so before.

*** tstop() called on vega05.cac.cornell.edu at Wed Oct 18 19:29:49 2017
Module time:
	user time   =    2124.98 seconds =      35.42 minutes
	system time =      15.83 seconds =       0.26 minutes
	total time  =         98 seconds =       1.63 minutes
Total time:
	user time   =    2931.00 seconds =      48.85 minutes
	system time =      25.54 seconds =       0.43 minutes
	total time  =        144 seconds =       2.40 minutes

*** Psi4 exiting successfully. Buy a developer a beer!
