
    -----------------------------------------------------------------------
          Psi4: An Open-Source Ab Initio Electronic Structure Package
                               Psi4 1.1 release

                         Git: Rev {HEAD} add49b9 


    R. M. Parrish, L. A. Burns, D. G. A. Smith, A. C. Simmonett,
    A. E. DePrince III, E. G. Hohenstein, U. Bozkaya, A. Yu. Sokolov,
    R. Di Remigio, R. M. Richard, J. F. Gonthier, A. M. James,
    H. R. McAlexander, A. Kumar, M. Saitow, X. Wang, B. P. Pritchard,
    P. Verma, H. F. Schaefer III, K. Patkowski, R. A. King, E. F. Valeev,
    F. A. Evangelista, J. M. Turney, T. D. Crawford, and C. D. Sherrill,
    J. Chem. Theory Comput. in press (2017).
    (doi: 10.1021/acs.jctc.7b00174)

    -----------------------------------------------------------------------


    Psi4 started on: Tuesday, 12 December 2017 11:55AM

    Process ID:  16245
    PSIDATADIR: /home/junteng/Softwares/psi4conda/share/psi4
    Memory:     500.0 MiB
    Threads:    1
    
  ==> Input File <==

--------------------------------------------------------------------------
memory 750000 mb

molecule mol {
0 1
C         -0.73542       -1.49952        0.38217
O         -1.13563       -2.46177        0.99281
O         -1.18010       -1.15479       -0.83993
C         -2.21350       -1.97714       -1.40797
H         -1.84168       -2.98766       -1.58525
H         -3.07461       -2.02595       -0.73946
H         -2.47870       -1.49653       -2.34687
--
0 1
C         -1.17606        1.35531        0.12069
O         -1.46827        1.99861       -0.85291
O         -2.09350        0.92356        1.02220
C         -3.47090        1.17274        0.69261
H         -3.71917        0.70923       -0.26377
H         -4.04776        0.72310        1.49775
H         -3.66500        2.24465        0.63174
--
0 1
C          1.97079       -2.30011       -0.31048
H          2.93192       -2.36710       -0.82440
H          1.98827       -2.96636        0.55516
H          1.19279       -2.64400       -0.99443
C          1.37572        2.40177       -1.29229
H          2.33795        2.49230       -1.80177
H          1.17042        3.33925       -0.76921
H          0.58779        2.24717       -2.02448
C          0.20635        0.94931        0.60403
C          0.37020       -0.58821        0.87402
C          1.44234        1.25231       -0.31040
C          2.68229        1.27548        0.62721
C          2.85423       -0.22613        0.97023
C          1.72415       -0.87302        0.12645
O          1.63168        0.00333       -1.00436
H          0.31871        1.47742        1.55542
H          0.46361       -0.80200        1.93696
H          3.54305        1.65351        0.07311
H          2.53935        1.91277        1.50257
H          3.82422       -0.60390        0.64125
H          2.75274       -0.44933        2.03429

symmetry c1
no_reorient
no_com
}

set {
basis jun-cc-pvdz
scf_type df
guess sad
freeze_core true
}

energy('fisapt0')
--------------------------------------------------------------------------

  Memory set to 698.492 GiB by Python driver.

*** tstart() called on ThinkPad-P50
*** at Tue Dec 12 11:55:30 2017

   => Loading Basis Set <=

    Name: JUN-CC-PVDZ
    Role: ORBITAL
    Keyword: BASIS
    atoms 1, 4, 8, 11, 15, 19, 23-28      entry C          line   157 file /home/junteng/Softwares/psi4conda/share/psi4/basis/jun-cc-pvdz.gbs 
    atoms 2-3, 9-10, 29                   entry O          line   225 file /home/junteng/Softwares/psi4conda/share/psi4/basis/jun-cc-pvdz.gbs 
    atoms 5-7, 12-14, 16-18, 20-22, 30-35 entry H          line    35 file /home/junteng/Softwares/psi4conda/share/psi4/basis/jun-cc-pvdz.gbs 


         ---------------------------------------------------------
                                   SCF
            by Justin Turney, Rob Parrish, and Andy Simmonett
                              RHF Reference
                        1 Threads, 715255 MiB Core
         ---------------------------------------------------------

  ==> Geometry <==

    Molecular point group: c1
    Full point group: C1

    Geometry (in Angstrom), charge = 0, multiplicity = 1:

       Center              X                  Y                   Z               Mass       
    ------------   -----------------  -----------------  -----------------  -----------------
           C         -0.735420000000    -1.499520000000     0.382170000000    12.000000000000
           O         -1.135630000000    -2.461770000000     0.992810000000    15.994914619560
           O         -1.180100000000    -1.154790000000    -0.839930000000    15.994914619560
           C         -2.213500000000    -1.977140000000    -1.407970000000    12.000000000000
           H         -1.841680000000    -2.987660000000    -1.585250000000     1.007825032070
           H         -3.074610000000    -2.025950000000    -0.739460000000     1.007825032070
           H         -2.478700000000    -1.496530000000    -2.346870000000     1.007825032070
           C         -1.176060000000     1.355310000000     0.120690000000    12.000000000000
           O         -1.468270000000     1.998610000000    -0.852910000000    15.994914619560
           O         -2.093500000000     0.923560000000     1.022200000000    15.994914619560
           C         -3.470900000000     1.172740000000     0.692610000000    12.000000000000
           H         -3.719170000000     0.709230000000    -0.263770000000     1.007825032070
           H         -4.047760000000     0.723100000000     1.497750000000     1.007825032070
           H         -3.665000000000     2.244650000000     0.631740000000     1.007825032070
           C          1.970790000000    -2.300110000000    -0.310480000000    12.000000000000
           H          2.931920000000    -2.367100000000    -0.824400000000     1.007825032070
           H          1.988270000000    -2.966360000000     0.555160000000     1.007825032070
           H          1.192790000000    -2.644000000000    -0.994430000000     1.007825032070
           C          1.375720000000     2.401770000000    -1.292290000000    12.000000000000
           H          2.337950000000     2.492300000000    -1.801770000000     1.007825032070
           H          1.170420000000     3.339250000000    -0.769210000000     1.007825032070
           H          0.587790000000     2.247170000000    -2.024480000000     1.007825032070
           C          0.206350000000     0.949310000000     0.604030000000    12.000000000000
           C          0.370200000000    -0.588210000000     0.874020000000    12.000000000000
           C          1.442340000000     1.252310000000    -0.310400000000    12.000000000000
           C          2.682290000000     1.275480000000     0.627210000000    12.000000000000
           C          2.854230000000    -0.226130000000     0.970230000000    12.000000000000
           C          1.724150000000    -0.873020000000     0.126450000000    12.000000000000
           O          1.631680000000     0.003330000000    -1.004360000000    15.994914619560
           H          0.318710000000     1.477420000000     1.555420000000     1.007825032070
           H          0.463610000000    -0.802000000000     1.936960000000     1.007825032070
           H          3.543050000000     1.653510000000     0.073110000000     1.007825032070
           H          2.539350000000     1.912770000000     1.502570000000     1.007825032070
           H          3.824220000000    -0.603900000000     0.641250000000     1.007825032070
           H          2.752740000000    -0.449330000000     2.034290000000     1.007825032070

  Running in c1 symmetry.

  Rotational constants: A =      0.02194  B =      0.01608  C =      0.01171 [cm^-1]
  Rotational constants: A =    657.61709  B =    482.11662  C =    351.09295 [MHz]
  Nuclear repulsion = 1411.152131428241319

  Charge       = 0
  Multiplicity = 1
  Electrons    = 130
  Nalpha       = 65
  Nbeta        = 65

  ==> Algorithm <==

  SCF Algorithm Type is DF.
  DIIS enabled.
  MOM disabled.
  Fractional occupation disabled.
  Guess Type is SAD.
  Energy threshold   = 1.00e-08
  Density threshold  = 1.00e-08
  Integral threshold = 0.00e+00

  ==> Primary Basis <==

  Basis Set: JUN-CC-PVDZ
    Blend: JUN-CC-PVDZ
    Number of shells: 190
    Number of basis function: 396
    Number of Cartesian functions: 413
    Spherical Harmonics?: true
    Max angular momentum: 2

   => Loading Basis Set <=

    Name: (JUN-CC-PVDZ AUX)
    Role: JKFIT
    Keyword: DF_BASIS_SCF
    atoms 1, 4, 8, 11, 15, 19, 23-28      entry C          line   145 file /home/junteng/Softwares/psi4conda/share/psi4/basis/jun-cc-pvdz-jkfit.gbs 
    atoms 2-3, 9-10, 29                   entry O          line   257 file /home/junteng/Softwares/psi4conda/share/psi4/basis/jun-cc-pvdz-jkfit.gbs 
    atoms 5-7, 12-14, 16-18, 20-22, 30-35 entry H          line    69 file /home/junteng/Softwares/psi4conda/share/psi4/basis/jun-cc-pvdz-jkfit.gbs 

  ==> Pre-Iterations <==

   -------------------------------------------------------
    Irrep   Nso     Nmo     Nalpha   Nbeta   Ndocc  Nsocc
   -------------------------------------------------------
     A        396     396       0       0       0       0
   -------------------------------------------------------
    Total     396     396      65      65      65       0
   -------------------------------------------------------

  ==> Integral Setup <==

  ==> DFJK: Density-Fitted J/K Matrices <==

    J tasked:                  Yes
    K tasked:                  Yes
    wK tasked:                  No
    OpenMP threads:              1
    Integrals threads:           1
    Memory (MB):            536441
    Algorithm:                Core
    Integral Cache:           NONE
    Schwarz Cutoff:          1E-12
    Fitting Condition:       1E-12

   => Auxiliary Basis Set <=

  Basis Set: (JUN-CC-PVDZ AUX)
    Blend: JUN-CC-PVDZ-JKFIT
    Number of shells: 621
    Number of basis function: 1757
    Number of Cartesian functions: 1997
    Spherical Harmonics?: true
    Max angular momentum: 3

  Minimum eigenvalue in the overlap matrix is 7.2553948356E-06.
  Using Symmetric Orthogonalization.

  SCF Guess: Superposition of Atomic Densities via on-the-fly atomic UHF.

  ==> Iterations <==

                           Total Energy        Delta E     RMS |[F,P]|

   @DF-RHF iter   0:  -846.59846529724541   -8.46598e+02   1.93878e-02 
   @DF-RHF iter   1:  -838.81442392817928    7.78404e+00   2.03003e-03 
   @DF-RHF iter   2:  -839.22020897182983   -4.05785e-01   1.00764e-03 DIIS
   @DF-RHF iter   3:  -839.29200431959021   -7.17953e-02   3.77268e-04 DIIS
   @DF-RHF iter   4:  -839.30866170851277   -1.66574e-02   1.02918e-04 DIIS
   @DF-RHF iter   5:  -839.30997926942428   -1.31756e-03   4.31944e-05 DIIS
   @DF-RHF iter   6:  -839.31025499422969   -2.75725e-04   1.65101e-05 DIIS
   @DF-RHF iter   7:  -839.31030073460124   -4.57404e-05   5.46407e-06 DIIS
   @DF-RHF iter   8:  -839.31030742938981   -6.69479e-06   2.22242e-06 DIIS
   @DF-RHF iter   9:  -839.31030853904645   -1.10966e-06   8.44014e-07 DIIS
   @DF-RHF iter  10:  -839.31030871054782   -1.71501e-07   3.75039e-07 DIIS
   @DF-RHF iter  11:  -839.31030874432633   -3.37785e-08   1.46634e-07 DIIS
   @DF-RHF iter  12:  -839.31030874939438   -5.06805e-09   5.29815e-08 DIIS
   @DF-RHF iter  13:  -839.31030875012596   -7.31575e-10   2.24031e-08 DIIS
   @DF-RHF iter  14:  -839.31030875024976   -1.23805e-10   9.95959e-09 DIIS

  ==> Post-Iterations <==

    Orbital Energies (a.u.)
    -----------------------

    Doubly Occupied:                                                      

       1A    -20.610864     2A    -20.610054     3A    -20.562279  
       4A    -20.556481     5A    -20.554771     6A    -11.393935  
       7A    -11.389780     8A    -11.303919     9A    -11.299056  
      10A    -11.297177    11A    -11.296345    12A    -11.268092  
      13A    -11.264192    14A    -11.238507    15A    -11.236691  
      16A    -11.230903    17A    -11.217315    18A     -1.471573  
      19A     -1.463250    20A     -1.401036    21A     -1.367628  
      22A     -1.365242    23A     -1.115643    24A     -1.075987  
      25A     -1.052746    26A     -0.993342    27A     -0.976732  
      28A     -0.968006    29A     -0.914112    30A     -0.874453  
      31A     -0.816449    32A     -0.785391    33A     -0.768596  
      34A     -0.760989    35A     -0.712144    36A     -0.698822  
      37A     -0.694828    38A     -0.677069    39A     -0.672030  
      40A     -0.664342    41A     -0.651321    42A     -0.646149  
      43A     -0.623536    44A     -0.602128    45A     -0.590139  
      46A     -0.588267    47A     -0.569479    48A     -0.563641  
      49A     -0.555989    50A     -0.548383    51A     -0.542386  
      52A     -0.532529    53A     -0.531998    54A     -0.511123  
      55A     -0.503522    56A     -0.500292    57A     -0.496223  
      58A     -0.484660    59A     -0.474572    60A     -0.472117  
      61A     -0.465878    62A     -0.463156    63A     -0.443980  
      64A     -0.425684    65A     -0.421690  

    Virtual:                                                              

      66A      0.050786    67A      0.052803    68A      0.056711  
      69A      0.065560    70A      0.071896    71A      0.076483  
      72A      0.084093    73A      0.092604    74A      0.099541  
      75A      0.101447    76A      0.108169    77A      0.114604  
      78A      0.119343    79A      0.123374    80A      0.124371  
      81A      0.127107    82A      0.136990    83A      0.137684  
      84A      0.148908    85A      0.155558    86A      0.157000  
      87A      0.160806    88A      0.164896    89A      0.175615  
      90A      0.176742    91A      0.178917    92A      0.181720  
      93A      0.186626    94A      0.191102    95A      0.204115  
      96A      0.207233    97A      0.208143    98A      0.216520  
      99A      0.220809   100A      0.223499   101A      0.232202  
     102A      0.234726   103A      0.238132   104A      0.247765  
     105A      0.251346   106A      0.255759   107A      0.255929  
     108A      0.263273   109A      0.265040   110A      0.273792  
     111A      0.276248   112A      0.281856   113A      0.290863  
     114A      0.300485   115A      0.308686   116A      0.312873  
     117A      0.318968   118A      0.321984   119A      0.325083  
     120A      0.334018   121A      0.337831   122A      0.340560  
     123A      0.349676   124A      0.349943   125A      0.358351  
     126A      0.362147   127A      0.368638   128A      0.375829  
     129A      0.378432   130A      0.384047   131A      0.386271  
     132A      0.393965   133A      0.399190   134A      0.402064  
     135A      0.405013   136A      0.412585   137A      0.416187  
     138A      0.420775   139A      0.424885   140A      0.427220  
     141A      0.434809   142A      0.436199   143A      0.440827  
     144A      0.450470   145A      0.456629   146A      0.458651  
     147A      0.469233   148A      0.473586   149A      0.480812  
     150A      0.481960   151A      0.492508   152A      0.503599  
     153A      0.512821   154A      0.520483   155A      0.527224  
     156A      0.532030   157A      0.537701   158A      0.542694  
     159A      0.550587   160A      0.557394   161A      0.560258  
     162A      0.579851   163A      0.594996   164A      0.595948  
     165A      0.609308   166A      0.624670   167A      0.635390  
     168A      0.647332   169A      0.684778   170A      0.702212  
     171A      0.745373   172A      0.746634   173A      0.766189  
     174A      0.782890   175A      0.793239   176A      0.797535  
     177A      0.816558   178A      0.826147   179A      0.831578  
     180A      0.842320   181A      0.859555   182A      0.866880  
     183A      0.882241   184A      0.886065   185A      0.894065  
     186A      0.902120   187A      0.905187   188A      0.915816  
     189A      0.921523   190A      0.923560   191A      0.928349  
     192A      0.936830   193A      0.941961   194A      0.948766  
     195A      0.952087   196A      0.963917   197A      0.965006  
     198A      0.967899   199A      0.972601   200A      0.977194  
     201A      0.981422   202A      0.984548   203A      0.991666  
     204A      0.999960   205A      1.009225   206A      1.016376  
     207A      1.031077   208A      1.035516   209A      1.045731  
     210A      1.053636   211A      1.071158   212A      1.076588  
     213A      1.084422   214A      1.090157   215A      1.107470  
     216A      1.111512   217A      1.113326   218A      1.120634  
     219A      1.128649   220A      1.134402   221A      1.151664  
     222A      1.176247   223A      1.180936   224A      1.189341  
     225A      1.240258   226A      1.249105   227A      1.269576  
     228A      1.289771   229A      1.297987   230A      1.312984  
     231A      1.322524   232A      1.353185   233A      1.365491  
     234A      1.390169   235A      1.415148   236A      1.424328  
     237A      1.441803   238A      1.467751   239A      1.471393  
     240A      1.479738   241A      1.510647   242A      1.515498  
     243A      1.526268   244A      1.542028   245A      1.550768  
     246A      1.557361   247A      1.571157   248A      1.586521  
     249A      1.593087   250A      1.604758   251A      1.621203  
     252A      1.632163   253A      1.635257   254A      1.653716  
     255A      1.657363   256A      1.667242   257A      1.670391  
     258A      1.674462   259A      1.688436   260A      1.701946  
     261A      1.709782   262A      1.714209   263A      1.726583  
     264A      1.738097   265A      1.756453   266A      1.770566  
     267A      1.790632   268A      1.796156   269A      1.800551  
     270A      1.820219   271A      1.841324   272A      1.850983  
     273A      1.859634   274A      1.871768   275A      1.881274  
     276A      1.887635   277A      1.898852   278A      1.909614  
     279A      1.929588   280A      1.933556   281A      1.944930  
     282A      1.946605   283A      1.960799   284A      1.966148  
     285A      1.976065   286A      1.981008   287A      1.983274  
     288A      1.989894   289A      1.999546   290A      2.017333  
     291A      2.021599   292A      2.031013   293A      2.037507  
     294A      2.046319   295A      2.049497   296A      2.056622  
     297A      2.058924   298A      2.065264   299A      2.072120  
     300A      2.080168   301A      2.098698   302A      2.101226  
     303A      2.115144   304A      2.121359   305A      2.135977  
     306A      2.144524   307A      2.160746   308A      2.168899  
     309A      2.177114   310A      2.184949   311A      2.196923  
     312A      2.215225   313A      2.233738   314A      2.250947  
     315A      2.262288   316A      2.281741   317A      2.285857  
     318A      2.295656   319A      2.310106   320A      2.315574  
     321A      2.329432   322A      2.354028   323A      2.369688  
     324A      2.381191   325A      2.390133   326A      2.397372  
     327A      2.408350   328A      2.417892   329A      2.427287  
     330A      2.434447   331A      2.444939   332A      2.458773  
     333A      2.462495   334A      2.474927   335A      2.497555  
     336A      2.520984   337A      2.540216   338A      2.563509  
     339A      2.590762   340A      2.617979   341A      2.636744  
     342A      2.647147   343A      2.666763   344A      2.694215  
     345A      2.728068   346A      2.740121   347A      2.753572  
     348A      2.765521   349A      2.778804   350A      2.790030  
     351A      2.797131   352A      2.807839   353A      2.830180  
     354A      2.857458   355A      2.866081   356A      2.872353  
     357A      2.875184   358A      2.882117   359A      2.890474  
     360A      2.898314   361A      2.899646   362A      2.914122  
     363A      2.929375   364A      2.943928   365A      2.953190  
     366A      2.988673   367A      3.004602   368A      3.008705  
     369A      3.023532   370A      3.032394   371A      3.061946  
     372A      3.114280   373A      3.131978   374A      3.181986  
     375A      3.258997   376A      3.262566   377A      3.296123  
     378A      3.318456   379A      3.379587   380A      3.381421  
     381A      3.413760   382A      3.428476   383A      3.513262  
     384A      3.545745   385A      3.567016   386A      3.597256  
     387A      3.683979   388A      3.693005   389A      3.739431  
     390A      3.785090   391A      3.813469   392A      3.909186  
     393A      3.950980   394A      3.961163   395A      4.107485  
     396A      4.118606  

    Final Occupation by Irrep:
              A 
    DOCC [    65 ]

  Energy converged.

  @DF-RHF Final Energy:  -839.31030875024976

   => Energetics <=

    Nuclear Repulsion Energy =           1411.1521314282413186
    One-Electron Energy =               -3953.2656439061265701
    Two-Electron Energy =                1702.8032037276354913
    DFT Exchange-Correlation Energy =       0.0000000000000000
    Empirical Dispersion Energy =           0.0000000000000000
    PCM Polarization Energy =               0.0000000000000000
    EFP Energy =                            0.0000000000000000
    Total Energy =                       -839.3103087502497601



Properties will be evaluated at   0.000000,   0.000000,   0.000000 Bohr

Properties computed using the SCF density matrix

  Nuclear Dipole Moment: (a.u.)
     X:     1.9624      Y:     1.1052      Z:     0.1487

  Electronic Dipole Moment: (a.u.)
     X:    -1.8473      Y:    -0.8613      Z:     0.3441

  Dipole Moment: (a.u.)
     X:     0.1152      Y:     0.2439      Z:     0.4929     Total:     0.5618

  Dipole Moment: (Debye)
     X:     0.2928      Y:     0.6198      Z:     1.2527     Total:     1.4280


*** tstop() called on ThinkPad-P50 at Tue Dec 12 11:58:29 2017
Module time:
	user time   =     177.19 seconds =       2.95 minutes
	system time =       1.37 seconds =       0.02 minutes
	total time  =        179 seconds =       2.98 minutes
Total time:
	user time   =     177.19 seconds =       2.95 minutes
	system time =       1.37 seconds =       0.02 minutes
	total time  =        179 seconds =       2.98 minutes
   => Loading Basis Set <=

    Name: (JUN-CC-PVDZ AUX)
    Role: JKFIT
    Keyword: DF_BASIS_SCF
    atoms 1, 4, 8, 11, 15, 19, 23-28      entry C          line   145 file /home/junteng/Softwares/psi4conda/share/psi4/basis/jun-cc-pvdz-jkfit.gbs 
    atoms 2-3, 9-10, 29                   entry O          line   257 file /home/junteng/Softwares/psi4conda/share/psi4/basis/jun-cc-pvdz-jkfit.gbs 
    atoms 5-7, 12-14, 16-18, 20-22, 30-35 entry H          line    69 file /home/junteng/Softwares/psi4conda/share/psi4/basis/jun-cc-pvdz-jkfit.gbs 

   => Loading Basis Set <=

    Name: (JUN-CC-PVDZ AUX)
    Role: RIFIT
    Keyword: DF_BASIS_SAPT
    atoms 1, 4, 8, 11, 15, 19, 23-28      entry C          line    99 file /home/junteng/Softwares/psi4conda/share/psi4/basis/jun-cc-pvdz-ri.gbs 
    atoms 2-3, 9-10, 29                   entry O          line   187 file /home/junteng/Softwares/psi4conda/share/psi4/basis/jun-cc-pvdz-ri.gbs 
    atoms 5-7, 12-14, 16-18, 20-22, 30-35 entry H          line    29 file /home/junteng/Softwares/psi4conda/share/psi4/basis/jun-cc-pvdz-ri.gbs 

   => Loading Basis Set <=

    Name: CC-PVTZ-MINAO
    Role: ORBITAL
    Keyword: BASIS
    atoms 1, 4, 8, 11, 15, 19, 23-28      entry C          line   130 file /home/junteng/Softwares/psi4conda/share/psi4/basis/cc-pvtz-minao.gbs 
    atoms 2-3, 9-10, 29                   entry O          line   190 file /home/junteng/Softwares/psi4conda/share/psi4/basis/cc-pvtz-minao.gbs 
    atoms 5-7, 12-14, 16-18, 20-22, 30-35 entry H          line    19 file /home/junteng/Softwares/psi4conda/share/psi4/basis/cc-pvtz-minao.gbs 


*** tstart() called on ThinkPad-P50
*** at Tue Dec 12 11:58:30 2017

	 --------------------------------------------
	                    FISAPT0                  
	                  Rob Parrish                
	 --------------------------------------------

    Do F-SAPT =         Yes
    Do Plot   =          No
    Memory    =      78.580 [GD]

  ==> Localization (IBO) <==

  ==> IBO Localizer 2 <==

    MinAO Basis = CC-PVTZ-MINAO
    Use Ghosts  =       FALSE
    Use Stars   =       FALSE
    Condition   =   1.000E-07
    Power       =           4
    Convergence =   1.000E-12
    Maxiter     =        1000

    @IBO Iter:                   Metric       Gradient
    @IBO    1:   2.0265467841094109E+00   2.282689E+00
    @IBO    2:   2.2507193207384786E+00   2.507866E+00
    @IBO    3:   2.3471729024032943E+00   1.230332E+00
    @IBO    4:   2.3588035737958197E+00   1.495705E-01
    @IBO    5:   2.3589534129951590E+00   2.585016E-03
    @IBO    6:   2.3589534449882708E+00   4.193029E-05
    @IBO    7:   2.3589534450026486E+00   1.378568E-06
    @IBO    8:   2.3589534450026655E+00   5.191208E-08
    @IBO    9:   2.3589534450026655E+00   2.259692E-09
    @IBO   10:   2.3589534450026655E+00   1.014994E-10
    @IBO   11:   2.3589534450026655E+00   4.592039E-12
    @IBO   12:   2.3589534450026655E+00   2.077591E-13

    IBO Localizer 2 converged.

  ==> Partitioning <==

   => Atomic Partitioning <= 

    Monomer A:   7 atoms
    Monomer B:   7 atoms
    Monomer C:  21 atoms

   => Link Bond Identification <=

    Link Bond Selection = AUTOMATIC

    Charge Completeness = 0.800

    Total Link Bonds = 2

    --------------------------
    N     Orb Type Aind1 Aind2
    --------------------------
    1      23   AC     1    24
    2      49   BC     8    23
    --------------------------

   => Link Bond Assignment <=

    Link Bond Assignment      = C

   => Partition Summary <=

    Monomer A:  0 charge,  30 protons,  30 electrons,  15 docc
    Monomer B:  0 charge,  30 protons,  30 electrons,  15 docc
    Monomer C:  0 charge,  70 protons,  70 electrons,  35 docc

  ==> Overlap Integrals <==

  ==> Kinetic Integrals <==

  ==> Nuclear Integrals <==

    Nuclear Repulsion Tot:   1.4111521314282406E+03 [Eh]

  ==> Coulomb Integrals <==

  ==> DFJK: Density-Fitted J/K Matrices <==

    J tasked:                  Yes
    K tasked:                  Yes
    wK tasked:                  No
    OpenMP threads:              1
    Integrals threads:           1
    Memory (MB):            643730
    Algorithm:                Core
    Integral Cache:           NONE
    Schwarz Cutoff:          1E-12
    Fitting Condition:       1E-12

   => Auxiliary Basis Set <=

  Basis Set: (JUN-CC-PVDZ AUX)
    Blend: JUN-CC-PVDZ-JKFIT
    Number of shells: 621
    Number of basis function: 1757
    Number of Cartesian functions: 1997
    Spherical Harmonics?: true
    Max angular momentum: 3

  ==> Relaxed SCF Equations <==

  ==> SCF A: <==

    Maxiter =          50
    E Tol   =   1.000E-06
    D Tol   =   1.000E-08

    Max DIIS Vectors = 5

    Iter   N:                        E          dE         |D|
    Iter   1:  -2.2397357012464519E+02  -2.240E+02   8.022E-04 
    Iter   2:  -2.2398812651575940E+02  -1.456E-02   4.946E-05 DIIS
    Iter   3:  -2.2398834197535331E+02  -2.155E-04   2.065E-05 DIIS
    Iter   4:  -2.2398836693550408E+02  -2.496E-05   7.946E-06 DIIS
    Iter   5:  -2.2398837160003640E+02  -4.665E-06   1.324E-06 DIIS
    Iter   6:  -2.2398837183563413E+02  -2.356E-07   5.200E-07 DIIS
    Iter   7:  -2.2398837187370682E+02  -3.807E-08   1.691E-07 DIIS
    Iter   8:  -2.2398837187839288E+02  -4.686E-09   8.138E-08 DIIS
    Iter   9:  -2.2398837187936860E+02  -9.757E-10   3.404E-08 DIIS
    Iter  10:  -2.2398837187961288E+02  -2.443E-10   1.481E-08 DIIS
    Iter  11:  -2.2398837187964932E+02  -3.644E-11   7.824E-09 DIIS

    FISAPTSCF Converged.

    Final SCF Energy:  -2.2398837187964932E+02 [Eh]

   => Occupied Orbital Energies <=

       1  -20.599413     2  -20.545216     3  -11.379750  
       4  -11.290179     5   -1.432251     6   -1.352306  
       7   -0.957399     8   -0.760445     9   -0.664777  
      10   -0.657435    11   -0.615649    12   -0.538087  
      13   -0.530603    14   -0.468833    15   -0.454674  

   => Virtual Orbital Energies <=

      16    0.028560    17    0.053916    18    0.057759  
      19    0.060489    20    0.069978    21    0.077837  
      22    0.079213    23    0.084668    24    0.092574  
      25    0.098594    26    0.102029    27    0.111438  
      28    0.114065    29    0.120041    30    0.123078  
      31    0.124192    32    0.128603    33    0.137640  
      34    0.142140    35    0.147716    36    0.153710  
      37    0.159374    38    0.163736    39    0.168419  
      40    0.172437    41    0.179534    42    0.181642  
      43    0.188709    44    0.190082    45    0.193619  
      46    0.202510    47    0.208795    48    0.212736  
      49    0.220908    50    0.227725    51    0.234327  
      52    0.239914    53    0.241164    54    0.241896  
      55    0.252216    56    0.257148    57    0.259289  
      58    0.266663    59    0.267616    60    0.269716  
      61    0.274821    62    0.279998    63    0.289284  
      64    0.300827    65    0.302168    66    0.311521  
      67    0.318835    68    0.324856    69    0.328816  
      70    0.329940    71    0.333741    72    0.340207  
      73    0.344131    74    0.349527    75    0.353328  
      76    0.361200    77    0.364131    78    0.368312  
      79    0.378016    80    0.384129    81    0.393110  
      82    0.394459    83    0.402286    84    0.406492  
      85    0.413502    86    0.419776    87    0.423280  
      88    0.425363    89    0.433658    90    0.434070  
      91    0.440093    92    0.446190    93    0.449292  
      94    0.455020    95    0.463138    96    0.466750  
      97    0.475212    98    0.480719    99    0.482820  
     100    0.496250   101    0.517340   102    0.524255  
     103    0.531590   104    0.535574   105    0.545054  
     106    0.549237   107    0.557974   108    0.565092  
     109    0.568352   110    0.576490   111    0.591028  
     112    0.595562   113    0.603572   114    0.626508  
     115    0.631279   116    0.637163   117    0.651598  
     118    0.656491   119    0.660208   120    0.672984  
     121    0.690678   122    0.706444   123    0.753566  
     124    0.765022   125    0.769210   126    0.774784  
     127    0.809916   128    0.819705   129    0.834907  
     130    0.846543   131    0.859868   132    0.872306  
     133    0.875455   134    0.888572   135    0.891672  
     136    0.897990   137    0.916246   138    0.931532  
     139    0.934381   140    0.937186   141    0.945931  
     142    0.949039   143    0.954481   144    0.960947  
     145    0.966131   146    0.971183   147    0.981118  
     148    0.988524   149    0.991553   150    0.998496  
     151    1.008821   152    1.016880   153    1.022558  
     154    1.025573   155    1.038701   156    1.047244  
     157    1.052180   158    1.057154   159    1.073214  
     160    1.082693   161    1.101859   162    1.107341  
     163    1.109330   164    1.117196   165    1.123367  
     166    1.133461   167    1.138046   168    1.146238  
     169    1.156035   170    1.166076   171    1.180782  
     172    1.189026   173    1.206839   174    1.226545  
     175    1.262630   176    1.292412   177    1.321534  
     178    1.326050   179    1.342821   180    1.358650  
     181    1.370727   182    1.403377   183    1.415189  
     184    1.439151   185    1.460497   186    1.485163  
     187    1.498264   188    1.503665   189    1.516958  
     190    1.545647   191    1.570529   192    1.581894  
     193    1.591707   194    1.600877   195    1.612717  
     196    1.616040   197    1.623568   198    1.633494  
     199    1.649876   200    1.656972   201    1.670818  
     202    1.684462   203    1.695145   204    1.707820  
     205    1.712429   206    1.725962   207    1.735716  
     208    1.756633   209    1.764673   210    1.777080  
     211    1.786188   212    1.809487   213    1.810933  
     214    1.827679   215    1.838804   216    1.859025  
     217    1.861468   218    1.875810   219    1.885652  
     220    1.900289   221    1.910555   222    1.918182  
     223    1.932761   224    1.955703   225    1.958927  
     226    1.966679   227    1.976695   228    1.978955  
     229    1.986390   230    1.996479   231    2.003315  
     232    2.015820   233    2.025846   234    2.032418  
     235    2.038403   236    2.040886   237    2.054303  
     238    2.059298   239    2.076616   240    2.081079  
     241    2.084768   242    2.103630   243    2.106370  
     244    2.114216   245    2.122190   246    2.135170  
     247    2.143974   248    2.155840   249    2.157963  
     250    2.170313   251    2.178220   252    2.192158  
     253    2.202090   254    2.214451   255    2.225693  
     256    2.247264   257    2.254403   258    2.266855  
     259    2.269346   260    2.292181   261    2.303423  
     262    2.313322   263    2.327900   264    2.338788  
     265    2.341185   266    2.367053   267    2.372591  
     268    2.377583   269    2.387540   270    2.399090  
     271    2.403973   272    2.408894   273    2.423523  
     274    2.431162   275    2.448724   276    2.464161  
     277    2.483159   278    2.501292   279    2.518250  
     280    2.538073   281    2.539007   282    2.570119  
     283    2.573107   284    2.613772   285    2.621978  
     286    2.639147   287    2.658964   288    2.672165  
     289    2.686492   290    2.697552   291    2.713145  
     292    2.716561   293    2.753034   294    2.769360  
     295    2.781472   296    2.784922   297    2.796072  
     298    2.819255   299    2.825539   300    2.853943  
     301    2.865799   302    2.874209   303    2.879669  
     304    2.887288   305    2.889650   306    2.905909  
     307    2.906825   308    2.916920   309    2.926314  
     310    2.934203   311    2.948114   312    2.961821  
     313    2.982306   314    3.004500   315    3.024959  
     316    3.030062   317    3.043586   318    3.087047  
     319    3.092381   320    3.147193   321    3.212728  
     322    3.278184   323    3.323531   324    3.374926  
     325    3.400992   326    3.445445   327    3.449722  
     328    3.557377   329    3.583709   330    3.651263  
     331    3.660465   332    3.717335   333    3.765304  
     334    3.790293   335    3.839766   336    3.933146  
     337    3.956386   338    3.966466   339    4.124553  
     340    4.135750   341    4.203733   342    4.429429  
     343    4.515149   344    4.533722   345    4.754918  
     346    4.941912   347    5.039356   348    5.070078  
     349    5.214594   350    5.328382   351    5.526750  
     352    5.634236   353    5.758589   354    5.861200  
     355    6.089961   356    6.340273   357    6.713033  
     358   13.388541   359   18.426568   360   33.424261  
     361   33.473214  

  ==> SCF B: <==

    Maxiter =          50
    E Tol   =   1.000E-06
    D Tol   =   1.000E-08

    Max DIIS Vectors = 5

    Iter   N:                        E          dE         |D|
    Iter   1:  -2.2408415053610469E+02  -2.241E+02   6.916E-04 
    Iter   2:  -2.2409559794223406E+02  -1.145E-02   4.423E-05 DIIS
    Iter   3:  -2.2409576237682489E+02  -1.644E-04   2.003E-05 DIIS
    Iter   4:  -2.2409578383100956E+02  -2.145E-05   6.617E-06 DIIS
    Iter   5:  -2.2409578710102727E+02  -3.270E-06   1.118E-06 DIIS
    Iter   6:  -2.2409578723994665E+02  -1.389E-07   4.019E-07 DIIS
    Iter   7:  -2.2409578725897285E+02  -1.903E-08   1.184E-07 DIIS
    Iter   8:  -2.2409578726096612E+02  -1.993E-09   5.800E-08 DIIS
    Iter   9:  -2.2409578726138022E+02  -4.141E-10   2.228E-08 DIIS
    Iter  10:  -2.2409578726148558E+02  -1.054E-10   1.036E-08 DIIS
    Iter  11:  -2.2409578726150059E+02  -1.501E-11   5.988E-09 DIIS

    FISAPTSCF Converged.

    Final SCF Energy:  -2.2409578726150059E+02 [Eh]

   => Occupied Orbital Energies <=

       1  -20.599432     2  -20.549162     3  -11.384764  
       4  -11.291101     5   -1.433094     6   -1.356334  
       7   -0.956375     8   -0.761092     9   -0.668300  
      10   -0.657814    11   -0.617223    12   -0.539977  
      13   -0.533118    14   -0.472781    15   -0.457877  

   => Virtual Orbital Energies <=

      16    0.031199    17    0.053909    18    0.057702  
      19    0.064217    20    0.067756    21    0.073356  
      22    0.082313    23    0.085531    24    0.097517  
      25    0.101195    26    0.102344    27    0.106524  
      28    0.113331    29    0.118989    30    0.121652  
      31    0.126659    32    0.127956    33    0.137004  
      34    0.141625    35    0.147789    36    0.150971  
      37    0.163782    38    0.167958    39    0.170663  
      40    0.173372    41    0.179200    42    0.183690  
      43    0.188303    44    0.190165    45    0.196105  
      46    0.208171    47    0.211609    48    0.217347  
      49    0.220775    50    0.226924    51    0.229793  
      52    0.234815    53    0.240107    54    0.245483  
      55    0.253889    56    0.259260    57    0.260695  
      58    0.263322    59    0.267528    60    0.272422  
      61    0.277493    62    0.283707    63    0.287552  
      64    0.299969    65    0.302959    66    0.304918  
      67    0.312851    68    0.318367    69    0.331862  
      70    0.335055    71    0.339474    72    0.344319  
      73    0.345389    74    0.354582    75    0.358318  
      76    0.365859    77    0.368969    78    0.373147  
      79    0.378248    80    0.384718    81    0.390796  
      82    0.397503    83    0.399962    84    0.404668  
      85    0.408909    86    0.417778    87    0.422792  
      88    0.424978    89    0.430897    90    0.434672  
      91    0.438928    92    0.448344    93    0.452377  
      94    0.456628    95    0.462589    96    0.470841  
      97    0.481596    98    0.491357    99    0.495712  
     100    0.502339   101    0.503903   102    0.515047  
     103    0.526837   104    0.535967   105    0.540744  
     106    0.546476   107    0.550551   108    0.558749  
     109    0.565473   110    0.570222   111    0.595527  
     112    0.610188   113    0.612551   114    0.618786  
     115    0.628902   116    0.632062   117    0.640993  
     118    0.644702   119    0.661913   120    0.696693  
     121    0.700697   122    0.715387   123    0.761675  
     124    0.775754   125    0.787188   126    0.792652  
     127    0.810320   128    0.825200   129    0.832919  
     130    0.850635   131    0.858284   132    0.858495  
     133    0.872415   134    0.887630   135    0.897086  
     136    0.910762   137    0.919008   138    0.926633  
     139    0.932768   140    0.939909   141    0.945083  
     142    0.947121   143    0.953486   144    0.966115  
     145    0.968024   146    0.979061   147    0.984658  
     148    0.985742   149    0.994630   150    0.998587  
     151    1.005970   152    1.012456   153    1.031092  
     154    1.036989   155    1.038854   156    1.058230  
     157    1.059818   158    1.066652   159    1.075457  
     160    1.082291   161    1.098692   162    1.101300  
     163    1.113042   164    1.116209   165    1.122812  
     166    1.128870   167    1.138692   168    1.146826  
     169    1.164181   170    1.173852   171    1.186197  
     172    1.197583   173    1.198533   174    1.234603  
     175    1.258414   176    1.289922   177    1.298269  
     178    1.314414   179    1.343742   180    1.355833  
     181    1.385854   182    1.401827   183    1.429942  
     184    1.451773   185    1.479715   186    1.489699  
     187    1.506467   188    1.511046   189    1.525831  
     190    1.549424   191    1.562375   192    1.572751  
     193    1.581611   194    1.589334   195    1.592646  
     196    1.614746   197    1.623294   198    1.645700  
     199    1.654075   200    1.661170   201    1.667408  
     202    1.693341   203    1.703057   204    1.705375  
     205    1.719235   206    1.726468   207    1.733353  
     208    1.740612   209    1.757785   210    1.775229  
     211    1.797587   212    1.810828   213    1.816624  
     214    1.824181   215    1.832319   216    1.846581  
     217    1.859219   218    1.875365   219    1.888055  
     220    1.895574   221    1.915983   222    1.921997  
     223    1.926711   224    1.946068   225    1.948235  
     226    1.963209   227    1.969709   228    1.979631  
     229    1.987523   230    1.991473   231    1.994664  
     232    2.006034   233    2.012516   234    2.025293  
     235    2.043057   236    2.045345   237    2.049349  
     238    2.061025   239    2.068371   240    2.078372  
     241    2.094758   242    2.102721   243    2.106258  
     244    2.115975   245    2.120417   246    2.133393  
     247    2.140169   248    2.147807   249    2.164941  
     250    2.169887   251    2.181580   252    2.193300  
     253    2.202382   254    2.213607   255    2.222240  
     256    2.233519   257    2.261199   258    2.273299  
     259    2.283754   260    2.293743   261    2.298432  
     262    2.302724   263    2.328923   264    2.339136  
     265    2.356447   266    2.362867   267    2.373908  
     268    2.389384   269    2.392615   270    2.400914  
     271    2.415933   272    2.423787   273    2.436065  
     274    2.438407   275    2.447101   276    2.466751  
     277    2.493081   278    2.501432   279    2.511784  
     280    2.539984   281    2.552638   282    2.565231  
     283    2.611677   284    2.626627   285    2.638275  
     286    2.644402   287    2.655797   288    2.670373  
     289    2.687376   290    2.705209   291    2.733069  
     292    2.743003   293    2.754854   294    2.769914  
     295    2.780929   296    2.801868   297    2.815155  
     298    2.824112   299    2.839890   300    2.848308  
     301    2.866838   302    2.874862   303    2.887421  
     304    2.890065   305    2.893649   306    2.902073  
     307    2.906274   308    2.921905   309    2.934732  
     310    2.943357   311    2.949105   312    2.954765  
     313    2.987273   314    3.001726   315    3.027938  
     316    3.034876   317    3.057512   318    3.066870  
     319    3.108960   320    3.129187   321    3.199508  
     322    3.270141   323    3.318974   324    3.379714  
     325    3.396541   326    3.436582   327    3.450876  
     328    3.545202   329    3.584346   330    3.608170  
     331    3.685337   332    3.708062   333    3.766079  
     334    3.789241   335    3.879352   336    3.943195  
     337    3.969044   338    3.979897   339    4.109660  
     340    4.138848   341    4.208819   342    4.443179  
     343    4.520714   344    4.547185   345    4.762327  
     346    4.938291   347    5.042365   348    5.071663  
     349    5.222710   350    5.340034   351    5.543463  
     352    5.647889   353    5.794685   354    5.859019  
     355    6.166822   356    6.366660   357    6.708367  
     358   13.376782   359   18.430626   360   33.423780  
     361   33.484749  

  ==> Frozen Core <==


    ------------------
    Range      A     B
    ------------------
    nbf      396   396
    nmo      361   361
    nocc      15    15
    nvir     346   346
    nfocc      4     4
    naocc     11    11
    navir    346   346
    nfvir      0     0
    ------------------

  ==> Unification <==

  ==> dHF <==

    E ABC(HF) =  -8.3931030875024976E+02 [Eh]
    E AC(0)   =  -6.1127600004561850E+02 [Eh]
    E BC(0)   =  -6.1126711742173825E+02 [Eh]
    E A(0)    =  -2.1266075767000856E+02 [Eh]
    E B(0)    =  -2.1265718187854731E+02 [Eh]
    E AC(HF)  =  -6.1126119829061599E+02 [Eh]
    E BC(HF)  =  -6.1125548069634260E+02 [Eh]
    E AB(HF)  =  -4.2528397190724166E+02 [Eh]
    E A(HF)   =  -2.1263735709272694E+02 [Eh]
    E B(HF)   =  -2.1263698091716628E+02 [Eh]
    E C       =  -3.8321600413402837E+02 [Eh]
    E HF      =   1.6804583078624091E-02 [Eh]

  ==> Electrostatics <==

    Elst10,r            =     0.011849466531 [Eh]

  ==> Exchange <==

    Exch10(S^2)         =     0.007512379271 [Eh]
    Exch10              =     0.007532053323 [Eh]

  ==> Induction <==

    Ind20,u (A<-B)      =    -0.001935297305 [Eh]
    Ind20,u (B<-A)      =    -0.001640352651 [Eh]
    Ind20,u             =    -0.003575649955 [Eh]
    Exch-Ind20,u (A<-B) =     0.000966945372 [Eh]
    Exch-Ind20,u (B<-A) =     0.000801639301 [Eh]
    Exch-Ind20,u        =     0.001768584674 [Eh]

  ==> CPHF Iterations <==

    Maxiter     =          50
    Convergence =   1.000E-08

    -----------------------------------------
    Iter   Monomer A    Monomer B    Time [s]
    -----------------------------------------
    1      2.220E-01    2.062E-01          15
    2      8.646E-02    7.630E-02          31
    3      2.210E-02    1.945E-02          46
    4      8.292E-03    7.864E-03          61
    5      2.308E-03    2.011E-03          76
    6      8.740E-04    7.454E-04          91
    7      2.614E-04    2.066E-04         107
    8      1.281E-04    8.231E-05         122
    9      3.642E-05    2.238E-05         137
    10     1.142E-05    7.674E-06         153
    11     2.824E-06    2.375E-06         168
    12     5.121E-07    5.863E-07         184
    13     1.428E-07    1.822E-07         199
    14     4.140E-08    4.815E-08         214
    15     8.359E-09*   9.150E-09*        230
    -----------------------------------------

    Ind20,r (A<-B)      =    -0.002286081750 [Eh]
    Ind20,r (B<-A)      =    -0.001868199453 [Eh]
    Ind20,r             =    -0.004154281203 [Eh]
    Exch-Ind20,r (A<-B) =     0.001235805822 [Eh]
    Exch-Ind20,r (B<-A) =     0.000958015627 [Eh]
    Exch-Ind20,r        =     0.002193821449 [Eh]

  ==> F-SAPT Localization (IBO) <==

  Local Orbitals for Monomer A:

  ==> IBO Localizer 2 <==

    MinAO Basis = CC-PVTZ-MINAO
    Use Ghosts  =       FALSE
    Use Stars   =       FALSE
    Condition   =   1.000E-07
    Power       =           4
    Convergence =   1.000E-12
    Maxiter     =        1000

    @IBO Iter:                   Metric       Gradient
    @IBO    1:   1.4803414770467538E+00   1.676128E+00
    @IBO    2:   1.6780717352976531E+00   9.428431E-01
    @IBO    3:   1.7093415569236554E+00   3.061587E-01
    @IBO    4:   1.7105315580234517E+00   3.734954E-03
    @IBO    5:   1.7105320036293310E+00   1.583870E-04
    @IBO    6:   1.7105320039240257E+00   2.328039E-06
    @IBO    7:   1.7105320039241176E+00   6.178014E-08
    @IBO    8:   1.7105320039241174E+00   1.585277E-09
    @IBO    9:   1.7105320039241174E+00   5.611043E-11
    @IBO   10:   1.7105320039241174E+00   2.330813E-12
    @IBO   11:   1.7105320039241174E+00   9.955971E-14

    IBO Localizer 2 converged.

  Local Orbitals for Monomer B:

  ==> IBO Localizer 2 <==

    MinAO Basis = CC-PVTZ-MINAO
    Use Ghosts  =       FALSE
    Use Stars   =       FALSE
    Condition   =   1.000E-07
    Power       =           4
    Convergence =   1.000E-12
    Maxiter     =        1000

    @IBO Iter:                   Metric       Gradient
    @IBO    1:   1.4768546098466910E+00   1.501882E+00
    @IBO    2:   1.6825347684904783E+00   8.740848E-01
    @IBO    3:   1.7093374499617913E+00   2.932232E-01
    @IBO    4:   1.7109782562115095E+00   6.124734E-03
    @IBO    5:   1.7109818207339826E+00   1.618158E-04
    @IBO    6:   1.7109818211235459E+00   1.964188E-06
    @IBO    7:   1.7109818211236054E+00   5.239416E-08
    @IBO    8:   1.7109818211236054E+00   1.757496E-09
    @IBO    9:   1.7109818211236054E+00   7.044266E-11
    @IBO   10:   1.7109818211236054E+00   2.934159E-12
    @IBO   11:   1.7109818211236054E+00   1.222512E-13

    IBO Localizer 2 converged.

  ==> F-SAPT Electrostatics <==

  ==> DFERI: Density Fitted 3-Index Tensors <==

    Schwarz cutoff =   0.000E+00
    J cutoff       =   1.000E-12
    Mem (GB)       =         628

   => Auxiliary Basis <=

  Basis Set: (JUN-CC-PVDZ AUX)
    Blend: JUN-CC-PVDZ-JKFIT
    Number of shells: 621
    Number of basis function: 1757
    Number of Cartesian functions: 1997
    Spherical Harmonics?: true
    Max angular momentum: 3

    Elst10,r            =     0.011849466983 [Eh]

  ==> F-SAPT Exchange <==

  ==> DFERI: Density Fitted 3-Index Tensors <==

    Schwarz cutoff =   0.000E+00
    J cutoff       =   1.000E-12
    Mem (GB)       =         628

   => Auxiliary Basis <=

  Basis Set: (JUN-CC-PVDZ AUX)
    Blend: JUN-CC-PVDZ-JKFIT
    Number of shells: 621
    Number of basis function: 1757
    Number of Cartesian functions: 1997
    Spherical Harmonics?: true
    Max angular momentum: 3

    Exch10(S^2)         =     0.007512379271 [Eh]

    Scaling F-SAPT Exch10(S^2) by   1.003E+00 to match Exch10

  ==> F-SAPT Induction <==

  ==> DFERI: Density Fitted 3-Index Tensors <==

    Schwarz cutoff =   0.000E+00
    J cutoff       =   1.000E-12
    Mem (GB)       =         628

   => Auxiliary Basis <=

  Basis Set: (JUN-CC-PVDZ AUX)
    Blend: JUN-CC-PVDZ-JKFIT
    Number of shells: 621
    Number of basis function: 1757
    Number of Cartesian functions: 1997
    Spherical Harmonics?: true
    Max angular momentum: 3

    Ind20,u (A<-B)      =    -0.001935297305 [Eh]
    Ind20,u (B<-A)      =    -0.001640352650 [Eh]
    Ind20,u             =    -0.003575649955 [Eh]
    Exch-Ind20,u (A<-B) =     0.000966945373 [Eh]
    Exch-Ind20,u (B<-A) =     0.000801639301 [Eh]
    Exch-Ind20,u        =     0.001768584674 [Eh]

    Scaling for delta HF        =   1.314E+00
    Scaling for response (A<-B) =   1.085E+00
    Scaling for response (B<-A) =   1.085E+00
    Scaling for total (A<-B)    =   1.426E+00
    Scaling for total (B<-A)    =   1.426E+00

  ==> F-SAPT Dispersion <==

  ==> DFERI: Density Fitted 3-Index Tensors <==

    Schwarz cutoff =   0.000E+00
    J cutoff       =   1.000E-12
    Mem (GB)       =         628

   => Auxiliary Basis <=

  Basis Set: (JUN-CC-PVDZ AUX)
    Blend: JUN-CC-PVDZ-RI
    Number of shells: 465
    Number of basis function: 1357
    Number of Cartesian functions: 1562
    Spherical Harmonics?: true
    Max angular momentum: 3

    Disp20              =    -0.005301758297 [Eh]
    Exch-Disp20         =     0.000562408163 [Eh]

  ==> F-SAPT Output <==

    F-SAPT Data Filepath = fsapt/

  ==> Results <==


    SAPT Results  
  --------------------------------------------------------------------------------------------------------
    Electrostatics                 11.84946653 [mEh]       7.43565282 [kcal/mol]      31.11077438 [kJ/mol]
      Elst10,r                     11.84946653 [mEh]       7.43565282 [kcal/mol]      31.11077438 [kJ/mol]

    Exchange                        7.53205332 [mEh]       4.72643501 [kcal/mol]      19.77540600 [kJ/mol]
      Exch10                        7.53205332 [mEh]       4.72643501 [kcal/mol]      19.77540600 [kJ/mol]
      Exch10(S^2)                   7.51237927 [mEh]       4.71408936 [kcal/mol]      19.72375178 [kJ/mol]

    Induction                      -2.57693678 [mEh]      -1.61705231 [kcal/mol]      -6.76574750 [kJ/mol]
      Ind20,r                      -4.15428120 [mEh]      -2.60685092 [kcal/mol]     -10.90706530 [kJ/mol]
      Exch-Ind20,r                  2.19382145 [mEh]       1.37664380 [kcal/mol]       5.75987821 [kJ/mol]
      delta HF,r (2)               -0.61647702 [mEh]      -0.38684519 [kcal/mol]      -1.61856042 [kJ/mol]
      Induction (A<-B)             -1.38054079 [mEh]      -0.86630246 [kcal/mol]      -3.62460985 [kJ/mol]
      Induction (B<-A)             -1.19639598 [mEh]      -0.75074984 [kcal/mol]      -3.14113765 [kJ/mol]

    Dispersion                     -4.73935013 [mEh]      -2.97398723 [kcal/mol]     -12.44316378 [kJ/mol]
      Disp20                       -5.30175830 [mEh]      -3.32690370 [kcal/mol]     -13.91976641 [kJ/mol]
      Exch-Disp20                   0.56240816 [mEh]       0.35291647 [kcal/mol]       1.47660263 [kJ/mol]

  Total HF                         16.80458308 [mEh]      10.54503553 [kcal/mol]      44.12043287 [kJ/mol]
  Total SAPT0                      12.06523294 [mEh]       7.57104829 [kcal/mol]      31.67726910 [kJ/mol]

  --------------------------------------------------------------------------------------------------------
    Han Solo: This is *not* gonna work.
    Luke Skywalker: Why didn't you say so before?
    Han Solo: I *did* say so before.

*** tstop() called on ThinkPad-P50 at Tue Dec 12 12:06:55 2017
Module time:
	user time   =     502.35 seconds =       8.37 minutes
	system time =       2.94 seconds =       0.05 minutes
	total time  =        505 seconds =       8.42 minutes
Total time:
	user time   =     680.53 seconds =      11.34 minutes
	system time =       4.31 seconds =       0.07 minutes
	total time  =        685 seconds =      11.42 minutes

*** Psi4 exiting successfully. Buy a developer a beer!
