
    -----------------------------------------------------------------------
          Psi4: An Open-Source Ab Initio Electronic Structure Package
                               Psi4 1.1 release

                         Git: Rev {HEAD} add49b9 


    R. M. Parrish, L. A. Burns, D. G. A. Smith, A. C. Simmonett,
    A. E. DePrince III, E. G. Hohenstein, U. Bozkaya, A. Yu. Sokolov,
    R. Di Remigio, R. M. Richard, J. F. Gonthier, A. M. James,
    H. R. McAlexander, A. Kumar, M. Saitow, X. Wang, B. P. Pritchard,
    P. Verma, H. F. Schaefer III, K. Patkowski, R. A. King, E. F. Valeev,
    F. A. Evangelista, J. M. Turney, T. D. Crawford, and C. D. Sherrill,
    J. Chem. Theory Comput. in press (2017).
    (doi: 10.1021/acs.jctc.7b00174)

    -----------------------------------------------------------------------


    Psi4 started on: Wednesday, 18 October 2017 07:30PM

    Process ID:  53459
    PSIDATADIR: /opt/software/psi4/psi4conda/share/psi4
    Memory:     500.0 MiB
    Threads:    48
    
  ==> Input File <==

--------------------------------------------------------------------------
memory 750000 mb

molecule mol {
0 1
C          1.97079       -2.30011       -0.31048
H          2.93192       -2.36710       -0.82440
H          1.98827       -2.96636        0.55516
H          1.19279       -2.64400       -0.99443
--
0 1
C         -0.73542       -1.49952        0.38217
O         -1.13563       -2.46177        0.99281
O         -1.18010       -1.15479       -0.83993
C         -2.21350       -1.97714       -1.40797
H         -1.84168       -2.98766       -1.58525
H         -3.07461       -2.02595       -0.73946
H         -2.47870       -1.49653       -2.34687
--
0 1
C          1.37572        2.40177       -1.29229
H          2.33795        2.49230       -1.80177
H          1.17042        3.33925       -0.76921
H          0.58779        2.24717       -2.02448
C         -1.17606        1.35531        0.12069
O         -1.46827        1.99861       -0.85291
O         -2.09350        0.92356        1.02220
C         -3.47090        1.17274        0.69261
H         -3.71917        0.70923       -0.26377
H         -4.04776        0.72310        1.49775
H         -3.66500        2.24465        0.63174
C          0.20635        0.94931        0.60403
C          0.37020       -0.58821        0.87402
C          1.44234        1.25231       -0.31040
C          2.68229        1.27548        0.62721
C          2.85423       -0.22613        0.97023
C          1.72415       -0.87302        0.12645
O          1.63168        0.00333       -1.00436
H          0.31871        1.47742        1.55542
H          0.46361       -0.80200        1.93696
H          3.54305        1.65351        0.07311
H          2.53935        1.91277        1.50257
H          3.82422       -0.60390        0.64125
H          2.75274       -0.44933        2.03429

symmetry c1
no_reorient
no_com
}

set {
basis jun-cc-pvdz
scf_type df
guess sad
freeze_core true
}

energy('fisapt0')
--------------------------------------------------------------------------

  Memory set to 698.492 GiB by Python driver.

*** tstart() called on vega05.cac.cornell.edu
*** at Wed Oct 18 19:30:03 2017

   => Loading Basis Set <=

    Name: JUN-CC-PVDZ
    Role: ORBITAL
    Keyword: BASIS
    atoms 1, 5, 8, 12, 16, 19, 23-28     entry C          line   157 file /opt/software/psi4/psi4conda/share/psi4/basis/jun-cc-pvdz.gbs 
    atoms 2-4, 9-11, 13-15, 20-22, 30-35 entry H          line    35 file /opt/software/psi4/psi4conda/share/psi4/basis/jun-cc-pvdz.gbs 
    atoms 6-7, 17-18, 29                 entry O          line   225 file /opt/software/psi4/psi4conda/share/psi4/basis/jun-cc-pvdz.gbs 


         ---------------------------------------------------------
                                   SCF
            by Justin Turney, Rob Parrish, and Andy Simmonett
                              RHF Reference
                       48 Threads, 715255 MiB Core
         ---------------------------------------------------------

  ==> Geometry <==

    Molecular point group: c1
    Full point group: C1

    Geometry (in Angstrom), charge = 0, multiplicity = 1:

       Center              X                  Y                   Z               Mass       
    ------------   -----------------  -----------------  -----------------  -----------------
           C          1.970790000000    -2.300110000000    -0.310480000000    12.000000000000
           H          2.931920000000    -2.367100000000    -0.824400000000     1.007825032070
           H          1.988270000000    -2.966360000000     0.555160000000     1.007825032070
           H          1.192790000000    -2.644000000000    -0.994430000000     1.007825032070
           C         -0.735420000000    -1.499520000000     0.382170000000    12.000000000000
           O         -1.135630000000    -2.461770000000     0.992810000000    15.994914619560
           O         -1.180100000000    -1.154790000000    -0.839930000000    15.994914619560
           C         -2.213500000000    -1.977140000000    -1.407970000000    12.000000000000
           H         -1.841680000000    -2.987660000000    -1.585250000000     1.007825032070
           H         -3.074610000000    -2.025950000000    -0.739460000000     1.007825032070
           H         -2.478700000000    -1.496530000000    -2.346870000000     1.007825032070
           C          1.375720000000     2.401770000000    -1.292290000000    12.000000000000
           H          2.337950000000     2.492300000000    -1.801770000000     1.007825032070
           H          1.170420000000     3.339250000000    -0.769210000000     1.007825032070
           H          0.587790000000     2.247170000000    -2.024480000000     1.007825032070
           C         -1.176060000000     1.355310000000     0.120690000000    12.000000000000
           O         -1.468270000000     1.998610000000    -0.852910000000    15.994914619560
           O         -2.093500000000     0.923560000000     1.022200000000    15.994914619560
           C         -3.470900000000     1.172740000000     0.692610000000    12.000000000000
           H         -3.719170000000     0.709230000000    -0.263770000000     1.007825032070
           H         -4.047760000000     0.723100000000     1.497750000000     1.007825032070
           H         -3.665000000000     2.244650000000     0.631740000000     1.007825032070
           C          0.206350000000     0.949310000000     0.604030000000    12.000000000000
           C          0.370200000000    -0.588210000000     0.874020000000    12.000000000000
           C          1.442340000000     1.252310000000    -0.310400000000    12.000000000000
           C          2.682290000000     1.275480000000     0.627210000000    12.000000000000
           C          2.854230000000    -0.226130000000     0.970230000000    12.000000000000
           C          1.724150000000    -0.873020000000     0.126450000000    12.000000000000
           O          1.631680000000     0.003330000000    -1.004360000000    15.994914619560
           H          0.318710000000     1.477420000000     1.555420000000     1.007825032070
           H          0.463610000000    -0.802000000000     1.936960000000     1.007825032070
           H          3.543050000000     1.653510000000     0.073110000000     1.007825032070
           H          2.539350000000     1.912770000000     1.502570000000     1.007825032070
           H          3.824220000000    -0.603900000000     0.641250000000     1.007825032070
           H          2.752740000000    -0.449330000000     2.034290000000     1.007825032070

  Running in c1 symmetry.

  Rotational constants: A =      0.02194  B =      0.01608  C =      0.01171 [cm^-1]
  Rotational constants: A =    657.61709  B =    482.11662  C =    351.09295 [MHz]
  Nuclear repulsion = 1411.152131428241546

  Charge       = 0
  Multiplicity = 1
  Electrons    = 130
  Nalpha       = 65
  Nbeta        = 65

  ==> Algorithm <==

  SCF Algorithm Type is DF.
  DIIS enabled.
  MOM disabled.
  Fractional occupation disabled.
  Guess Type is SAD.
  Energy threshold   = 1.00e-08
  Density threshold  = 1.00e-08
  Integral threshold = 0.00e+00

  ==> Primary Basis <==

  Basis Set: JUN-CC-PVDZ
    Blend: JUN-CC-PVDZ
    Number of shells: 190
    Number of basis function: 396
    Number of Cartesian functions: 413
    Spherical Harmonics?: true
    Max angular momentum: 2

   => Loading Basis Set <=

    Name: (JUN-CC-PVDZ AUX)
    Role: JKFIT
    Keyword: DF_BASIS_SCF
    atoms 1, 5, 8, 12, 16, 19, 23-28     entry C          line   145 file /opt/software/psi4/psi4conda/share/psi4/basis/jun-cc-pvdz-jkfit.gbs 
    atoms 2-4, 9-11, 13-15, 20-22, 30-35 entry H          line    69 file /opt/software/psi4/psi4conda/share/psi4/basis/jun-cc-pvdz-jkfit.gbs 
    atoms 6-7, 17-18, 29                 entry O          line   257 file /opt/software/psi4/psi4conda/share/psi4/basis/jun-cc-pvdz-jkfit.gbs 

  ==> Pre-Iterations <==

   -------------------------------------------------------
    Irrep   Nso     Nmo     Nalpha   Nbeta   Ndocc  Nsocc
   -------------------------------------------------------
     A        396     396       0       0       0       0
   -------------------------------------------------------
    Total     396     396      65      65      65       0
   -------------------------------------------------------

  ==> Integral Setup <==

  ==> DFJK: Density-Fitted J/K Matrices <==

    J tasked:                  Yes
    K tasked:                  Yes
    wK tasked:                  No
    OpenMP threads:             48
    Integrals threads:          48
    Memory (MB):            536441
    Algorithm:                Core
    Integral Cache:           NONE
    Schwarz Cutoff:          1E-12
    Fitting Condition:       1E-12

   => Auxiliary Basis Set <=

  Basis Set: (JUN-CC-PVDZ AUX)
    Blend: JUN-CC-PVDZ-JKFIT
    Number of shells: 621
    Number of basis function: 1757
    Number of Cartesian functions: 1997
    Spherical Harmonics?: true
    Max angular momentum: 3

  Minimum eigenvalue in the overlap matrix is 7.2553948357E-06.
  Using Symmetric Orthogonalization.

  SCF Guess: Superposition of Atomic Densities via on-the-fly atomic UHF.

  ==> Iterations <==

                           Total Energy        Delta E     RMS |[F,P]|

   @DF-RHF iter   0:  -847.02227198163882   -8.47022e+02   1.31627e-01 
   @DF-RHF iter   1:  -838.69580340807590    8.32647e+00   1.59776e-02 
   @DF-RHF iter   2:  -839.10810793676376   -4.12305e-01   1.02658e-02 DIIS
   @DF-RHF iter   3:  -839.29067404792556   -1.82566e-01   2.40786e-03 DIIS
   @DF-RHF iter   4:  -839.30809640096595   -1.74224e-02   8.55723e-04 DIIS
   @DF-RHF iter   5:  -839.30999818334510   -1.90178e-03   1.98101e-04 DIIS
   @DF-RHF iter   6:  -839.31024587460070   -2.47691e-04   9.58983e-05 DIIS
   @DF-RHF iter   7:  -839.31029872482418   -5.28502e-05   1.88891e-05 DIIS
   @DF-RHF iter   8:  -839.31030705081298   -8.32599e-06   1.64863e-05 DIIS
   @DF-RHF iter   9:  -839.31030848559408   -1.43478e-06   5.99606e-06 DIIS
   @DF-RHF iter  10:  -839.31030870042264   -2.14829e-07   2.40976e-06 DIIS
   @DF-RHF iter  11:  -839.31030873684142   -3.64188e-08   8.66727e-07 DIIS
   @DF-RHF iter  12:  -839.31030874226462   -5.42320e-09   4.06736e-07 DIIS
   @DF-RHF iter  13:  -839.31030874324438   -9.79753e-10   1.83247e-07 DIIS
   @DF-RHF iter  14:  -839.31030874340843   -1.64050e-10   4.51411e-08 DIIS
   @DF-RHF iter  15:  -839.31030874342753   -1.90994e-11   2.52885e-08 DIIS
   @DF-RHF iter  16:  -839.31030874342866   -1.13687e-12   1.18882e-08 DIIS
   @DF-RHF iter  17:  -839.31030874342935   -6.82121e-13   3.24877e-09 DIIS

  ==> Post-Iterations <==

    Orbital Energies (a.u.)
    -----------------------

    Doubly Occupied:                                                      

       1A    -20.610864     2A    -20.610054     3A    -20.562278  
       4A    -20.556481     5A    -20.554771     6A    -11.393935  
       7A    -11.389780     8A    -11.303919     9A    -11.299057  
      10A    -11.297177    11A    -11.296345    12A    -11.268092  
      13A    -11.264192    14A    -11.238507    15A    -11.236691  
      16A    -11.230903    17A    -11.217315    18A     -1.471574  
      19A     -1.463250    20A     -1.401036    21A     -1.367628  
      22A     -1.365242    23A     -1.115643    24A     -1.075987  
      25A     -1.052746    26A     -0.993342    27A     -0.976732  
      28A     -0.968006    29A     -0.914112    30A     -0.874453  
      31A     -0.816449    32A     -0.785391    33A     -0.768596  
      34A     -0.760989    35A     -0.712144    36A     -0.698822  
      37A     -0.694828    38A     -0.677069    39A     -0.672030  
      40A     -0.664342    41A     -0.651321    42A     -0.646149  
      43A     -0.623536    44A     -0.602128    45A     -0.590139  
      46A     -0.588267    47A     -0.569479    48A     -0.563641  
      49A     -0.555989    50A     -0.548383    51A     -0.542386  
      52A     -0.532529    53A     -0.531998    54A     -0.511122  
      55A     -0.503522    56A     -0.500292    57A     -0.496223  
      58A     -0.484661    59A     -0.474572    60A     -0.472117  
      61A     -0.465878    62A     -0.463156    63A     -0.443979  
      64A     -0.425683    65A     -0.421690  

    Virtual:                                                              

      66A      0.050786    67A      0.052803    68A      0.056711  
      69A      0.065560    70A      0.071896    71A      0.076483  
      72A      0.084093    73A      0.092604    74A      0.099541  
      75A      0.101447    76A      0.108169    77A      0.114604  
      78A      0.119343    79A      0.123374    80A      0.124372  
      81A      0.127107    82A      0.136990    83A      0.137684  
      84A      0.148908    85A      0.155558    86A      0.157000  
      87A      0.160805    88A      0.164896    89A      0.175615  
      90A      0.176742    91A      0.178917    92A      0.181720  
      93A      0.186626    94A      0.191102    95A      0.204115  
      96A      0.207232    97A      0.208143    98A      0.216520  
      99A      0.220809   100A      0.223499   101A      0.232202  
     102A      0.234726   103A      0.238132   104A      0.247765  
     105A      0.251346   106A      0.255758   107A      0.255929  
     108A      0.263273   109A      0.265040   110A      0.273792  
     111A      0.276248   112A      0.281856   113A      0.290863  
     114A      0.300485   115A      0.308686   116A      0.312873  
     117A      0.318968   118A      0.321984   119A      0.325083  
     120A      0.334018   121A      0.337831   122A      0.340560  
     123A      0.349676   124A      0.349943   125A      0.358351  
     126A      0.362147   127A      0.368638   128A      0.375829  
     129A      0.378432   130A      0.384047   131A      0.386271  
     132A      0.393965   133A      0.399190   134A      0.402064  
     135A      0.405012   136A      0.412585   137A      0.416187  
     138A      0.420775   139A      0.424885   140A      0.427220  
     141A      0.434809   142A      0.436199   143A      0.440827  
     144A      0.450470   145A      0.456629   146A      0.458651  
     147A      0.469233   148A      0.473586   149A      0.480812  
     150A      0.481960   151A      0.492508   152A      0.503599  
     153A      0.512821   154A      0.520483   155A      0.527224  
     156A      0.532030   157A      0.537701   158A      0.542694  
     159A      0.550586   160A      0.557393   161A      0.560258  
     162A      0.579851   163A      0.594996   164A      0.595948  
     165A      0.609308   166A      0.624670   167A      0.635389  
     168A      0.647332   169A      0.684778   170A      0.702212  
     171A      0.745373   172A      0.746634   173A      0.766189  
     174A      0.782890   175A      0.793239   176A      0.797535  
     177A      0.816558   178A      0.826147   179A      0.831577  
     180A      0.842320   181A      0.859555   182A      0.866880  
     183A      0.882241   184A      0.886065   185A      0.894065  
     186A      0.902120   187A      0.905187   188A      0.915816  
     189A      0.921523   190A      0.923560   191A      0.928349  
     192A      0.936830   193A      0.941961   194A      0.948766  
     195A      0.952087   196A      0.963917   197A      0.965005  
     198A      0.967899   199A      0.972601   200A      0.977194  
     201A      0.981422   202A      0.984548   203A      0.991666  
     204A      0.999960   205A      1.009225   206A      1.016376  
     207A      1.031077   208A      1.035516   209A      1.045731  
     210A      1.053636   211A      1.071158   212A      1.076588  
     213A      1.084422   214A      1.090157   215A      1.107470  
     216A      1.111512   217A      1.113326   218A      1.120634  
     219A      1.128649   220A      1.134402   221A      1.151664  
     222A      1.176247   223A      1.180936   224A      1.189341  
     225A      1.240258   226A      1.249105   227A      1.269576  
     228A      1.289771   229A      1.297987   230A      1.312984  
     231A      1.322524   232A      1.353185   233A      1.365491  
     234A      1.390169   235A      1.415148   236A      1.424328  
     237A      1.441803   238A      1.467751   239A      1.471393  
     240A      1.479738   241A      1.510647   242A      1.515498  
     243A      1.526268   244A      1.542028   245A      1.550768  
     246A      1.557361   247A      1.571157   248A      1.586521  
     249A      1.593087   250A      1.604758   251A      1.621203  
     252A      1.632163   253A      1.635257   254A      1.653716  
     255A      1.657363   256A      1.667242   257A      1.670391  
     258A      1.674462   259A      1.688436   260A      1.701946  
     261A      1.709782   262A      1.714209   263A      1.726583  
     264A      1.738097   265A      1.756453   266A      1.770566  
     267A      1.790632   268A      1.796156   269A      1.800551  
     270A      1.820219   271A      1.841324   272A      1.850983  
     273A      1.859634   274A      1.871768   275A      1.881274  
     276A      1.887635   277A      1.898852   278A      1.909613  
     279A      1.929588   280A      1.933556   281A      1.944929  
     282A      1.946604   283A      1.960799   284A      1.966148  
     285A      1.976065   286A      1.981008   287A      1.983274  
     288A      1.989894   289A      1.999546   290A      2.017333  
     291A      2.021599   292A      2.031013   293A      2.037507  
     294A      2.046319   295A      2.049497   296A      2.056622  
     297A      2.058924   298A      2.065264   299A      2.072120  
     300A      2.080168   301A      2.098698   302A      2.101226  
     303A      2.115144   304A      2.121359   305A      2.135977  
     306A      2.144524   307A      2.160746   308A      2.168899  
     309A      2.177114   310A      2.184949   311A      2.196923  
     312A      2.215225   313A      2.233738   314A      2.250947  
     315A      2.262288   316A      2.281741   317A      2.285857  
     318A      2.295656   319A      2.310105   320A      2.315574  
     321A      2.329432   322A      2.354028   323A      2.369688  
     324A      2.381191   325A      2.390133   326A      2.397372  
     327A      2.408350   328A      2.417892   329A      2.427287  
     330A      2.434447   331A      2.444939   332A      2.458773  
     333A      2.462495   334A      2.474927   335A      2.497555  
     336A      2.520984   337A      2.540216   338A      2.563509  
     339A      2.590762   340A      2.617979   341A      2.636744  
     342A      2.647147   343A      2.666763   344A      2.694215  
     345A      2.728068   346A      2.740120   347A      2.753572  
     348A      2.765521   349A      2.778803   350A      2.790030  
     351A      2.797131   352A      2.807839   353A      2.830179  
     354A      2.857458   355A      2.866081   356A      2.872353  
     357A      2.875184   358A      2.882117   359A      2.890474  
     360A      2.898314   361A      2.899646   362A      2.914122  
     363A      2.929375   364A      2.943928   365A      2.953190  
     366A      2.988673   367A      3.004602   368A      3.008705  
     369A      3.023533   370A      3.032394   371A      3.061946  
     372A      3.114281   373A      3.131978   374A      3.181986  
     375A      3.258997   376A      3.262566   377A      3.296123  
     378A      3.318456   379A      3.379587   380A      3.381421  
     381A      3.413760   382A      3.428476   383A      3.513262  
     384A      3.545746   385A      3.567016   386A      3.597256  
     387A      3.683979   388A      3.693005   389A      3.739431  
     390A      3.785090   391A      3.813469   392A      3.909187  
     393A      3.950980   394A      3.961163   395A      4.107485  
     396A      4.118606  

    Final Occupation by Irrep:
              A 
    DOCC [    65 ]

  Energy converged.

  @DF-RHF Final Energy:  -839.31030874342935

   => Energetics <=

    Nuclear Repulsion Energy =           1411.1521314282415460
    One-Electron Energy =               -3953.2656479277602557
    Two-Electron Energy =                1702.8032077560890230
    DFT Exchange-Correlation Energy =       0.0000000000000000
    Empirical Dispersion Energy =           0.0000000000000000
    PCM Polarization Energy =               0.0000000000000000
    EFP Energy =                            0.0000000000000000
    Total Energy =                       -839.3103087434294594



Properties will be evaluated at   0.000000,   0.000000,   0.000000 Bohr

Properties computed using the SCF density matrix

  Nuclear Dipole Moment: (a.u.)
     X:     1.9624      Y:     1.1052      Z:     0.1487

  Electronic Dipole Moment: (a.u.)
     X:    -1.8473      Y:    -0.8613      Z:     0.3441

  Dipole Moment: (a.u.)
     X:     0.1152      Y:     0.2439      Z:     0.4929     Total:     0.5618

  Dipole Moment: (Debye)
     X:     0.2928      Y:     0.6198      Z:     1.2527     Total:     1.4280


*** tstop() called on vega05.cac.cornell.edu at Wed Oct 18 19:30:56 2017
Module time:
	user time   =     855.70 seconds =      14.26 minutes
	system time =       8.19 seconds =       0.14 minutes
	total time  =         53 seconds =       0.88 minutes
Total time:
	user time   =     855.70 seconds =      14.26 minutes
	system time =       8.19 seconds =       0.14 minutes
	total time  =         53 seconds =       0.88 minutes
   => Loading Basis Set <=

    Name: (JUN-CC-PVDZ AUX)
    Role: JKFIT
    Keyword: DF_BASIS_SCF
    atoms 1, 5, 8, 12, 16, 19, 23-28     entry C          line   145 file /opt/software/psi4/psi4conda/share/psi4/basis/jun-cc-pvdz-jkfit.gbs 
    atoms 2-4, 9-11, 13-15, 20-22, 30-35 entry H          line    69 file /opt/software/psi4/psi4conda/share/psi4/basis/jun-cc-pvdz-jkfit.gbs 
    atoms 6-7, 17-18, 29                 entry O          line   257 file /opt/software/psi4/psi4conda/share/psi4/basis/jun-cc-pvdz-jkfit.gbs 

   => Loading Basis Set <=

    Name: (JUN-CC-PVDZ AUX)
    Role: RIFIT
    Keyword: DF_BASIS_SAPT
    atoms 1, 5, 8, 12, 16, 19, 23-28     entry C          line    99 file /opt/software/psi4/psi4conda/share/psi4/basis/jun-cc-pvdz-ri.gbs 
    atoms 2-4, 9-11, 13-15, 20-22, 30-35 entry H          line    29 file /opt/software/psi4/psi4conda/share/psi4/basis/jun-cc-pvdz-ri.gbs 
    atoms 6-7, 17-18, 29                 entry O          line   187 file /opt/software/psi4/psi4conda/share/psi4/basis/jun-cc-pvdz-ri.gbs 

   => Loading Basis Set <=

    Name: CC-PVTZ-MINAO
    Role: ORBITAL
    Keyword: BASIS
    atoms 1, 5, 8, 12, 16, 19, 23-28     entry C          line   130 file /opt/software/psi4/psi4conda/share/psi4/basis/cc-pvtz-minao.gbs 
    atoms 2-4, 9-11, 13-15, 20-22, 30-35 entry H          line    19 file /opt/software/psi4/psi4conda/share/psi4/basis/cc-pvtz-minao.gbs 
    atoms 6-7, 17-18, 29                 entry O          line   190 file /opt/software/psi4/psi4conda/share/psi4/basis/cc-pvtz-minao.gbs 


*** tstart() called on vega05.cac.cornell.edu
*** at Wed Oct 18 19:30:56 2017

	 --------------------------------------------
	                    FISAPT0                  
	                  Rob Parrish                
	 --------------------------------------------

    Do F-SAPT =         Yes
    Do Plot   =          No
    Memory    =      78.580 [GD]

  ==> Localization (IBO) <==

  ==> IBO Localizer 2 <==

    MinAO Basis = CC-PVTZ-MINAO
    Use Ghosts  =       FALSE
    Use Stars   =       FALSE
    Condition   =   1.000E-07
    Power       =           4
    Convergence =   1.000E-12
    Maxiter     =        1000

    @IBO Iter:                   Metric       Gradient
    @IBO    1:   2.0265465754467975E+00   2.282700E+00
    @IBO    2:   2.2507196745715210E+00   2.507874E+00
    @IBO    3:   2.3471730177110666E+00   1.230333E+00
    @IBO    4:   2.3588035877107476E+00   1.495633E-01
    @IBO    5:   2.3589534159610377E+00   2.584899E-03
    @IBO    6:   2.3589534479525640E+00   4.193045E-05
    @IBO    7:   2.3589534479669410E+00   1.378477E-06
    @IBO    8:   2.3589534479669583E+00   5.190661E-08
    @IBO    9:   2.3589534479669587E+00   2.259426E-09
    @IBO   10:   2.3589534479669587E+00   1.014871E-10
    @IBO   11:   2.3589534479669583E+00   4.591567E-12
    @IBO   12:   2.3589534479669583E+00   2.077154E-13

    IBO Localizer 2 converged.

  ==> Partitioning <==

   => Atomic Partitioning <= 

    Monomer A:   4 atoms
    Monomer B:   7 atoms
    Monomer C:  24 atoms

   => Link Bond Identification <=

    Link Bond Selection = AUTOMATIC

    Charge Completeness = 0.800

    Total Link Bonds = 2

    --------------------------
    N     Orb Type Aind1 Aind2
    --------------------------
    1      23   BC     5    24
    2      38   AC     1    28
    --------------------------

   => Link Bond Assignment <=

    Link Bond Assignment      = C

   => Partition Summary <=

    Monomer A:  0 charge,   8 protons,   8 electrons,   4 docc
    Monomer B:  0 charge,  30 protons,  30 electrons,  15 docc
    Monomer C:  0 charge,  92 protons,  92 electrons,  46 docc

  ==> Overlap Integrals <==

  ==> Kinetic Integrals <==

  ==> Nuclear Integrals <==

    Nuclear Repulsion Tot:   1.4111521314282406E+03 [Eh]

  ==> Coulomb Integrals <==

  ==> DFJK: Density-Fitted J/K Matrices <==

    J tasked:                  Yes
    K tasked:                  Yes
    wK tasked:                  No
    OpenMP threads:             48
    Integrals threads:          48
    Memory (MB):            643730
    Algorithm:                Core
    Integral Cache:           NONE
    Schwarz Cutoff:          1E-12
    Fitting Condition:       1E-12

   => Auxiliary Basis Set <=

  Basis Set: (JUN-CC-PVDZ AUX)
    Blend: JUN-CC-PVDZ-JKFIT
    Number of shells: 621
    Number of basis function: 1757
    Number of Cartesian functions: 1997
    Spherical Harmonics?: true
    Max angular momentum: 3

  ==> Relaxed SCF Equations <==

  ==> SCF A: <==

    Maxiter =          50
    E Tol   =   1.000E-06
    D Tol   =   1.000E-08

    Max DIIS Vectors = 5

    Iter   N:                        E          dE         |D|
    Iter   1:  -3.6215987749213880E+01  -3.622E+01   1.468E-03 
    Iter   2:  -3.6217779416038304E+01  -1.792E-03   1.109E-04 DIIS
    Iter   3:  -3.6217814559635343E+01  -3.514E-05   2.092E-05 DIIS
    Iter   4:  -3.6217816135027540E+01  -1.575E-06   5.229E-06 DIIS
    Iter   5:  -3.6217816222308443E+01  -8.728E-08   5.989E-07 DIIS
    Iter   6:  -3.6217816225348287E+01  -3.040E-09   1.404E-07 DIIS
    Iter   7:  -3.6217816225427718E+01  -7.943E-11   2.077E-08 DIIS
    Iter   8:  -3.6217816225429090E+01  -1.371E-12   1.895E-09 DIIS

    FISAPTSCF Converged.

    Final SCF Energy:  -3.6217816225429090E+01 [Eh]

   => Occupied Orbital Energies <=

       1  -11.222277     2   -0.839300     3   -0.550939  
       4   -0.546084  

   => Virtual Orbital Energies <=

       5    0.031126     6    0.053983     7    0.057774  
       8    0.063952     9    0.067987    10    0.073511  
      11    0.082484    12    0.085612    13    0.097646  
      14    0.101219    15    0.102030    16    0.106374  
      17    0.113204    18    0.118862    19    0.121666  
      20    0.126766    21    0.128232    22    0.137123  
      23    0.141760    24    0.147650    25    0.150989  
      26    0.163307    27    0.168086    28    0.170989  
      29    0.173180    30    0.179242    31    0.184001  
      32    0.188706    33    0.191385    34    0.196393  
      35    0.207900    36    0.211544    37    0.217372  
      38    0.220526    39    0.226950    40    0.230359  
      41    0.235087    42    0.240174    43    0.245656  
      44    0.254003    45    0.259461    46    0.260510  
      47    0.263366    48    0.267585    49    0.272619  
      50    0.277924    51    0.283725    52    0.287428  
      53    0.299611    54    0.302909    55    0.304618  
      56    0.313225    57    0.318171    58    0.331701  
      59    0.335370    60    0.339023    61    0.343912  
      62    0.345460    63    0.354339    64    0.357863  
      65    0.365378    66    0.368467    67    0.373082  
      68    0.378014    69    0.384606    70    0.390657  
      71    0.396979    72    0.399624    73    0.404476  
      74    0.408700    75    0.418074    76    0.422526  
      77    0.425028    78    0.430484    79    0.434351  
      80    0.438850    81    0.448237    82    0.452182  
      83    0.456545    84    0.462497    85    0.470756  
      86    0.481645    87    0.491213    88    0.495154  
      89    0.502325    90    0.504637    91    0.515341  
      92    0.526192    93    0.535662    94    0.540491  
      95    0.546600    96    0.550438    97    0.558611  
      98    0.565171    99    0.570625   100    0.595597  
     101    0.610017   102    0.612577   103    0.618721  
     104    0.628819   105    0.632311   106    0.640989  
     107    0.644844   108    0.661790   109    0.696353  
     110    0.700970   111    0.715251   112    0.761782  
     113    0.776097   114    0.787450   115    0.792742  
     116    0.809771   117    0.824647   118    0.831780  
     119    0.850504   120    0.857602   121    0.858107  
     122    0.872574   123    0.887456   124    0.897008  
     125    0.910666   126    0.918297   127    0.926372  
     128    0.932315   129    0.938973   130    0.944744  
     131    0.946391   132    0.952795   133    0.965289  
     134    0.967596   135    0.978528   136    0.984005  
     137    0.985485   138    0.994420   139    0.998249  
     140    1.006185   141    1.012613   142    1.030951  
     143    1.036903   144    1.038972   145    1.058686  
     146    1.059552   147    1.066899   148    1.075245  
     149    1.081994   150    1.099067   151    1.102222  
     152    1.111756   153    1.115551   154    1.122889  
     155    1.128494   156    1.138912   157    1.146335  
     158    1.164178   159    1.173852   160    1.186387  
     161    1.197622   162    1.198506   163    1.234132  
     164    1.258092   165    1.289868   166    1.298319  
     167    1.313894   168    1.344136   169    1.355549  
     170    1.385333   171    1.402234   172    1.429779  
     173    1.452293   174    1.479437   175    1.489696  
     176    1.506080   177    1.511420   178    1.525847  
     179    1.549225   180    1.562299   181    1.572041  
     182    1.581580   183    1.588962   184    1.592160  
     185    1.614373   186    1.623245   187    1.645294  
     188    1.652935   189    1.661507   190    1.667128  
     191    1.692871   192    1.702862   193    1.705249  
     194    1.718845   195    1.726547   196    1.733418  
     197    1.740088   198    1.757870   199    1.775355  
     200    1.797099   201    1.810190   202    1.816357  
     203    1.823712   204    1.832242   205    1.845877  
     206    1.859247   207    1.875191   208    1.887808  
     209    1.895960   210    1.915325   211    1.921723  
     212    1.926521   213    1.945880   214    1.948626  
     215    1.962933   216    1.969569   217    1.979826  
     218    1.987301   219    1.990978   220    1.994108  
     221    2.005197   222    2.011678   223    2.024242  
     224    2.041787   225    2.044559   226    2.048966  
     227    2.061017   228    2.068316   229    2.077838  
     230    2.094778   231    2.102357   232    2.105870  
     233    2.115736   234    2.119848   235    2.133113  
     236    2.139791   237    2.147535   238    2.164845  
     239    2.169878   240    2.180901   241    2.193236  
     242    2.202793   243    2.213030   244    2.222022  
     245    2.233391   246    2.260574   247    2.273370  
     248    2.283677   249    2.293470   250    2.298622  
     251    2.302433   252    2.328592   253    2.339135  
     254    2.355995   255    2.363234   256    2.373750  
     257    2.388290   258    2.392356   259    2.400392  
     260    2.415973   261    2.423512   262    2.435364  
     263    2.437278   264    2.447041   265    2.466919  
     266    2.493163   267    2.501203   268    2.511379  
     269    2.540267   270    2.552721   271    2.565461  
     272    2.611676   273    2.627280   274    2.638536  
     275    2.643588   276    2.655726   277    2.670362  
     278    2.687189   279    2.704867   280    2.733194  
     281    2.741818   282    2.754339   283    2.769734  
     284    2.780234   285    2.801588   286    2.813882  
     287    2.823335   288    2.839504   289    2.847661  
     290    2.865714   291    2.874429   292    2.886934  
     293    2.889109   294    2.892464   295    2.901972  
     296    2.905297   297    2.921215   298    2.934329  
     299    2.942980   300    2.948626   301    2.954148  
     302    2.986449   303    3.001412   304    3.027304  
     305    3.034908   306    3.057373   307    3.067688  
     308    3.108819   309    3.127780   310    3.199396  
     311    3.272503   312    3.320743   313    3.380460  
     314    3.397754   315    3.435984   316    3.449229  
     317    3.543988   318    3.584252   319    3.608599  
     320    3.685912   321    3.708957   322    3.765260  
     323    3.791912   324    3.879545   325    3.941872  
     326    3.970738   327    3.979473   328    4.109296  
     329    4.139186   330    4.209477   331    4.442586  
     332    4.520575   333    4.547062   334    4.762503  
     335    4.938490   336    5.041886   337    5.071051  
     338    5.222375   339    5.339435   340    5.543970  
     341    5.648065   342    5.793614   343    5.858845  
     344    6.166078   345    6.366178   346    6.708941  
     347   13.377084   348   18.430062   349   33.424476  
     350   33.484487  

  ==> SCF B: <==

    Maxiter =          50
    E Tol   =   1.000E-06
    D Tol   =   1.000E-08

    Max DIIS Vectors = 5

    Iter   N:                        E          dE         |D|
    Iter   1:  -2.2419233782431220E+02  -2.242E+02   1.747E-03 
    Iter   2:  -2.2419889431905025E+02  -6.556E-03   1.924E-04 DIIS
    Iter   3:  -2.2419906773649876E+02  -1.734E-04   6.740E-05 DIIS
    Iter   4:  -2.2419908049497863E+02  -1.276E-05   3.018E-05 DIIS
    Iter   5:  -2.2419908328270358E+02  -2.788E-06   4.274E-06 DIIS
    Iter   6:  -2.2419908337678706E+02  -9.408E-08   1.970E-06 DIIS
    Iter   7:  -2.2419908339331496E+02  -1.653E-08   5.628E-07 DIIS
    Iter   8:  -2.2419908339609057E+02  -2.776E-09   2.537E-07 DIIS
    Iter   9:  -2.2419908339652892E+02  -4.383E-10   1.039E-07 DIIS
    Iter  10:  -2.2419908339661998E+02  -9.106E-11   4.128E-08 DIIS
    Iter  11:  -2.2419908339663220E+02  -1.222E-11   1.835E-08 DIIS
    Iter  12:  -2.2419908339663300E+02  -7.958E-13   6.527E-09 DIIS

    FISAPTSCF Converged.

    Final SCF Energy:  -2.2419908339663300E+02 [Eh]

   => Occupied Orbital Energies <=

       1  -20.605864     2  -20.550881     3  -11.386615  
       4  -11.294214     5   -1.439249     6   -1.358447  
       7   -0.962564     8   -0.766210     9   -0.671280  
      10   -0.663597    11   -0.621491    12   -0.543223  
      13   -0.535770    14   -0.474663    15   -0.461505  

   => Virtual Orbital Energies <=

      16    0.010657    17    0.052898    18    0.056153  
      19    0.065155    20    0.068311    21    0.077149  
      22    0.082378    23    0.089642    24    0.095089  
      25    0.099303    26    0.103554    27    0.106870  
      28    0.114015    29    0.120457    30    0.123588  
      31    0.126402    32    0.127932    33    0.136120  
      34    0.139958    35    0.147995    36    0.156870  
      37    0.163054    38    0.166099    39    0.168683  
      40    0.174909    41    0.178684    42    0.181646  
      43    0.186870    44    0.188830    45    0.196270  
      46    0.206392    47    0.209952    48    0.211988  
      49    0.215536    50    0.223835    51    0.226461  
      52    0.229221    53    0.239639    54    0.242961  
      55    0.250625    56    0.252875    57    0.261190  
      58    0.262078    59    0.264930    60    0.272874  
      61    0.278615    62    0.281789    63    0.300319  
      64    0.303004    65    0.314991    66    0.317093  
      67    0.321385    68    0.328878    69    0.333233  
      70    0.335325    71    0.339129    72    0.345534  
      73    0.348039    74    0.352890    75    0.356767  
      76    0.362066    77    0.364774    78    0.371349  
      79    0.379728    80    0.385417    81    0.388756  
      82    0.396376    83    0.404416    84    0.408166  
      85    0.412658    86    0.415008    87    0.418672  
      88    0.423637    89    0.428111    90    0.433294  
      91    0.440352    92    0.442507    93    0.445931  
      94    0.455614    95    0.456643    96    0.468632  
      97    0.472910    98    0.478644    99    0.484346  
     100    0.488865   101    0.502226   102    0.509333  
     103    0.511257   104    0.527106   105    0.538035  
     106    0.543532   107    0.549050   108    0.557669  
     109    0.559844   110    0.563063   111    0.574002  
     112    0.588352   113    0.594342   114    0.607271  
     115    0.622833   116    0.623721   117    0.629402  
     118    0.640549   119    0.652952   120    0.668706  
     121    0.693417   122    0.709385   123    0.725789  
     124    0.758035   125    0.771990   126    0.784282  
     127    0.810818   128    0.821878   129    0.830061  
     130    0.838634   131    0.847435   132    0.866388  
     133    0.872944   134    0.887275   135    0.892552  
     136    0.902351   137    0.911183   138    0.918518  
     139    0.928382   140    0.933218   141    0.939895  
     142    0.942307   143    0.958168   144    0.960827  
     145    0.965054   146    0.971768   147    0.972695  
     148    0.981277   149    0.983961   150    0.988774  
     151    0.991824   152    1.006866   153    1.011721  
     154    1.019017   155    1.024835   156    1.042088  
     157    1.047794   158    1.066384   159    1.072153  
     160    1.083141   161    1.091690   162    1.100235  
     163    1.102768   164    1.120503   165    1.131915  
     166    1.134606   167    1.143062   168    1.152945  
     169    1.165854   170    1.192547   171    1.215042  
     172    1.246216   173    1.257828   174    1.274692  
     175    1.298355   176    1.310973   177    1.332439  
     178    1.352432   179    1.370245   180    1.373578  
     181    1.387865   182    1.424114   183    1.431056  
     184    1.460693   185    1.468698   186    1.472403  
     187    1.494249   188    1.503193   189    1.511881  
     190    1.519398   191    1.532317   192    1.540191  
     193    1.562314   194    1.564945   195    1.580619  
     196    1.596971   197    1.602302   198    1.608048  
     199    1.622895   200    1.625277   201    1.653817  
     202    1.660512   203    1.669866   204    1.672333  
     205    1.681628   206    1.694073   207    1.704510  
     208    1.708747   209    1.715114   210    1.720539  
     211    1.735943   212    1.742434   213    1.759288  
     214    1.775062   215    1.793798   216    1.810387  
     217    1.835260   218    1.841583   219    1.848719  
     220    1.855732   221    1.871635   222    1.881720  
     223    1.888007   224    1.899652   225    1.902074  
     226    1.920676   227    1.931439   228    1.936851  
     229    1.946522   230    1.949772   231    1.962771  
     232    1.970206   233    1.977437   234    1.980717  
     235    1.992715   236    2.001644   237    2.011780  
     238    2.017829   239    2.024479   240    2.030619  
     241    2.039603   242    2.047911   243    2.055891  
     244    2.058994   245    2.064419   246    2.076250  
     247    2.084861   248    2.095885   249    2.110832  
     250    2.117005   251    2.128970   252    2.131449  
     253    2.146944   254    2.158471   255    2.175038  
     256    2.178244   257    2.188950   258    2.199380  
     259    2.219399   260    2.224085   261    2.243092  
     262    2.245205   263    2.278584   264    2.285458  
     265    2.292049   266    2.302749   267    2.313036  
     268    2.335843   269    2.345437   270    2.355542  
     271    2.374159   272    2.394049   273    2.404433  
     274    2.409098   275    2.412442   276    2.427486  
     277    2.436337   278    2.445465   279    2.448116  
     280    2.465482   281    2.470990   282    2.490251  
     283    2.504717   284    2.520420   285    2.541822  
     286    2.569350   287    2.593283   288    2.607210  
     289    2.613711   290    2.628904   291    2.640381  
     292    2.660569   293    2.688295   294    2.727909  
     295    2.730900   296    2.737548   297    2.745340  
     298    2.783300   299    2.792414   300    2.794543  
     301    2.812661   302    2.828434   303    2.836420  
     304    2.855138   305    2.870266   306    2.877570  
     307    2.887745   308    2.899729   309    2.904196  
     310    2.909229   311    2.927385   312    2.943032  
     313    2.952261   314    2.974918   315    3.001377  
     316    3.022352   317    3.031092   318    3.032566  
     319    3.050239   320    3.059574   321    3.104075  
     322    3.124819   323    3.146265   324    3.203688  
     325    3.263308   326    3.267730   327    3.301894  
     328    3.323709   329    3.387239   330    3.390950  
     331    3.438505   332    3.461475   333    3.530847  
     334    3.575362   335    3.582511   336    3.604305  
     337    3.691652   338    3.695597   339    3.759422  
     340    3.790547   341    3.816849   342    3.900657  
     343    3.939297   344    3.958333   345    3.966374  
     346    4.113162   347    4.125185   348    4.532659  
     349    4.541323   350   13.288638  

  ==> Frozen Core <==


    ------------------
    Range      A     B
    ------------------
    nbf      396   396
    nmo      350   350
    nocc       4    15
    nvir     346   335
    nfocc      1     4
    naocc      3    11
    navir    346   335
    nfvir      0     0
    ------------------

  ==> Unification <==

  ==> dHF <==

    E ABC(HF) =  -8.3931030874342935E+02 [Eh]
    E AC(0)   =  -6.1125730902732937E+02 [Eh]
    E BC(0)   =  -7.9914705944663729E+02 [Eh]
    E A(0)    =  -2.5034368182681405E+01 [Eh]
    E B(0)    =  -2.1265125220410724E+02 [Eh]
    E AC(HF)  =  -6.1125548055111256E+02 [Eh]
    E BC(HF)  =  -7.9914031387431578E+02 [Eh]
    E AB(HF)  =  -2.3765658773945154E+02 [Eh]
    E A(HF)   =  -2.5021366803495390E+01 [Eh]
    E B(HF)   =  -2.1263735706471945E+02 [Eh]
    E C       =  -5.7108334955323448E+02 [Eh]
    E HF      =   1.0710177302826196E-02 [Eh]

  ==> Electrostatics <==

    Elst10,r            =     0.008938184522 [Eh]

  ==> Exchange <==

    Exch10(S^2)         =     0.002817231141 [Eh]
    Exch10              =     0.002821759398 [Eh]

  ==> Induction <==

    Ind20,u (A<-B)      =    -0.001032116257 [Eh]
    Ind20,u (B<-A)      =    -0.000423291858 [Eh]
    Ind20,u             =    -0.001455408115 [Eh]
    Exch-Ind20,u (A<-B) =     0.000454707082 [Eh]
    Exch-Ind20,u (B<-A) =     0.000192482860 [Eh]
    Exch-Ind20,u        =     0.000647189941 [Eh]

  ==> CPHF Iterations <==

    Maxiter     =          50
    Convergence =   1.000E-08

    -----------------------------------------
    Iter   Monomer A    Monomer B    Time [s]
    -----------------------------------------
    1      1.652E-01    2.634E-01           1
    2      3.009E-02    8.870E-02           2
    3      5.413E-03    2.432E-02           3
    4      7.996E-04    1.125E-02           4
    5      1.078E-04    3.717E-03           5
    6      1.482E-05    1.288E-03           6
    7      2.121E-06    3.807E-04           8
    8      2.935E-07    1.420E-04           9
    9      3.851E-08    3.040E-05          10
    10     4.196E-09*   9.943E-06          11
    11     4.196E-09*   3.195E-06          11
    12     4.196E-09*   8.918E-07          12
    13     4.196E-09*   2.188E-07          13
    14     4.196E-09*   4.949E-08          13
    15     4.196E-09*   9.509E-09*         14
    -----------------------------------------

    Ind20,r (A<-B)      =    -0.001209181042 [Eh]
    Ind20,r (B<-A)      =    -0.000483220312 [Eh]
    Ind20,r             =    -0.001692401354 [Eh]
    Exch-Ind20,r (A<-B) =     0.000572840883 [Eh]
    Exch-Ind20,r (B<-A) =     0.000242544276 [Eh]
    Exch-Ind20,r        =     0.000815385160 [Eh]

  ==> F-SAPT Localization (IBO) <==

  Local Orbitals for Monomer A:

  ==> IBO Localizer 2 <==

    MinAO Basis = CC-PVTZ-MINAO
    Use Ghosts  =       FALSE
    Use Stars   =       FALSE
    Condition   =   1.000E-07
    Power       =           4
    Convergence =   1.000E-12
    Maxiter     =        1000

    @IBO Iter:                   Metric       Gradient
    @IBO    1:   1.0644692382432039E+00   3.580791E-02
    @IBO    2:   1.0832417498738429E+00   1.515132E-02
    @IBO    3:   1.0834033005853019E+00   8.967045E-05
    @IBO    4:   1.0834033061533339E+00   1.231411E-08
    @IBO    5:   1.0834033061533341E+00   4.041000E-12
    @IBO    6:   1.0834033061533341E+00   6.608507E-16

    IBO Localizer 2 converged.

  Local Orbitals for Monomer B:

  ==> IBO Localizer 2 <==

    MinAO Basis = CC-PVTZ-MINAO
    Use Ghosts  =       FALSE
    Use Stars   =       FALSE
    Condition   =   1.000E-07
    Power       =           4
    Convergence =   1.000E-12
    Maxiter     =        1000

    @IBO Iter:                   Metric       Gradient
    @IBO    1:   1.4801883051287641E+00   1.681890E+00
    @IBO    2:   1.6768924934289506E+00   9.447851E-01
    @IBO    3:   1.7090808300489932E+00   3.709752E-01
    @IBO    4:   1.7109253369633297E+00   8.207153E-03
    @IBO    5:   1.7109274200690046E+00   3.665659E-04
    @IBO    6:   1.7109274215901142E+00   4.895514E-06
    @IBO    7:   1.7109274215904855E+00   1.198578E-07
    @IBO    8:   1.7109274215904857E+00   2.867117E-09
    @IBO    9:   1.7109274215904857E+00   9.256916E-11
    @IBO   10:   1.7109274215904855E+00   3.653438E-12
    @IBO   11:   1.7109274215904855E+00   1.523085E-13

    IBO Localizer 2 converged.

  ==> F-SAPT Electrostatics <==

  ==> DFERI: Density Fitted 3-Index Tensors <==

    Schwarz cutoff =   0.000E+00
    J cutoff       =   1.000E-12
    Mem (GB)       =         628

   => Auxiliary Basis <=

  Basis Set: (JUN-CC-PVDZ AUX)
    Blend: JUN-CC-PVDZ-JKFIT
    Number of shells: 621
    Number of basis function: 1757
    Number of Cartesian functions: 1997
    Spherical Harmonics?: true
    Max angular momentum: 3

    Elst10,r            =     0.008938184363 [Eh]

  ==> F-SAPT Exchange <==

  ==> DFERI: Density Fitted 3-Index Tensors <==

    Schwarz cutoff =   0.000E+00
    J cutoff       =   1.000E-12
    Mem (GB)       =         628

   => Auxiliary Basis <=

  Basis Set: (JUN-CC-PVDZ AUX)
    Blend: JUN-CC-PVDZ-JKFIT
    Number of shells: 621
    Number of basis function: 1757
    Number of Cartesian functions: 1997
    Spherical Harmonics?: true
    Max angular momentum: 3

    Exch10(S^2)         =     0.002817231141 [Eh]

    Scaling F-SAPT Exch10(S^2) by   1.002E+00 to match Exch10

  ==> F-SAPT Induction <==

  ==> DFERI: Density Fitted 3-Index Tensors <==

    Schwarz cutoff =   0.000E+00
    J cutoff       =   1.000E-12
    Mem (GB)       =         628

   => Auxiliary Basis <=

  Basis Set: (JUN-CC-PVDZ AUX)
    Blend: JUN-CC-PVDZ-JKFIT
    Number of shells: 621
    Number of basis function: 1757
    Number of Cartesian functions: 1997
    Spherical Harmonics?: true
    Max angular momentum: 3

    Ind20,u (A<-B)      =    -0.001032116258 [Eh]
    Ind20,u (B<-A)      =    -0.000423291858 [Eh]
    Ind20,u             =    -0.001455408117 [Eh]
    Exch-Ind20,u (A<-B) =     0.000454707082 [Eh]
    Exch-Ind20,u (B<-A) =     0.000192482860 [Eh]
    Exch-Ind20,u        =     0.000647189942 [Eh]

    Scaling for delta HF        =   1.197E+00
    Scaling for response (A<-B) =   1.102E+00
    Scaling for response (B<-A) =   1.043E+00
    Scaling for total (A<-B)    =   1.319E+00
    Scaling for total (B<-A)    =   1.248E+00

  ==> F-SAPT Dispersion <==

  ==> DFERI: Density Fitted 3-Index Tensors <==

    Schwarz cutoff =   0.000E+00
    J cutoff       =   1.000E-12
    Mem (GB)       =         628

   => Auxiliary Basis <=

  Basis Set: (JUN-CC-PVDZ AUX)
    Blend: JUN-CC-PVDZ-RI
    Number of shells: 465
    Number of basis function: 1357
    Number of Cartesian functions: 1562
    Spherical Harmonics?: true
    Max angular momentum: 3

    Disp20              =    -0.002435931152 [Eh]
    Exch-Disp20         =     0.000239227433 [Eh]

  ==> F-SAPT Output <==

    F-SAPT Data Filepath = fsapt/

  ==> Results <==


    SAPT Results  
  --------------------------------------------------------------------------------------------------------
    Electrostatics                  8.93818452 [mEh]       5.60879570 [kcal/mol]      23.46720346 [kJ/mol]
      Elst10,r                      8.93818452 [mEh]       5.60879570 [kcal/mol]      23.46720346 [kJ/mol]

    Exchange                        2.82175940 [mEh]       1.77068083 [kcal/mol]       7.40852930 [kJ/mol]
      Exch10                        2.82175940 [mEh]       1.77068083 [kcal/mol]       7.40852930 [kJ/mol]
      Exch10(S^2)                   2.81723114 [mEh]       1.76783930 [kcal/mol]       7.39664036 [kJ/mol]

    Induction                      -1.04976662 [mEh]      -0.65873852 [kcal/mol]      -2.75616225 [kJ/mol]
      Ind20,r                      -1.69240135 [mEh]      -1.06199793 [kcal/mol]      -4.44339976 [kJ/mol]
      Exch-Ind20,r                  0.81538516 [mEh]       0.51166193 [kcal/mol]       2.14079374 [kJ/mol]
      delta HF,r (2)               -0.17275042 [mEh]      -0.10840253 [kcal/mol]      -0.45355623 [kJ/mol]
      Induction (A<-B)             -0.76168338 [mEh]      -0.47796355 [kcal/mol]      -1.99979970 [kJ/mol]
      Induction (B<-A)             -0.28808324 [mEh]      -0.18077497 [kcal/mol]      -0.75636255 [kJ/mol]

    Dispersion                     -2.19670372 [mEh]      -1.37845245 [kcal/mol]      -5.76744561 [kJ/mol]
      Disp20                       -2.43593115 [mEh]      -1.52856994 [kcal/mol]      -6.39553724 [kJ/mol]
      Exch-Disp20                   0.23922743 [mEh]       0.15011749 [kcal/mol]       0.62809162 [kJ/mol]

  Total HF                         10.71017730 [mEh]       6.72073800 [kcal/mol]      28.11957051 [kJ/mol]
  Total SAPT0                       8.51347358 [mEh]       5.34228555 [kcal/mol]      22.35212489 [kJ/mol]

  --------------------------------------------------------------------------------------------------------
    Han Solo: This is *not* gonna work.
    Luke Skywalker: Why didn't you say so before?
    Han Solo: I *did* say so before.

*** tstop() called on vega05.cac.cornell.edu at Wed Oct 18 19:32:30 2017
Module time:
	user time   =    2062.44 seconds =      34.37 minutes
	system time =      13.34 seconds =       0.22 minutes
	total time  =         94 seconds =       1.57 minutes
Total time:
	user time   =    2922.97 seconds =      48.72 minutes
	system time =      21.54 seconds =       0.36 minutes
	total time  =        147 seconds =       2.45 minutes

*** Psi4 exiting successfully. Buy a developer a beer!
