
    -----------------------------------------------------------------------
          Psi4: An Open-Source Ab Initio Electronic Structure Package
                               Psi4 1.1 release

                         Git: Rev {HEAD} add49b9 


    R. M. Parrish, L. A. Burns, D. G. A. Smith, A. C. Simmonett,
    A. E. DePrince III, E. G. Hohenstein, U. Bozkaya, A. Yu. Sokolov,
    R. Di Remigio, R. M. Richard, J. F. Gonthier, A. M. James,
    H. R. McAlexander, A. Kumar, M. Saitow, X. Wang, B. P. Pritchard,
    P. Verma, H. F. Schaefer III, K. Patkowski, R. A. King, E. F. Valeev,
    F. A. Evangelista, J. M. Turney, T. D. Crawford, and C. D. Sherrill,
    J. Chem. Theory Comput. in press (2017).
    (doi: 10.1021/acs.jctc.7b00174)

    -----------------------------------------------------------------------


    Psi4 started on: Wednesday, 18 October 2017 07:32PM

    Process ID:  53547
    PSIDATADIR: /opt/software/psi4/psi4conda/share/psi4
    Memory:     500.0 MiB
    Threads:    48
    
  ==> Input File <==

--------------------------------------------------------------------------
memory 750000 mb

molecule mol {
0 1
C          1.37572        2.40177       -1.29229
H          2.33795        2.49230       -1.80177
H          1.17042        3.33925       -0.76921
H          0.58779        2.24717       -2.02448
--
0 1
C         -1.17606        1.35531        0.12069
O         -1.46827        1.99861       -0.85291
O         -2.09350        0.92356        1.02220
C         -3.47090        1.17274        0.69261
H         -3.71917        0.70923       -0.26377
H         -4.04776        0.72310        1.49775
H         -3.66500        2.24465        0.63174
--
0 1
C          0.20635        0.94931        0.60403
C          0.37020       -0.58821        0.87402
C          1.44234        1.25231       -0.31040
C          2.68229        1.27548        0.62721
C          2.85423       -0.22613        0.97023
C          1.72415       -0.87302        0.12645
O          1.63168        0.00333       -1.00436
H          0.31871        1.47742        1.55542
H          0.46361       -0.80200        1.93696
H          3.54305        1.65351        0.07311
H          2.53935        1.91277        1.50257
H          3.82422       -0.60390        0.64125
H          2.75274       -0.44933        2.03429
C          1.97079       -2.30011       -0.31048
H          2.93192       -2.36710       -0.82440
H          1.98827       -2.96636        0.55516
H          1.19279       -2.64400       -0.99443
C         -0.73542       -1.49952        0.38217
O         -1.13563       -2.46177        0.99281
O         -1.18010       -1.15479       -0.83993
C         -2.21350       -1.97714       -1.40797
H         -1.84168       -2.98766       -1.58525
H         -3.07461       -2.02595       -0.73946
H         -2.47870       -1.49653       -2.34687

symmetry c1
no_reorient
no_com
}

set {
basis jun-cc-pvdz
scf_type df
guess sad
freeze_core true
}

energy('fisapt0')
--------------------------------------------------------------------------

  Memory set to 698.492 GiB by Python driver.

*** tstart() called on vega05.cac.cornell.edu
*** at Wed Oct 18 19:32:35 2017

   => Loading Basis Set <=

    Name: JUN-CC-PVDZ
    Role: ORBITAL
    Keyword: BASIS
    atoms 1, 5, 8, 12-17, 25, 29, 32     entry C          line   157 file /opt/software/psi4/psi4conda/share/psi4/basis/jun-cc-pvdz.gbs 
    atoms 2-4, 9-11, 19-24, 26-28, 33-35 entry H          line    35 file /opt/software/psi4/psi4conda/share/psi4/basis/jun-cc-pvdz.gbs 
    atoms 6-7, 18, 30-31                 entry O          line   225 file /opt/software/psi4/psi4conda/share/psi4/basis/jun-cc-pvdz.gbs 


         ---------------------------------------------------------
                                   SCF
            by Justin Turney, Rob Parrish, and Andy Simmonett
                              RHF Reference
                       48 Threads, 715255 MiB Core
         ---------------------------------------------------------

  ==> Geometry <==

    Molecular point group: c1
    Full point group: C1

    Geometry (in Angstrom), charge = 0, multiplicity = 1:

       Center              X                  Y                   Z               Mass       
    ------------   -----------------  -----------------  -----------------  -----------------
           C          1.375720000000     2.401770000000    -1.292290000000    12.000000000000
           H          2.337950000000     2.492300000000    -1.801770000000     1.007825032070
           H          1.170420000000     3.339250000000    -0.769210000000     1.007825032070
           H          0.587790000000     2.247170000000    -2.024480000000     1.007825032070
           C         -1.176060000000     1.355310000000     0.120690000000    12.000000000000
           O         -1.468270000000     1.998610000000    -0.852910000000    15.994914619560
           O         -2.093500000000     0.923560000000     1.022200000000    15.994914619560
           C         -3.470900000000     1.172740000000     0.692610000000    12.000000000000
           H         -3.719170000000     0.709230000000    -0.263770000000     1.007825032070
           H         -4.047760000000     0.723100000000     1.497750000000     1.007825032070
           H         -3.665000000000     2.244650000000     0.631740000000     1.007825032070
           C          0.206350000000     0.949310000000     0.604030000000    12.000000000000
           C          0.370200000000    -0.588210000000     0.874020000000    12.000000000000
           C          1.442340000000     1.252310000000    -0.310400000000    12.000000000000
           C          2.682290000000     1.275480000000     0.627210000000    12.000000000000
           C          2.854230000000    -0.226130000000     0.970230000000    12.000000000000
           C          1.724150000000    -0.873020000000     0.126450000000    12.000000000000
           O          1.631680000000     0.003330000000    -1.004360000000    15.994914619560
           H          0.318710000000     1.477420000000     1.555420000000     1.007825032070
           H          0.463610000000    -0.802000000000     1.936960000000     1.007825032070
           H          3.543050000000     1.653510000000     0.073110000000     1.007825032070
           H          2.539350000000     1.912770000000     1.502570000000     1.007825032070
           H          3.824220000000    -0.603900000000     0.641250000000     1.007825032070
           H          2.752740000000    -0.449330000000     2.034290000000     1.007825032070
           C          1.970790000000    -2.300110000000    -0.310480000000    12.000000000000
           H          2.931920000000    -2.367100000000    -0.824400000000     1.007825032070
           H          1.988270000000    -2.966360000000     0.555160000000     1.007825032070
           H          1.192790000000    -2.644000000000    -0.994430000000     1.007825032070
           C         -0.735420000000    -1.499520000000     0.382170000000    12.000000000000
           O         -1.135630000000    -2.461770000000     0.992810000000    15.994914619560
           O         -1.180100000000    -1.154790000000    -0.839930000000    15.994914619560
           C         -2.213500000000    -1.977140000000    -1.407970000000    12.000000000000
           H         -1.841680000000    -2.987660000000    -1.585250000000     1.007825032070
           H         -3.074610000000    -2.025950000000    -0.739460000000     1.007825032070
           H         -2.478700000000    -1.496530000000    -2.346870000000     1.007825032070

  Running in c1 symmetry.

  Rotational constants: A =      0.02194  B =      0.01608  C =      0.01171 [cm^-1]
  Rotational constants: A =    657.61709  B =    482.11662  C =    351.09295 [MHz]
  Nuclear repulsion = 1411.152131428240864

  Charge       = 0
  Multiplicity = 1
  Electrons    = 130
  Nalpha       = 65
  Nbeta        = 65

  ==> Algorithm <==

  SCF Algorithm Type is DF.
  DIIS enabled.
  MOM disabled.
  Fractional occupation disabled.
  Guess Type is SAD.
  Energy threshold   = 1.00e-08
  Density threshold  = 1.00e-08
  Integral threshold = 0.00e+00

  ==> Primary Basis <==

  Basis Set: JUN-CC-PVDZ
    Blend: JUN-CC-PVDZ
    Number of shells: 190
    Number of basis function: 396
    Number of Cartesian functions: 413
    Spherical Harmonics?: true
    Max angular momentum: 2

   => Loading Basis Set <=

    Name: (JUN-CC-PVDZ AUX)
    Role: JKFIT
    Keyword: DF_BASIS_SCF
    atoms 1, 5, 8, 12-17, 25, 29, 32     entry C          line   145 file /opt/software/psi4/psi4conda/share/psi4/basis/jun-cc-pvdz-jkfit.gbs 
    atoms 2-4, 9-11, 19-24, 26-28, 33-35 entry H          line    69 file /opt/software/psi4/psi4conda/share/psi4/basis/jun-cc-pvdz-jkfit.gbs 
    atoms 6-7, 18, 30-31                 entry O          line   257 file /opt/software/psi4/psi4conda/share/psi4/basis/jun-cc-pvdz-jkfit.gbs 

  ==> Pre-Iterations <==

   -------------------------------------------------------
    Irrep   Nso     Nmo     Nalpha   Nbeta   Ndocc  Nsocc
   -------------------------------------------------------
     A        396     396       0       0       0       0
   -------------------------------------------------------
    Total     396     396      65      65      65       0
   -------------------------------------------------------

  ==> Integral Setup <==

  ==> DFJK: Density-Fitted J/K Matrices <==

    J tasked:                  Yes
    K tasked:                  Yes
    wK tasked:                  No
    OpenMP threads:             48
    Integrals threads:          48
    Memory (MB):            536441
    Algorithm:                Core
    Integral Cache:           NONE
    Schwarz Cutoff:          1E-12
    Fitting Condition:       1E-12

   => Auxiliary Basis Set <=

  Basis Set: (JUN-CC-PVDZ AUX)
    Blend: JUN-CC-PVDZ-JKFIT
    Number of shells: 621
    Number of basis function: 1757
    Number of Cartesian functions: 1997
    Spherical Harmonics?: true
    Max angular momentum: 3

  Minimum eigenvalue in the overlap matrix is 7.2553948351E-06.
  Using Symmetric Orthogonalization.

  SCF Guess: Superposition of Atomic Densities via on-the-fly atomic UHF.

  ==> Iterations <==

                           Total Energy        Delta E     RMS |[F,P]|

   @DF-RHF iter   0:  -847.47587754634196   -8.47476e+02   1.26588e-01 
   @DF-RHF iter   1:  -838.66909578299715    8.80678e+00   1.57409e-02 
   @DF-RHF iter   2:  -839.11110803611462   -4.42012e-01   8.82910e-03 DIIS
   @DF-RHF iter   3:  -839.28530840697874   -1.74200e-01   2.72832e-03 DIIS
   @DF-RHF iter   4:  -839.30705151338952   -2.17431e-02   8.71336e-04 DIIS
   @DF-RHF iter   5:  -839.30979252229440   -2.74101e-03   1.70743e-04 DIIS
   @DF-RHF iter   6:  -839.31022242128529   -4.29899e-04   1.21946e-04 DIIS
   @DF-RHF iter   7:  -839.31029813820419   -7.57169e-05   3.73994e-05 DIIS
   @DF-RHF iter   8:  -839.31030729378381   -9.15558e-06   1.85467e-05 DIIS
   @DF-RHF iter   9:  -839.31030856316272   -1.26938e-06   6.01338e-06 DIIS
   @DF-RHF iter  10:  -839.31030871966459   -1.56502e-07   1.91547e-06 DIIS
   @DF-RHF iter  11:  -839.31030874314683   -2.34822e-08   9.53865e-07 DIIS
   @DF-RHF iter  12:  -839.31030874702572   -3.87888e-09   4.20582e-07 DIIS
   @DF-RHF iter  13:  -839.31030874785222   -8.26503e-10   1.56594e-07 DIIS
   @DF-RHF iter  14:  -839.31030874801502   -1.62800e-10   7.03188e-08 DIIS
   @DF-RHF iter  15:  -839.31030874804048   -2.54659e-11   3.13775e-08 DIIS
   @DF-RHF iter  16:  -839.31030874804514   -4.66116e-12   1.32763e-08 DIIS
   @DF-RHF iter  17:  -839.31030874804526   -1.13687e-13   4.21695e-09 DIIS

  ==> Post-Iterations <==

    Orbital Energies (a.u.)
    -----------------------

    Doubly Occupied:                                                      

       1A    -20.610864     2A    -20.610054     3A    -20.562278  
       4A    -20.556481     5A    -20.554771     6A    -11.393935  
       7A    -11.389780     8A    -11.303919     9A    -11.299057  
      10A    -11.297177    11A    -11.296345    12A    -11.268092  
      13A    -11.264192    14A    -11.238507    15A    -11.236691  
      16A    -11.230903    17A    -11.217315    18A     -1.471574  
      19A     -1.463250    20A     -1.401036    21A     -1.367628  
      22A     -1.365242    23A     -1.115643    24A     -1.075987  
      25A     -1.052746    26A     -0.993342    27A     -0.976732  
      28A     -0.968006    29A     -0.914112    30A     -0.874453  
      31A     -0.816449    32A     -0.785391    33A     -0.768596  
      34A     -0.760989    35A     -0.712144    36A     -0.698822  
      37A     -0.694828    38A     -0.677069    39A     -0.672030  
      40A     -0.664342    41A     -0.651321    42A     -0.646149  
      43A     -0.623536    44A     -0.602128    45A     -0.590139  
      46A     -0.588267    47A     -0.569479    48A     -0.563641  
      49A     -0.555989    50A     -0.548383    51A     -0.542386  
      52A     -0.532529    53A     -0.531998    54A     -0.511122  
      55A     -0.503522    56A     -0.500292    57A     -0.496223  
      58A     -0.484661    59A     -0.474572    60A     -0.472117  
      61A     -0.465878    62A     -0.463156    63A     -0.443979  
      64A     -0.425683    65A     -0.421690  

    Virtual:                                                              

      66A      0.050786    67A      0.052803    68A      0.056711  
      69A      0.065560    70A      0.071896    71A      0.076483  
      72A      0.084093    73A      0.092604    74A      0.099541  
      75A      0.101447    76A      0.108169    77A      0.114604  
      78A      0.119343    79A      0.123374    80A      0.124371  
      81A      0.127107    82A      0.136990    83A      0.137684  
      84A      0.148908    85A      0.155558    86A      0.157000  
      87A      0.160806    88A      0.164896    89A      0.175615  
      90A      0.176742    91A      0.178917    92A      0.181720  
      93A      0.186626    94A      0.191102    95A      0.204115  
      96A      0.207232    97A      0.208143    98A      0.216520  
      99A      0.220809   100A      0.223499   101A      0.232202  
     102A      0.234727   103A      0.238131   104A      0.247765  
     105A      0.251346   106A      0.255759   107A      0.255929  
     108A      0.263273   109A      0.265040   110A      0.273792  
     111A      0.276248   112A      0.281857   113A      0.290863  
     114A      0.300485   115A      0.308686   116A      0.312873  
     117A      0.318968   118A      0.321984   119A      0.325083  
     120A      0.334018   121A      0.337831   122A      0.340560  
     123A      0.349676   124A      0.349943   125A      0.358351  
     126A      0.362147   127A      0.368638   128A      0.375829  
     129A      0.378432   130A      0.384047   131A      0.386271  
     132A      0.393965   133A      0.399190   134A      0.402064  
     135A      0.405013   136A      0.412585   137A      0.416187  
     138A      0.420775   139A      0.424885   140A      0.427220  
     141A      0.434809   142A      0.436199   143A      0.440827  
     144A      0.450470   145A      0.456629   146A      0.458652  
     147A      0.469233   148A      0.473586   149A      0.480813  
     150A      0.481960   151A      0.492508   152A      0.503599  
     153A      0.512821   154A      0.520483   155A      0.527224  
     156A      0.532030   157A      0.537701   158A      0.542694  
     159A      0.550586   160A      0.557394   161A      0.560258  
     162A      0.579851   163A      0.594996   164A      0.595948  
     165A      0.609308   166A      0.624670   167A      0.635389  
     168A      0.647332   169A      0.684778   170A      0.702212  
     171A      0.745373   172A      0.746634   173A      0.766189  
     174A      0.782890   175A      0.793239   176A      0.797535  
     177A      0.816558   178A      0.826147   179A      0.831577  
     180A      0.842320   181A      0.859555   182A      0.866880  
     183A      0.882241   184A      0.886065   185A      0.894065  
     186A      0.902120   187A      0.905187   188A      0.915816  
     189A      0.921523   190A      0.923560   191A      0.928349  
     192A      0.936830   193A      0.941961   194A      0.948766  
     195A      0.952087   196A      0.963917   197A      0.965005  
     198A      0.967899   199A      0.972601   200A      0.977194  
     201A      0.981422   202A      0.984548   203A      0.991666  
     204A      0.999960   205A      1.009225   206A      1.016376  
     207A      1.031077   208A      1.035516   209A      1.045731  
     210A      1.053636   211A      1.071158   212A      1.076588  
     213A      1.084421   214A      1.090157   215A      1.107470  
     216A      1.111512   217A      1.113326   218A      1.120634  
     219A      1.128649   220A      1.134402   221A      1.151664  
     222A      1.176247   223A      1.180936   224A      1.189341  
     225A      1.240258   226A      1.249105   227A      1.269576  
     228A      1.289771   229A      1.297987   230A      1.312984  
     231A      1.322524   232A      1.353185   233A      1.365491  
     234A      1.390169   235A      1.415148   236A      1.424328  
     237A      1.441803   238A      1.467751   239A      1.471393  
     240A      1.479738   241A      1.510647   242A      1.515498  
     243A      1.526268   244A      1.542028   245A      1.550768  
     246A      1.557361   247A      1.571157   248A      1.586521  
     249A      1.593087   250A      1.604758   251A      1.621203  
     252A      1.632163   253A      1.635257   254A      1.653716  
     255A      1.657363   256A      1.667242   257A      1.670391  
     258A      1.674462   259A      1.688436   260A      1.701946  
     261A      1.709782   262A      1.714209   263A      1.726583  
     264A      1.738097   265A      1.756453   266A      1.770566  
     267A      1.790632   268A      1.796156   269A      1.800551  
     270A      1.820219   271A      1.841324   272A      1.850983  
     273A      1.859634   274A      1.871768   275A      1.881274  
     276A      1.887635   277A      1.898852   278A      1.909613  
     279A      1.929588   280A      1.933556   281A      1.944929  
     282A      1.946604   283A      1.960799   284A      1.966148  
     285A      1.976065   286A      1.981008   287A      1.983274  
     288A      1.989894   289A      1.999546   290A      2.017333  
     291A      2.021599   292A      2.031013   293A      2.037507  
     294A      2.046319   295A      2.049497   296A      2.056622  
     297A      2.058924   298A      2.065264   299A      2.072120  
     300A      2.080168   301A      2.098698   302A      2.101226  
     303A      2.115144   304A      2.121359   305A      2.135977  
     306A      2.144524   307A      2.160746   308A      2.168899  
     309A      2.177114   310A      2.184949   311A      2.196923  
     312A      2.215225   313A      2.233738   314A      2.250947  
     315A      2.262288   316A      2.281741   317A      2.285857  
     318A      2.295656   319A      2.310105   320A      2.315574  
     321A      2.329432   322A      2.354028   323A      2.369688  
     324A      2.381191   325A      2.390133   326A      2.397372  
     327A      2.408350   328A      2.417892   329A      2.427287  
     330A      2.434447   331A      2.444939   332A      2.458773  
     333A      2.462495   334A      2.474927   335A      2.497555  
     336A      2.520984   337A      2.540216   338A      2.563509  
     339A      2.590762   340A      2.617979   341A      2.636744  
     342A      2.647147   343A      2.666763   344A      2.694215  
     345A      2.728068   346A      2.740120   347A      2.753572  
     348A      2.765521   349A      2.778803   350A      2.790030  
     351A      2.797131   352A      2.807839   353A      2.830179  
     354A      2.857458   355A      2.866081   356A      2.872353  
     357A      2.875184   358A      2.882117   359A      2.890474  
     360A      2.898314   361A      2.899646   362A      2.914122  
     363A      2.929375   364A      2.943928   365A      2.953190  
     366A      2.988673   367A      3.004602   368A      3.008705  
     369A      3.023533   370A      3.032394   371A      3.061946  
     372A      3.114281   373A      3.131978   374A      3.181986  
     375A      3.258997   376A      3.262566   377A      3.296123  
     378A      3.318456   379A      3.379587   380A      3.381421  
     381A      3.413760   382A      3.428476   383A      3.513262  
     384A      3.545746   385A      3.567016   386A      3.597256  
     387A      3.683979   388A      3.693005   389A      3.739431  
     390A      3.785090   391A      3.813469   392A      3.909187  
     393A      3.950980   394A      3.961163   395A      4.107485  
     396A      4.118606  

    Final Occupation by Irrep:
              A 
    DOCC [    65 ]

  Energy converged.

  @DF-RHF Final Energy:  -839.31030874804526

   => Energetics <=

    Nuclear Repulsion Energy =           1411.1521314282408639
    One-Electron Energy =               -3953.2656474341865760
    Two-Electron Energy =                1702.8032072579003398
    DFT Exchange-Correlation Energy =       0.0000000000000000
    Empirical Dispersion Energy =           0.0000000000000000
    PCM Polarization Energy =               0.0000000000000000
    EFP Energy =                            0.0000000000000000
    Total Energy =                       -839.3103087480453723



Properties will be evaluated at   0.000000,   0.000000,   0.000000 Bohr

Properties computed using the SCF density matrix

  Nuclear Dipole Moment: (a.u.)
     X:     1.9624      Y:     1.1052      Z:     0.1487

  Electronic Dipole Moment: (a.u.)
     X:    -1.8473      Y:    -0.8613      Z:     0.3441

  Dipole Moment: (a.u.)
     X:     0.1152      Y:     0.2439      Z:     0.4929     Total:     0.5618

  Dipole Moment: (Debye)
     X:     0.2928      Y:     0.6198      Z:     1.2527     Total:     1.4280


*** tstop() called on vega05.cac.cornell.edu at Wed Oct 18 19:33:20 2017
Module time:
	user time   =     848.80 seconds =      14.15 minutes
	system time =       7.47 seconds =       0.12 minutes
	total time  =         45 seconds =       0.75 minutes
Total time:
	user time   =     848.80 seconds =      14.15 minutes
	system time =       7.47 seconds =       0.12 minutes
	total time  =         45 seconds =       0.75 minutes
   => Loading Basis Set <=

    Name: (JUN-CC-PVDZ AUX)
    Role: JKFIT
    Keyword: DF_BASIS_SCF
    atoms 1, 5, 8, 12-17, 25, 29, 32     entry C          line   145 file /opt/software/psi4/psi4conda/share/psi4/basis/jun-cc-pvdz-jkfit.gbs 
    atoms 2-4, 9-11, 19-24, 26-28, 33-35 entry H          line    69 file /opt/software/psi4/psi4conda/share/psi4/basis/jun-cc-pvdz-jkfit.gbs 
    atoms 6-7, 18, 30-31                 entry O          line   257 file /opt/software/psi4/psi4conda/share/psi4/basis/jun-cc-pvdz-jkfit.gbs 

   => Loading Basis Set <=

    Name: (JUN-CC-PVDZ AUX)
    Role: RIFIT
    Keyword: DF_BASIS_SAPT
    atoms 1, 5, 8, 12-17, 25, 29, 32     entry C          line    99 file /opt/software/psi4/psi4conda/share/psi4/basis/jun-cc-pvdz-ri.gbs 
    atoms 2-4, 9-11, 19-24, 26-28, 33-35 entry H          line    29 file /opt/software/psi4/psi4conda/share/psi4/basis/jun-cc-pvdz-ri.gbs 
    atoms 6-7, 18, 30-31                 entry O          line   187 file /opt/software/psi4/psi4conda/share/psi4/basis/jun-cc-pvdz-ri.gbs 

   => Loading Basis Set <=

    Name: CC-PVTZ-MINAO
    Role: ORBITAL
    Keyword: BASIS
    atoms 1, 5, 8, 12-17, 25, 29, 32     entry C          line   130 file /opt/software/psi4/psi4conda/share/psi4/basis/cc-pvtz-minao.gbs 
    atoms 2-4, 9-11, 19-24, 26-28, 33-35 entry H          line    19 file /opt/software/psi4/psi4conda/share/psi4/basis/cc-pvtz-minao.gbs 
    atoms 6-7, 18, 30-31                 entry O          line   190 file /opt/software/psi4/psi4conda/share/psi4/basis/cc-pvtz-minao.gbs 


*** tstart() called on vega05.cac.cornell.edu
*** at Wed Oct 18 19:33:21 2017

	 --------------------------------------------
	                    FISAPT0                  
	                  Rob Parrish                
	 --------------------------------------------

    Do F-SAPT =         Yes
    Do Plot   =          No
    Memory    =      78.580 [GD]

  ==> Localization (IBO) <==

  ==> IBO Localizer 2 <==

    MinAO Basis = CC-PVTZ-MINAO
    Use Ghosts  =       FALSE
    Use Stars   =       FALSE
    Condition   =   1.000E-07
    Power       =           4
    Convergence =   1.000E-12
    Maxiter     =        1000

    @IBO Iter:                   Metric       Gradient
    @IBO    1:   2.0265466432913679E+00   2.282698E+00
    @IBO    2:   2.2507196780959546E+00   2.507875E+00
    @IBO    3:   2.3471730267329467E+00   1.230334E+00
    @IBO    4:   2.3588035894047952E+00   1.495623E-01
    @IBO    5:   2.3589534162665324E+00   2.584885E-03
    @IBO    6:   2.3589534482578669E+00   4.193052E-05
    @IBO    7:   2.3589534482722438E+00   1.378466E-06
    @IBO    8:   2.3589534482722616E+00   5.190589E-08
    @IBO    9:   2.3589534482722621E+00   2.259391E-09
    @IBO   10:   2.3589534482722616E+00   1.014855E-10
    @IBO   11:   2.3589534482722616E+00   4.591474E-12
    @IBO   12:   2.3589534482722616E+00   2.076721E-13

    IBO Localizer 2 converged.

  ==> Partitioning <==

   => Atomic Partitioning <= 

    Monomer A:   4 atoms
    Monomer B:   7 atoms
    Monomer C:  24 atoms

   => Link Bond Identification <=

    Link Bond Selection = AUTOMATIC

    Charge Completeness = 0.800

    Total Link Bonds = 2

    --------------------------
    N     Orb Type Aind1 Aind2
    --------------------------
    1      28   AC     1    14
    2      49   BC     5    12
    --------------------------

   => Link Bond Assignment <=

    Link Bond Assignment      = C

   => Partition Summary <=

    Monomer A:  0 charge,   8 protons,   8 electrons,   4 docc
    Monomer B:  0 charge,  30 protons,  30 electrons,  15 docc
    Monomer C:  0 charge,  92 protons,  92 electrons,  46 docc

  ==> Overlap Integrals <==

  ==> Kinetic Integrals <==

  ==> Nuclear Integrals <==

    Nuclear Repulsion Tot:   1.4111521314282409E+03 [Eh]

  ==> Coulomb Integrals <==

  ==> DFJK: Density-Fitted J/K Matrices <==

    J tasked:                  Yes
    K tasked:                  Yes
    wK tasked:                  No
    OpenMP threads:             48
    Integrals threads:          48
    Memory (MB):            643730
    Algorithm:                Core
    Integral Cache:           NONE
    Schwarz Cutoff:          1E-12
    Fitting Condition:       1E-12

   => Auxiliary Basis Set <=

  Basis Set: (JUN-CC-PVDZ AUX)
    Blend: JUN-CC-PVDZ-JKFIT
    Number of shells: 621
    Number of basis function: 1757
    Number of Cartesian functions: 1997
    Spherical Harmonics?: true
    Max angular momentum: 3

  ==> Relaxed SCF Equations <==

  ==> SCF A: <==

    Maxiter =          50
    E Tol   =   1.000E-06
    D Tol   =   1.000E-08

    Max DIIS Vectors = 5

    Iter   N:                        E          dE         |D|
    Iter   1:  -3.6247310259516624E+01  -3.625E+01   1.653E-03 
    Iter   2:  -3.6250103843382703E+01  -2.794E-03   1.777E-04 DIIS
    Iter   3:  -3.6250201519246559E+01  -9.768E-05   4.229E-05 DIIS
    Iter   4:  -3.6250209107471122E+01  -7.588E-06   1.032E-05 DIIS
    Iter   5:  -3.6250209514571658E+01  -4.071E-07   2.236E-06 DIIS
    Iter   6:  -3.6250209530756230E+01  -1.618E-08   2.750E-07 DIIS
    Iter   7:  -3.6250209531020893E+01  -2.647E-10   3.852E-08 DIIS
    Iter   8:  -3.6250209531026087E+01  -5.194E-12   5.239E-09 DIIS

    FISAPTSCF Converged.

    Final SCF Energy:  -3.6250209531026087E+01 [Eh]

   => Occupied Orbital Energies <=

       1  -11.224088     2   -0.840240     3   -0.550738  
       4   -0.549479  

   => Virtual Orbital Energies <=

       5    0.029375     6    0.054069     7    0.057570  
       8    0.060750     9    0.069944    10    0.078097  
      11    0.079244    12    0.084978    13    0.093164  
      14    0.098535    15    0.102083    16    0.111236  
      17    0.114329    18    0.120076    19    0.123186  
      20    0.124300    21    0.128789    22    0.137796  
      23    0.142150    24    0.147773    25    0.153944  
      26    0.159597    27    0.164102    28    0.168731  
      29    0.172630    30    0.179782    31    0.182753  
      32    0.189159    33    0.191060    34    0.193834  
      35    0.202997    36    0.209153    37    0.212704  
      38    0.221027    39    0.228195    40    0.234651  
      41    0.240249    42    0.241118    43    0.241983  
      44    0.252814    45    0.257629    46    0.259241  
      47    0.266835    48    0.268465    49    0.269752  
      50    0.275296    51    0.280280    52    0.289835  
      53    0.301544    54    0.302979    55    0.311890  
      56    0.319566    57    0.325011    58    0.329293  
      59    0.329829    60    0.333806    61    0.340416  
      62    0.344197    63    0.349452    64    0.353912  
      65    0.361254    66    0.364219    67    0.369010  
      68    0.378266    69    0.384688    70    0.393238  
      71    0.394818    72    0.402496    73    0.406937  
      74    0.414124    75    0.419872    76    0.423254  
      77    0.425841    78    0.433913    79    0.434071  
      80    0.440297    81    0.446617    82    0.449450  
      83    0.455290    84    0.463221    85    0.467127  
      86    0.475716    87    0.481457    88    0.483313  
      89    0.497137    90    0.517826    91    0.524179  
      92    0.532211    93    0.536695    94    0.545902  
      95    0.550496    96    0.558892    97    0.566200  
      98    0.569063    99    0.576839   100    0.592122  
     101    0.596737   102    0.604066   103    0.627373  
     104    0.632520   105    0.637607   106    0.652280  
     107    0.657243   108    0.660675   109    0.674421  
     110    0.692330   111    0.707323   112    0.754968  
     113    0.765684   114    0.770281   115    0.774986  
     116    0.809758   117    0.819942   118    0.834822  
     119    0.846926   120    0.860441   121    0.872435  
     122    0.875946   123    0.888843   124    0.893059  
     125    0.897789   126    0.916526   127    0.931555  
     128    0.934014   129    0.937106   130    0.946716  
     131    0.948241   132    0.954067   133    0.961781  
     134    0.966031   135    0.972137   136    0.981699  
     137    0.988371   138    0.992160   139    0.998611  
     140    1.009735   141    1.018025   142    1.022818  
     143    1.026036   144    1.039602   145    1.047748  
     146    1.052968   147    1.057976   148    1.073528  
     149    1.083470   150    1.103082   151    1.107558  
     152    1.109446   153    1.117880   154    1.123824  
     155    1.133637   156    1.137692   157    1.146959  
     158    1.157221   159    1.167231   160    1.182049  
     161    1.189915   162    1.208092   163    1.228055  
     164    1.263461   165    1.292817   166    1.322441  
     167    1.326894   168    1.343309   169    1.359607  
     170    1.371526   171    1.404721   172    1.417026  
     173    1.440986   174    1.461057   175    1.485467  
     176    1.498981   177    1.504644   178    1.517316  
     179    1.546414   180    1.570882   181    1.582390  
     182    1.591900   183    1.601826   184    1.612720  
     185    1.616217   186    1.623717   187    1.634559  
     188    1.651125   189    1.657628   190    1.669253  
     191    1.685110   192    1.695958   193    1.708854  
     194    1.713345   195    1.726737   196    1.736439  
     197    1.757090   198    1.765567   199    1.777447  
     200    1.787222   201    1.810480   202    1.811657  
     203    1.827375   204    1.839073   205    1.859445  
     206    1.862255   207    1.876362   208    1.886258  
     209    1.900814   210    1.910395   211    1.919173  
     212    1.933139   213    1.956388   214    1.959083  
     215    1.966733   216    1.976485   217    1.979622  
     218    1.986488   219    1.997032   220    2.003566  
     221    2.016510   222    2.026112   223    2.031720  
     224    2.038827   225    2.041332   226    2.054940  
     227    2.059010   228    2.076045   229    2.081118  
     230    2.085013   231    2.103964   232    2.107070  
     233    2.114215   234    2.122784   235    2.135547  
     236    2.144193   237    2.156744   238    2.158591  
     239    2.170998   240    2.179038   241    2.192725  
     242    2.203170   243    2.215587   244    2.226356  
     245    2.248329   246    2.254625   247    2.267507  
     248    2.269802   249    2.293042   250    2.304254  
     251    2.313764   252    2.328550   253    2.339706  
     254    2.341785   255    2.367367   256    2.372367  
     257    2.377795   258    2.388228   259    2.399956  
     260    2.403390   261    2.408405   262    2.423669  
     263    2.431440   264    2.449497   265    2.463824  
     266    2.484139   267    2.502053   268    2.518342  
     269    2.539429   270    2.540423   271    2.570917  
     272    2.574793   273    2.614695   274    2.622687  
     275    2.640429   276    2.660086   277    2.673253  
     278    2.686991   279    2.698385   280    2.714090  
     281    2.717067   282    2.753368   283    2.769948  
     284    2.781426   285    2.784645   286    2.795448  
     287    2.818959   288    2.825702   289    2.854305  
     290    2.865849   291    2.873798   292    2.878961  
     293    2.887812   294    2.890115   295    2.905342  
     296    2.906423   297    2.917786   298    2.926115  
     299    2.935185   300    2.948521   301    2.961406  
     302    2.983355   303    3.006133   304    3.025066  
     305    3.030502   306    3.044878   307    3.087963  
     308    3.093880   309    3.146998   310    3.212719  
     311    3.282151   312    3.326709   313    3.376905  
     314    3.403959   315    3.445568   316    3.450701  
     317    3.557453   318    3.585536   319    3.652580  
     320    3.663723   321    3.720635   322    3.765792  
     323    3.793299   324    3.844062   325    3.933326  
     326    3.957004   327    3.969490   328    4.126160  
     329    4.138964   330    4.208213   331    4.431080  
     332    4.517619   333    4.536370   334    4.758421  
     335    4.945236   336    5.039810   337    5.070595  
     338    5.216648   339    5.329698   340    5.530790  
     341    5.637315   342    5.758988   343    5.865757  
     344    6.091758   345    6.342098   346    6.717125  
     347   13.391616   348   18.427013   349   33.428739  
     350   33.475569  

  ==> SCF B: <==

    Maxiter =          50
    E Tol   =   1.000E-06
    D Tol   =   1.000E-08

    Max DIIS Vectors = 5

    Iter   N:                        E          dE         |D|
    Iter   1:  -2.2420158753527068E+02  -2.242E+02   3.963E-03 
    Iter   2:  -2.2421534336230494E+02  -1.376E-02   3.835E-04 DIIS
    Iter   3:  -2.2421588051620989E+02  -5.372E-04   1.294E-04 DIIS
    Iter   4:  -2.2421592322161595E+02  -4.271E-05   7.050E-05 DIIS
    Iter   5:  -2.2421593160451513E+02  -8.383E-06   1.249E-05 DIIS
    Iter   6:  -2.2421593218468863E+02  -5.802E-07   5.311E-06 DIIS
    Iter   7:  -2.2421593224252965E+02  -5.784E-08   2.040E-06 DIIS
    Iter   8:  -2.2421593225577095E+02  -1.324E-08   7.119E-07 DIIS
    Iter   9:  -2.2421593225755041E+02  -1.779E-09   2.620E-07 DIIS
    Iter  10:  -2.2421593225777258E+02  -2.222E-10   7.675E-08 DIIS
    Iter  11:  -2.2421593225780080E+02  -2.822E-11   2.173E-08 DIIS
    Iter  12:  -2.2421593225780205E+02  -1.251E-12   1.195E-08 DIIS
    Iter  13:  -2.2421593225780188E+02   1.705E-13   4.225E-09 DIIS

    FISAPTSCF Converged.

    Final SCF Energy:  -2.2421593225780188E+02 [Eh]

   => Occupied Orbital Energies <=

       1  -20.606759     2  -20.553080     3  -11.389513  
       4  -11.294253     5   -1.438838     6   -1.360397  
       7   -0.960900     8   -0.766271     9   -0.672644  
      10   -0.663046    11   -0.622730    12   -0.542796  
      13   -0.537248    14   -0.476089    15   -0.463769  

   => Virtual Orbital Energies <=

      16    0.019468    17    0.053416    18    0.056760  
      19    0.060638    20    0.070464    21    0.076864  
      22    0.081233    23    0.091323    24    0.094463  
      25    0.102369    26    0.108978    27    0.112440  
      28    0.115805    29    0.117448    30    0.120701  
      31    0.126101    32    0.128660    33    0.137539  
      34    0.139301    35    0.149348    36    0.156024  
      37    0.161204    38    0.163204    39    0.167229  
      40    0.177003    41    0.180442    42    0.182448  
      43    0.185615    44    0.190168    45    0.194721  
      46    0.203695    47    0.209556    48    0.213117  
      49    0.219237    50    0.224250    51    0.225916  
      52    0.231838    53    0.237531    54    0.240155  
      55    0.247232    56    0.251717    57    0.259504  
      58    0.262636    59    0.269956    60    0.274618  
      61    0.280310    62    0.286524    63    0.301707  
      64    0.305412    65    0.313524    66    0.318962  
      67    0.321794    68    0.325537    69    0.329455  
      70    0.333203    71    0.337455    72    0.342237  
      73    0.346636    74    0.354529    75    0.357967  
      76    0.362828    77    0.371132    78    0.375994  
      79    0.385229    80    0.388141    81    0.389619  
      82    0.392556    83    0.399749    84    0.407360  
      85    0.408834    86    0.412473    87    0.420731  
      88    0.423450    89    0.429252    90    0.433697  
      91    0.439584    92    0.441287    93    0.450207  
      94    0.455292    95    0.461199    96    0.463799  
      97    0.472110    98    0.480268    99    0.486993  
     100    0.494110   101    0.496451   102    0.516335  
     103    0.518525   104    0.521963   105    0.536233  
     106    0.540925   107    0.543339   108    0.553475  
     109    0.563169   110    0.573637   111    0.575276  
     112    0.586779   113    0.591722   114    0.600732  
     115    0.611514   116    0.623895   117    0.640329  
     118    0.648163   119    0.662856   120    0.681836  
     121    0.692772   122    0.715872   123    0.722140  
     124    0.758546   125    0.770998   126    0.783766  
     127    0.799743   128    0.808336   129    0.816529  
     130    0.841630   131    0.852995   132    0.864649  
     133    0.873541   134    0.882168   135    0.891869  
     136    0.902919   137    0.907200   138    0.917922  
     139    0.922165   140    0.928375   141    0.939415  
     142    0.946062   143    0.952932   144    0.955802  
     145    0.962105   146    0.971139   147    0.979902  
     148    0.983579   149    0.985730   150    0.989128  
     151    0.994691   152    1.001648   153    1.013209  
     154    1.024017   155    1.035673   156    1.040557  
     157    1.043529   158    1.063442   159    1.074505  
     160    1.088775   161    1.091869   162    1.101243  
     163    1.104791   164    1.120830   165    1.122600  
     166    1.132798   167    1.137771   168    1.152497  
     169    1.161297   170    1.184494   171    1.207492  
     172    1.248951   173    1.271876   174    1.290933  
     175    1.302370   176    1.309098   177    1.327105  
     178    1.340159   179    1.370068   180    1.382314  
     181    1.417241   182    1.423043   183    1.428679  
     184    1.444062   185    1.475560   186    1.483981  
     187    1.488295   188    1.512804   189    1.524699  
     190    1.527040   191    1.533033   192    1.536775  
     193    1.567317   194    1.580032   195    1.588586  
     196    1.595049   197    1.606595   198    1.612888  
     199    1.623122   200    1.634628   201    1.650366  
     202    1.658970   203    1.663763   204    1.670416  
     205    1.675477   206    1.685440   207    1.687663  
     208    1.698447   209    1.713346   210    1.725008  
     211    1.728267   212    1.741874   213    1.750005  
     214    1.774580   215    1.781273   216    1.798097  
     217    1.814200   218    1.832628   219    1.845935  
     220    1.867303   221    1.874218   222    1.883030  
     223    1.895159   224    1.902835   225    1.925223  
     226    1.927546   227    1.936037   228    1.945763  
     229    1.950491   230    1.961913   231    1.967438  
     232    1.970490   233    1.979311   234    1.993868  
     235    1.996119   236    2.000081   237    2.011285  
     238    2.021809   239    2.027888   240    2.036918  
     241    2.041223   242    2.047039   243    2.063620  
     244    2.067889   245    2.072809   246    2.085486  
     247    2.092820   248    2.094395   249    2.103973  
     250    2.107603   251    2.125448   252    2.136211  
     253    2.141987   254    2.154928   255    2.157055  
     256    2.174809   257    2.182984   258    2.198757  
     259    2.200627   260    2.231485   261    2.241043  
     262    2.264814   263    2.277858   264    2.286335  
     265    2.292803   266    2.299331   267    2.309593  
     268    2.333049   269    2.338779   270    2.362275  
     271    2.373200   272    2.391141   273    2.401711  
     274    2.406162   275    2.423858   276    2.426026  
     277    2.430613   278    2.445531   279    2.451622  
     280    2.464642   281    2.473471   282    2.490597  
     283    2.503818   284    2.510997   285    2.543562  
     286    2.582142   287    2.591477   288    2.612873  
     289    2.624294   290    2.635601   291    2.656285  
     292    2.657232   293    2.685252   294    2.711728  
     295    2.719737   296    2.743069   297    2.753957  
     298    2.763911   299    2.784261   300    2.797786  
     301    2.809762   302    2.828551   303    2.836974  
     304    2.857205   305    2.871469   306    2.877949  
     307    2.879336   308    2.884882   309    2.899884  
     310    2.911009   311    2.921672   312    2.937719  
     313    2.945344   314    2.982320   315    3.004511  
     316    3.011386   317    3.020528   318    3.030389  
     319    3.046237   320    3.085860   321    3.091549  
     322    3.124699   323    3.148339   324    3.198977  
     325    3.263653   326    3.268751   327    3.301895  
     328    3.323860   329    3.389522   330    3.393612  
     331    3.445038   332    3.453202   333    3.534739  
     334    3.571676   335    3.582218   336    3.605171  
     337    3.690605   338    3.696967   339    3.759838  
     340    3.791651   341    3.819773   342    3.914603  
     343    3.941734   344    3.958060   345    3.968859  
     346    4.112047   347    4.125070   348    4.547275  
     349    4.567007   350   13.297369  

  ==> Frozen Core <==


    ------------------
    Range      A     B
    ------------------
    nbf      396   396
    nmo      350   350
    nocc       4    15
    nvir     346   335
    nfocc      1     4
    naocc      3    11
    navir    346   335
    nfvir      0     0
    ------------------

  ==> Unification <==

  ==> dHF <==

    E ABC(HF) =  -8.3931030874804526E+02 [Eh]
    E AC(0)   =  -6.1126409750113805E+02 [Eh]
    E BC(0)   =  -7.9917021602492264E+02 [Eh]
    E A(0)    =  -2.5030542614529718E+01 [Eh]
    E B(0)    =  -2.1265846128369179E+02 [Eh]
    E AC(HF)  =  -6.1126119822962971E+02 [Eh]
    E BC(HF)  =  -7.9915587130239032E+02 [Eh]
    E AB(HF)  =  -2.3765569378826012E+02 [Eh]
    E A(HF)   =  -2.5015337682000929E+01 [Eh]
    E B(HF)   =  -2.1263698087008771E+02 [Eh]
    E C       =  -5.7111013602014589E+02 [Eh]
    E HF      =   1.3868757869545334E-02 [Eh]

  ==> Electrostatics <==

    Elst10,r            =     0.007485320445 [Eh]

  ==> Exchange <==

    Exch10(S^2)         =     0.007936158563 [Eh]
    Exch10              =     0.007976958108 [Eh]

  ==> Induction <==

    Ind20,u (A<-B)      =    -0.001558095907 [Eh]
    Ind20,u (B<-A)      =    -0.000939595664 [Eh]
    Ind20,u             =    -0.002497691571 [Eh]
    Exch-Ind20,u (A<-B) =     0.000809021487 [Eh]
    Exch-Ind20,u (B<-A) =     0.000735877352 [Eh]
    Exch-Ind20,u        =     0.001544898839 [Eh]

  ==> CPHF Iterations <==

    Maxiter     =          50
    Convergence =   1.000E-08

    -----------------------------------------
    Iter   Monomer A    Monomer B    Time [s]
    -----------------------------------------
    1      1.344E-01    2.471E-01           1
    2      2.007E-02    9.542E-02           2
    3      5.274E-03    1.798E-02           3
    4      7.873E-04    6.991E-03           4
    5      7.966E-05    1.913E-03           5
    6      1.191E-05    7.231E-04           6
    7      1.881E-06    2.339E-04           7
    8      3.140E-07    1.152E-04           9
    9      3.578E-08    2.507E-05          10
    10     2.762E-09*   7.480E-06          11
    11     2.762E-09*   2.593E-06          11
    12     2.762E-09*   5.103E-07          12
    13     2.762E-09*   1.287E-07          13
    14     2.762E-09*   3.617E-08          13
    15     2.762E-09*   7.621E-09*         14
    -----------------------------------------

    Ind20,r (A<-B)      =    -0.001809115582 [Eh]
    Ind20,r (B<-A)      =    -0.001154366559 [Eh]
    Ind20,r             =    -0.002963482142 [Eh]
    Exch-Ind20,r (A<-B) =     0.000957120907 [Eh]
    Exch-Ind20,r (B<-A) =     0.000980847598 [Eh]
    Exch-Ind20,r        =     0.001937968505 [Eh]

  ==> F-SAPT Localization (IBO) <==

  Local Orbitals for Monomer A:

  ==> IBO Localizer 2 <==

    MinAO Basis = CC-PVTZ-MINAO
    Use Ghosts  =       FALSE
    Use Stars   =       FALSE
    Condition   =   1.000E-07
    Power       =           4
    Convergence =   1.000E-12
    Maxiter     =        1000

    @IBO Iter:                   Metric       Gradient
    @IBO    1:   1.0652828908293692E+00   2.803144E-02
    @IBO    2:   1.0837654544958653E+00   9.504205E-03
    @IBO    3:   1.0838285641909287E+00   2.308824E-05
    @IBO    4:   1.0838285645609982E+00   1.605506E-09
    @IBO    5:   1.0838285645609982E+00   8.541458E-13

    IBO Localizer 2 converged.

  Local Orbitals for Monomer B:

  ==> IBO Localizer 2 <==

    MinAO Basis = CC-PVTZ-MINAO
    Use Ghosts  =       FALSE
    Use Stars   =       FALSE
    Condition   =   1.000E-07
    Power       =           4
    Convergence =   1.000E-12
    Maxiter     =        1000

    @IBO Iter:                   Metric       Gradient
    @IBO    1:   1.4779708489821657E+00   1.657931E+00
    @IBO    2:   1.6772350409311692E+00   9.499425E-01
    @IBO    3:   1.7091445192982895E+00   3.253930E-01
    @IBO    4:   1.7104851648173207E+00   3.050513E-03
    @IBO    5:   1.7104853987999777E+00   1.020595E-04
    @IBO    6:   1.7104853989884501E+00   1.673606E-06
    @IBO    7:   1.7104853989885103E+00   6.118088E-08
    @IBO    8:   1.7104853989885107E+00   2.533907E-09
    @IBO    9:   1.7104853989885107E+00   1.038831E-10
    @IBO   10:   1.7104853989885107E+00   4.221864E-12
    @IBO   11:   1.7104853989885107E+00   1.706592E-13

    IBO Localizer 2 converged.

  ==> F-SAPT Electrostatics <==

  ==> DFERI: Density Fitted 3-Index Tensors <==

    Schwarz cutoff =   0.000E+00
    J cutoff       =   1.000E-12
    Mem (GB)       =         628

   => Auxiliary Basis <=

  Basis Set: (JUN-CC-PVDZ AUX)
    Blend: JUN-CC-PVDZ-JKFIT
    Number of shells: 621
    Number of basis function: 1757
    Number of Cartesian functions: 1997
    Spherical Harmonics?: true
    Max angular momentum: 3

    Elst10,r            =     0.007485320743 [Eh]

  ==> F-SAPT Exchange <==

  ==> DFERI: Density Fitted 3-Index Tensors <==

    Schwarz cutoff =   0.000E+00
    J cutoff       =   1.000E-12
    Mem (GB)       =         628

   => Auxiliary Basis <=

  Basis Set: (JUN-CC-PVDZ AUX)
    Blend: JUN-CC-PVDZ-JKFIT
    Number of shells: 621
    Number of basis function: 1757
    Number of Cartesian functions: 1997
    Spherical Harmonics?: true
    Max angular momentum: 3

    Exch10(S^2)         =     0.007936158563 [Eh]

    Scaling F-SAPT Exch10(S^2) by   1.005E+00 to match Exch10

  ==> F-SAPT Induction <==

  ==> DFERI: Density Fitted 3-Index Tensors <==

    Schwarz cutoff =   0.000E+00
    J cutoff       =   1.000E-12
    Mem (GB)       =         628

   => Auxiliary Basis <=

  Basis Set: (JUN-CC-PVDZ AUX)
    Blend: JUN-CC-PVDZ-JKFIT
    Number of shells: 621
    Number of basis function: 1757
    Number of Cartesian functions: 1997
    Spherical Harmonics?: true
    Max angular momentum: 3

    Ind20,u (A<-B)      =    -0.001558095907 [Eh]
    Ind20,u (B<-A)      =    -0.000939595664 [Eh]
    Ind20,u             =    -0.002497691571 [Eh]
    Exch-Ind20,u (A<-B) =     0.000809021487 [Eh]
    Exch-Ind20,u (B<-A) =     0.000735877352 [Eh]
    Exch-Ind20,u        =     0.001544898839 [Eh]

    Scaling for delta HF        =   1.554E+00
    Scaling for response (A<-B) =   1.137E+00
    Scaling for response (B<-A) =   8.518E-01
    Scaling for total (A<-B)    =   1.767E+00
    Scaling for total (B<-A)    =   1.324E+00

  ==> F-SAPT Dispersion <==

  ==> DFERI: Density Fitted 3-Index Tensors <==

    Schwarz cutoff =   0.000E+00
    J cutoff       =   1.000E-12
    Mem (GB)       =         628

   => Auxiliary Basis <=

  Basis Set: (JUN-CC-PVDZ AUX)
    Blend: JUN-CC-PVDZ-RI
    Number of shells: 465
    Number of basis function: 1357
    Number of Cartesian functions: 1562
    Spherical Harmonics?: true
    Max angular momentum: 3

    Disp20              =    -0.002721979795 [Eh]
    Exch-Disp20         =     0.000511456376 [Eh]

  ==> F-SAPT Output <==

    F-SAPT Data Filepath = fsapt/

  ==> Results <==


    SAPT Results  
  --------------------------------------------------------------------------------------------------------
    Electrostatics                  7.48532045 [mEh]       4.69710969 [kcal/mol]      19.65270883 [kJ/mol]
      Elst10,r                      7.48532045 [mEh]       4.69710969 [kcal/mol]      19.65270883 [kJ/mol]

    Exchange                        7.97695811 [mEh]       5.00561699 [kcal/mol]      20.94350351 [kJ/mol]
      Exch10                        7.97695811 [mEh]       5.00561699 [kcal/mol]      20.94350351 [kJ/mol]
      Exch10(S^2)                   7.93615856 [mEh]       4.98001489 [kcal/mol]      20.83638431 [kJ/mol]

    Induction                      -1.59352068 [mEh]      -0.99994937 [kcal/mol]      -4.18378856 [kJ/mol]
      Ind20,r                      -2.96348214 [mEh]      -1.85961320 [kcal/mol]      -7.78062236 [kJ/mol]
      Exch-Ind20,r                  1.93796851 [mEh]       1.21609365 [kcal/mol]       5.08813631 [kJ/mol]
      delta HF,r (2)               -0.56800705 [mEh]      -0.35642982 [kcal/mol]      -1.49130250 [kJ/mol]
      Induction (A<-B)             -1.32389379 [mEh]      -0.83075593 [kcal/mol]      -3.47588315 [kJ/mol]
      Induction (B<-A)             -0.26962689 [mEh]      -0.16919344 [kcal/mol]      -0.70790540 [kJ/mol]

    Dispersion                     -2.21052342 [mEh]      -1.38712445 [kcal/mol]      -5.80372924 [kJ/mol]
      Disp20                       -2.72197979 [mEh]      -1.70806818 [kcal/mol]      -7.14655795 [kJ/mol]
      Exch-Disp20                   0.51145638 [mEh]       0.32094373 [kcal/mol]       1.34282871 [kJ/mol]

  Total HF                         13.86875787 [mEh]       8.70277732 [kcal/mol]      36.41242379 [kJ/mol]
  Total SAPT0                      11.65823445 [mEh]       7.31565287 [kcal/mol]      30.60869455 [kJ/mol]

  --------------------------------------------------------------------------------------------------------
    Han Solo: This is *not* gonna work.
    Luke Skywalker: Why didn't you say so before?
    Han Solo: I *did* say so before.

*** tstop() called on vega05.cac.cornell.edu at Wed Oct 18 19:34:52 2017
Module time:
	user time   =    2041.50 seconds =      34.02 minutes
	system time =      12.12 seconds =       0.20 minutes
	total time  =         91 seconds =       1.52 minutes
Total time:
	user time   =    2895.46 seconds =      48.26 minutes
	system time =      19.62 seconds =       0.33 minutes
	total time  =        137 seconds =       2.28 minutes

*** Psi4 exiting successfully. Buy a developer a beer!
