
    -----------------------------------------------------------------------
          Psi4: An Open-Source Ab Initio Electronic Structure Package
                               Psi4 1.1 release

                         Git: Rev {HEAD} add49b9 


    R. M. Parrish, L. A. Burns, D. G. A. Smith, A. C. Simmonett,
    A. E. DePrince III, E. G. Hohenstein, U. Bozkaya, A. Yu. Sokolov,
    R. Di Remigio, R. M. Richard, J. F. Gonthier, A. M. James,
    H. R. McAlexander, A. Kumar, M. Saitow, X. Wang, B. P. Pritchard,
    P. Verma, H. F. Schaefer III, K. Patkowski, R. A. King, E. F. Valeev,
    F. A. Evangelista, J. M. Turney, T. D. Crawford, and C. D. Sherrill,
    J. Chem. Theory Comput. in press (2017).
    (doi: 10.1021/acs.jctc.7b00174)

    -----------------------------------------------------------------------


    Psi4 started on: Monday, 15 January 2018 05:59PM

    Process ID:  19228
    PSIDATADIR: /home/junteng/Softwares/psi4conda/share/psi4
    Memory:     500.0 MiB
    Threads:    4
    
  ==> Input File <==

--------------------------------------------------------------------------
memory 750000 mb

molecule mol {
0 1
C         -0.82048       -1.50080        0.50191
O         -1.48590       -2.10965        1.30702
O         -1.02805       -1.55732       -0.82410
C         -2.17237       -2.31252       -1.24807
H         -2.08808       -3.35399       -0.93287
H         -3.08392       -1.88581       -0.82570
H         -2.18230       -2.23960       -2.33355
--
0 1
C         -1.03723        1.59665        0.42739
O         -1.13186        2.80245        0.42291
O         -2.08672        0.78024        0.25215
C         -3.36695        1.41025        0.05821
H         -4.08170        0.59323       -0.00892
H         -3.36368        1.99758       -0.86096
H         -3.60308        2.05996        0.90159
--
0 1
C          1.91069       -2.40671       -0.32329
H          2.00304       -3.02988        0.57048
H          1.09519       -2.78872       -0.93642
H          2.83844       -2.48594       -0.89405
C          1.16349        2.24276       -1.43340
H          1.99947        2.27185       -2.13610
H          1.07591        3.21088       -0.93935
H          0.24596        2.06487       -1.99800
C          0.28370        0.89578        0.68456
C          0.37873       -0.65186        0.89479
C          1.39844        1.14521       -0.42345
C          2.74479        1.18881        0.33553
C          2.87347       -0.28530        0.80006
C          1.67326       -0.96445        0.07004
O          1.48767       -0.12754       -1.08092
H          0.62302        1.38227        1.60129
H          0.52619       -0.87291        1.95148
H          3.54144        1.45476       -0.36207
H          2.74985        1.91374        1.15170
H          3.81354       -0.73064        0.47086
H          2.81123       -0.40391        1.88396

symmetry c1
no_reorient
no_com
}

set {
basis jun-cc-pvdz
scf_type df
guess sad
freeze_core true
}

energy('fisapt0')
--------------------------------------------------------------------------

  Memory set to 698.492 GiB by Python driver.

*** tstart() called on ThinkPad-P50
*** at Mon Jan 15 17:59:00 2018

   => Loading Basis Set <=

    Name: JUN-CC-PVDZ
    Role: ORBITAL
    Keyword: BASIS
    atoms 1, 4, 8, 11, 15, 19, 23-28      entry C          line   157 file /home/junteng/Softwares/psi4conda/share/psi4/basis/jun-cc-pvdz.gbs 
    atoms 2-3, 9-10, 29                   entry O          line   225 file /home/junteng/Softwares/psi4conda/share/psi4/basis/jun-cc-pvdz.gbs 
    atoms 5-7, 12-14, 16-18, 20-22, 30-35 entry H          line    35 file /home/junteng/Softwares/psi4conda/share/psi4/basis/jun-cc-pvdz.gbs 


         ---------------------------------------------------------
                                   SCF
            by Justin Turney, Rob Parrish, and Andy Simmonett
                              RHF Reference
                        4 Threads, 715255 MiB Core
         ---------------------------------------------------------

  ==> Geometry <==

    Molecular point group: c1
    Full point group: C1

    Geometry (in Angstrom), charge = 0, multiplicity = 1:

       Center              X                  Y                   Z               Mass       
    ------------   -----------------  -----------------  -----------------  -----------------
           C         -0.820480000000    -1.500800000000     0.501910000000    12.000000000000
           O         -1.485900000000    -2.109650000000     1.307020000000    15.994914619560
           O         -1.028050000000    -1.557320000000    -0.824100000000    15.994914619560
           C         -2.172370000000    -2.312520000000    -1.248070000000    12.000000000000
           H         -2.088080000000    -3.353990000000    -0.932870000000     1.007825032070
           H         -3.083920000000    -1.885810000000    -0.825700000000     1.007825032070
           H         -2.182300000000    -2.239600000000    -2.333550000000     1.007825032070
           C         -1.037230000000     1.596650000000     0.427390000000    12.000000000000
           O         -1.131860000000     2.802450000000     0.422910000000    15.994914619560
           O         -2.086720000000     0.780240000000     0.252150000000    15.994914619560
           C         -3.366950000000     1.410250000000     0.058210000000    12.000000000000
           H         -4.081700000000     0.593230000000    -0.008920000000     1.007825032070
           H         -3.363680000000     1.997580000000    -0.860960000000     1.007825032070
           H         -3.603080000000     2.059960000000     0.901590000000     1.007825032070
           C          1.910690000000    -2.406710000000    -0.323290000000    12.000000000000
           H          2.003040000000    -3.029880000000     0.570480000000     1.007825032070
           H          1.095190000000    -2.788720000000    -0.936420000000     1.007825032070
           H          2.838440000000    -2.485940000000    -0.894050000000     1.007825032070
           C          1.163490000000     2.242760000000    -1.433400000000    12.000000000000
           H          1.999470000000     2.271850000000    -2.136100000000     1.007825032070
           H          1.075910000000     3.210880000000    -0.939350000000     1.007825032070
           H          0.245960000000     2.064870000000    -1.998000000000     1.007825032070
           C          0.283700000000     0.895780000000     0.684560000000    12.000000000000
           C          0.378730000000    -0.651860000000     0.894790000000    12.000000000000
           C          1.398440000000     1.145210000000    -0.423450000000    12.000000000000
           C          2.744790000000     1.188810000000     0.335530000000    12.000000000000
           C          2.873470000000    -0.285300000000     0.800060000000    12.000000000000
           C          1.673260000000    -0.964450000000     0.070040000000    12.000000000000
           O          1.487670000000    -0.127540000000    -1.080920000000    15.994914619560
           H          0.623020000000     1.382270000000     1.601290000000     1.007825032070
           H          0.526190000000    -0.872910000000     1.951480000000     1.007825032070
           H          3.541440000000     1.454760000000    -0.362070000000     1.007825032070
           H          2.749850000000     1.913740000000     1.151700000000     1.007825032070
           H          3.813540000000    -0.730640000000     0.470860000000     1.007825032070
           H          2.811230000000    -0.403910000000     1.883960000000     1.007825032070

  Running in c1 symmetry.

  Rotational constants: A =      0.02030  B =      0.01700  C =      0.01135 [cm^-1]
  Rotational constants: A =    608.66484  B =    509.54109  C =    340.30354 [MHz]
  Nuclear repulsion = 1404.944574945217255

  Charge       = 0
  Multiplicity = 1
  Electrons    = 130
  Nalpha       = 65
  Nbeta        = 65

  ==> Algorithm <==

  SCF Algorithm Type is DF.
  DIIS enabled.
  MOM disabled.
  Fractional occupation disabled.
  Guess Type is SAD.
  Energy threshold   = 1.00e-08
  Density threshold  = 1.00e-08
  Integral threshold = 0.00e+00

  ==> Primary Basis <==

  Basis Set: JUN-CC-PVDZ
    Blend: JUN-CC-PVDZ
    Number of shells: 190
    Number of basis function: 396
    Number of Cartesian functions: 413
    Spherical Harmonics?: true
    Max angular momentum: 2

   => Loading Basis Set <=

    Name: (JUN-CC-PVDZ AUX)
    Role: JKFIT
    Keyword: DF_BASIS_SCF
    atoms 1, 4, 8, 11, 15, 19, 23-28      entry C          line   145 file /home/junteng/Softwares/psi4conda/share/psi4/basis/jun-cc-pvdz-jkfit.gbs 
    atoms 2-3, 9-10, 29                   entry O          line   257 file /home/junteng/Softwares/psi4conda/share/psi4/basis/jun-cc-pvdz-jkfit.gbs 
    atoms 5-7, 12-14, 16-18, 20-22, 30-35 entry H          line    69 file /home/junteng/Softwares/psi4conda/share/psi4/basis/jun-cc-pvdz-jkfit.gbs 

  ==> Pre-Iterations <==

   -------------------------------------------------------
    Irrep   Nso     Nmo     Nalpha   Nbeta   Ndocc  Nsocc
   -------------------------------------------------------
     A        396     396       0       0       0       0
   -------------------------------------------------------
    Total     396     396      65      65      65       0
   -------------------------------------------------------

  ==> Integral Setup <==

  ==> DFJK: Density-Fitted J/K Matrices <==

    J tasked:                  Yes
    K tasked:                  Yes
    wK tasked:                  No
    OpenMP threads:              4
    Integrals threads:           4
    Memory (MB):            536441
    Algorithm:                Core
    Integral Cache:           NONE
    Schwarz Cutoff:          1E-12
    Fitting Condition:       1E-12

   => Auxiliary Basis Set <=

  Basis Set: (JUN-CC-PVDZ AUX)
    Blend: JUN-CC-PVDZ-JKFIT
    Number of shells: 621
    Number of basis function: 1757
    Number of Cartesian functions: 1997
    Spherical Harmonics?: true
    Max angular momentum: 3

  Minimum eigenvalue in the overlap matrix is 7.5359877139E-06.
  Using Symmetric Orthogonalization.

  SCF Guess: Superposition of Atomic Densities via on-the-fly atomic UHF.

  ==> Iterations <==

                           Total Energy        Delta E     RMS |[F,P]|

   @DF-RHF iter   0:  -847.35978289246270   -8.47360e+02   4.00515e-02 
   @DF-RHF iter   1:  -838.68189366936872    8.67789e+00   5.07346e-03 
   @DF-RHF iter   2:  -839.07678360576233   -3.94890e-01   3.64014e-03 DIIS
   @DF-RHF iter   3:  -839.28222735448946   -2.05444e-01   8.03393e-04 DIIS
   @DF-RHF iter   4:  -839.30166675966495   -1.94394e-02   2.83487e-04 DIIS
   @DF-RHF iter   5:  -839.30408782720303   -2.42107e-03   9.71740e-05 DIIS
   @DF-RHF iter   6:  -839.30449924744414   -4.11420e-04   4.28000e-05 DIIS
   @DF-RHF iter   7:  -839.30458752851348   -8.82811e-05   1.47279e-05 DIIS
   @DF-RHF iter   8:  -839.30460228099162   -1.47525e-05   5.54570e-06 DIIS
   @DF-RHF iter   9:  -839.30460450716168   -2.22617e-06   2.50049e-06 DIIS
   @DF-RHF iter  10:  -839.30460489879829   -3.91637e-07   9.40989e-07 DIIS
   @DF-RHF iter  11:  -839.30460495449040   -5.56921e-08   3.54773e-07 DIIS
   @DF-RHF iter  12:  -839.30460496303863   -8.54823e-09   1.63326e-07 DIIS
   @DF-RHF iter  13:  -839.30460496432192   -1.28330e-09   5.89811e-08 DIIS
   @DF-RHF iter  14:  -839.30460496455726   -2.35332e-10   2.46743e-08 DIIS
   @DF-RHF iter  15:  -839.30460496459136   -3.41061e-11   8.25646e-09 DIIS

  ==> Post-Iterations <==

    Orbital Energies (a.u.)
    -----------------------

    Doubly Occupied:                                                      

       1A    -20.617610     2A    -20.600700     3A    -20.563392  
       4A    -20.556730     5A    -20.548249     6A    -11.397009  
       7A    -11.385208     8A    -11.304121     9A    -11.303245  
      10A    -11.300824    11A    -11.291230    12A    -11.269406  
      13A    -11.262213    14A    -11.239554    15A    -11.237176  
      16A    -11.229687    17A    -11.224498    18A     -1.474972  
      19A     -1.459790    20A     -1.403472    21A     -1.369758  
      22A     -1.358046    23A     -1.113673    24A     -1.077337  
      25A     -1.050582    26A     -0.992699    27A     -0.977878  
      28A     -0.970535    29A     -0.916401    30A     -0.875908  
      31A     -0.813885    32A     -0.786333    33A     -0.771314  
      34A     -0.765852    35A     -0.708081    36A     -0.698504  
      37A     -0.693049    38A     -0.674800    39A     -0.671209  
      40A     -0.663161    41A     -0.655874    42A     -0.646255  
      43A     -0.625948    44A     -0.604331    45A     -0.588578  
      46A     -0.582335    47A     -0.567595    48A     -0.564309  
      49A     -0.560210    50A     -0.547701    51A     -0.546727  
      52A     -0.531351    53A     -0.526224    54A     -0.510836  
      55A     -0.506934    56A     -0.501000    57A     -0.498718  
      58A     -0.483116    59A     -0.476474    60A     -0.470726  
      61A     -0.464339    62A     -0.453921    63A     -0.446041  
      64A     -0.427303    65A     -0.420932  

    Virtual:                                                              

      66A      0.049377    67A      0.053180    68A      0.057905  
      69A      0.065237    70A      0.071569    71A      0.077292  
      72A      0.082515    73A      0.094821    74A      0.098366  
      75A      0.102238    76A      0.107224    77A      0.111547  
      78A      0.117826    79A      0.123306    80A      0.126156  
      81A      0.130957    82A      0.134362    83A      0.138577  
      84A      0.147378    85A      0.154253    86A      0.154878  
      87A      0.160310    88A      0.167570    89A      0.170098  
      90A      0.174730    91A      0.178313    92A      0.182034  
      93A      0.185357    94A      0.188081    95A      0.204423  
      96A      0.210190    97A      0.212565    98A      0.215115  
      99A      0.221159   100A      0.228634   101A      0.229965  
     102A      0.232836   103A      0.241021   104A      0.244890  
     105A      0.250170   106A      0.252348   107A      0.255237  
     108A      0.259602   109A      0.265633   110A      0.270899  
     111A      0.276460   112A      0.277559   113A      0.292558  
     114A      0.296674   115A      0.300902   116A      0.306221  
     117A      0.314735   118A      0.319006   119A      0.326024  
     120A      0.332933   121A      0.339832   122A      0.344084  
     123A      0.350072   124A      0.356716   125A      0.359321  
     126A      0.363000   127A      0.366523   128A      0.371388  
     129A      0.375963   130A      0.383594   131A      0.386134  
     132A      0.395253   133A      0.397512   134A      0.398717  
     135A      0.408044   136A      0.412708   137A      0.417933  
     138A      0.418582   139A      0.420534   140A      0.424300  
     141A      0.431532   142A      0.435931   143A      0.446720  
     144A      0.452508   145A      0.461879   146A      0.468356  
     147A      0.471121   148A      0.475916   149A      0.479204  
     150A      0.490203   151A      0.496572   152A      0.507343  
     153A      0.508421   154A      0.515046   155A      0.523243  
     156A      0.525833   157A      0.532536   158A      0.538345  
     159A      0.547933   160A      0.552975   161A      0.565896  
     162A      0.570756   163A      0.591071   164A      0.601507  
     165A      0.605639   166A      0.621536   167A      0.632721  
     168A      0.649726   169A      0.683218   170A      0.691365  
     171A      0.734693   172A      0.746441   173A      0.776108  
     174A      0.783642   175A      0.792358   176A      0.803643  
     177A      0.814930   178A      0.818176   179A      0.841764  
     180A      0.856523   181A      0.858819   182A      0.870976  
     183A      0.878557   184A      0.885926   185A      0.896680  
     186A      0.900954   187A      0.911184   188A      0.915898  
     189A      0.922339   190A      0.925430   191A      0.928446  
     192A      0.937976   193A      0.941420   194A      0.949093  
     195A      0.954048   196A      0.958618   197A      0.964564  
     198A      0.967508   199A      0.973227   200A      0.975682  
     201A      0.981893   202A      0.993559   203A      0.997930  
     204A      1.000173   205A      1.009158   206A      1.015802  
     207A      1.022914   208A      1.039222   209A      1.045011  
     210A      1.050153   211A      1.067566   212A      1.069984  
     213A      1.077908   214A      1.082352   215A      1.098354  
     216A      1.102414   217A      1.109597   218A      1.121893  
     219A      1.133233   220A      1.133972   221A      1.145616  
     222A      1.170783   223A      1.179818   224A      1.185732  
     225A      1.226327   226A      1.233564   227A      1.255326  
     228A      1.281452   229A      1.292313   230A      1.295003  
     231A      1.320645   232A      1.338669   233A      1.349276  
     234A      1.371383   235A      1.419640   236A      1.430103  
     237A      1.455331   238A      1.468209   239A      1.478101  
     240A      1.487302   241A      1.498009   242A      1.504239  
     243A      1.522740   244A      1.533375   245A      1.541930  
     246A      1.561668   247A      1.565971   248A      1.570916  
     249A      1.583371   250A      1.598926   251A      1.611657  
     252A      1.613624   253A      1.636697   254A      1.641542  
     255A      1.653213   256A      1.666352   257A      1.666655  
     258A      1.674011   259A      1.688819   260A      1.697621  
     261A      1.707137   262A      1.711185   263A      1.718488  
     264A      1.732053   265A      1.744994   266A      1.759684  
     267A      1.771650   268A      1.791151   269A      1.803803  
     270A      1.816433   271A      1.827049   272A      1.836587  
     273A      1.864187   274A      1.866251   275A      1.874171  
     276A      1.883940   277A      1.891249   278A      1.910810  
     279A      1.916076   280A      1.939015   281A      1.945241  
     282A      1.950026   283A      1.962002   284A      1.964381  
     285A      1.971882   286A      1.977777   287A      1.985031  
     288A      2.006274   289A      2.008871   290A      2.016715  
     291A      2.021622   292A      2.033471   293A      2.037464  
     294A      2.048499   295A      2.055794   296A      2.062180  
     297A      2.063489   298A      2.067021   299A      2.079575  
     300A      2.095883   301A      2.100994   302A      2.106637  
     303A      2.118045   304A      2.125176   305A      2.136169  
     306A      2.145612   307A      2.163236   308A      2.172149  
     309A      2.180352   310A      2.186512   311A      2.198450  
     312A      2.206881   313A      2.221326   314A      2.238967  
     315A      2.261673   316A      2.272266   317A      2.285451  
     318A      2.313963   319A      2.320642   320A      2.334139  
     321A      2.340840   322A      2.356078   323A      2.367309  
     324A      2.376021   325A      2.380026   326A      2.382901  
     327A      2.392738   328A      2.409811   329A      2.427880  
     330A      2.434307   331A      2.445374   332A      2.451671  
     333A      2.461034   334A      2.482147   335A      2.493020  
     336A      2.530843   337A      2.533814   338A      2.555385  
     339A      2.586685   340A      2.608361   341A      2.624213  
     342A      2.636509   343A      2.659859   344A      2.680943  
     345A      2.716630   346A      2.732013   347A      2.757238  
     348A      2.763139   349A      2.775278   350A      2.792501  
     351A      2.797772   352A      2.803400   353A      2.828759  
     354A      2.843091   355A      2.857896   356A      2.864942  
     357A      2.874923   358A      2.877922   359A      2.883490  
     360A      2.889994   361A      2.898151   362A      2.916822  
     363A      2.923962   364A      2.942815   365A      2.965780  
     366A      2.975007   367A      2.990529   368A      3.021219  
     369A      3.029223   370A      3.045237   371A      3.057666  
     372A      3.119217   373A      3.138747   374A      3.176830  
     375A      3.248676   376A      3.275504   377A      3.299508  
     378A      3.327537   379A      3.362216   380A      3.393412  
     381A      3.411203   382A      3.439888   383A      3.538976  
     384A      3.545744   385A      3.578062   386A      3.582161  
     387A      3.680035   388A      3.695288   389A      3.740018  
     390A      3.778670   391A      3.838701   392A      3.910999  
     393A      3.941961   394A      3.967809   395A      4.072679  
     396A      4.107979  

    Final Occupation by Irrep:
              A 
    DOCC [    65 ]

  Energy converged.

  @DF-RHF Final Energy:  -839.30460496459136

   => Energetics <=

    Nuclear Repulsion Energy =           1404.9445749452172549
    One-Electron Energy =               -3940.8466321181240346
    Two-Electron Energy =                1696.5974522083156444
    DFT Exchange-Correlation Energy =       0.0000000000000000
    Empirical Dispersion Energy =           0.0000000000000000
    PCM Polarization Energy =               0.0000000000000000
    EFP Energy =                            0.0000000000000000
    Total Energy =                       -839.3046049645913627



Properties will be evaluated at   0.000000,   0.000000,   0.000000 Bohr

Properties computed using the SCF density matrix

  Nuclear Dipole Moment: (a.u.)
     X:     2.1522      Y:    -0.7368      Z:    -1.9171

  Electronic Dipole Moment: (a.u.)
     X:    -1.9251      Y:     0.5912      Z:     1.6768

  Dipole Moment: (a.u.)
     X:     0.2271      Y:    -0.1456      Z:    -0.2402     Total:     0.3612

  Dipole Moment: (Debye)
     X:     0.5772      Y:    -0.3700      Z:    -0.6106     Total:     0.9181


*** tstop() called on ThinkPad-P50 at Mon Jan 15 18:00:06 2018
Module time:
	user time   =     198.11 seconds =       3.30 minutes
	system time =       0.88 seconds =       0.01 minutes
	total time  =         66 seconds =       1.10 minutes
Total time:
	user time   =     198.11 seconds =       3.30 minutes
	system time =       0.88 seconds =       0.01 minutes
	total time  =         66 seconds =       1.10 minutes
   => Loading Basis Set <=

    Name: (JUN-CC-PVDZ AUX)
    Role: JKFIT
    Keyword: DF_BASIS_SCF
    atoms 1, 4, 8, 11, 15, 19, 23-28      entry C          line   145 file /home/junteng/Softwares/psi4conda/share/psi4/basis/jun-cc-pvdz-jkfit.gbs 
    atoms 2-3, 9-10, 29                   entry O          line   257 file /home/junteng/Softwares/psi4conda/share/psi4/basis/jun-cc-pvdz-jkfit.gbs 
    atoms 5-7, 12-14, 16-18, 20-22, 30-35 entry H          line    69 file /home/junteng/Softwares/psi4conda/share/psi4/basis/jun-cc-pvdz-jkfit.gbs 

   => Loading Basis Set <=

    Name: (JUN-CC-PVDZ AUX)
    Role: RIFIT
    Keyword: DF_BASIS_SAPT
    atoms 1, 4, 8, 11, 15, 19, 23-28      entry C          line    99 file /home/junteng/Softwares/psi4conda/share/psi4/basis/jun-cc-pvdz-ri.gbs 
    atoms 2-3, 9-10, 29                   entry O          line   187 file /home/junteng/Softwares/psi4conda/share/psi4/basis/jun-cc-pvdz-ri.gbs 
    atoms 5-7, 12-14, 16-18, 20-22, 30-35 entry H          line    29 file /home/junteng/Softwares/psi4conda/share/psi4/basis/jun-cc-pvdz-ri.gbs 

   => Loading Basis Set <=

    Name: CC-PVTZ-MINAO
    Role: ORBITAL
    Keyword: BASIS
    atoms 1, 4, 8, 11, 15, 19, 23-28      entry C          line   130 file /home/junteng/Softwares/psi4conda/share/psi4/basis/cc-pvtz-minao.gbs 
    atoms 2-3, 9-10, 29                   entry O          line   190 file /home/junteng/Softwares/psi4conda/share/psi4/basis/cc-pvtz-minao.gbs 
    atoms 5-7, 12-14, 16-18, 20-22, 30-35 entry H          line    19 file /home/junteng/Softwares/psi4conda/share/psi4/basis/cc-pvtz-minao.gbs 


*** tstart() called on ThinkPad-P50
*** at Mon Jan 15 18:00:07 2018

	 --------------------------------------------
	                    FISAPT0                  
	                  Rob Parrish                
	 --------------------------------------------

    Do F-SAPT =         Yes
    Do Plot   =          No
    Memory    =      78.580 [GD]

  ==> Localization (IBO) <==

  ==> IBO Localizer 2 <==

    MinAO Basis = CC-PVTZ-MINAO
    Use Ghosts  =       FALSE
    Use Stars   =       FALSE
    Condition   =   1.000E-07
    Power       =           4
    Convergence =   1.000E-12
    Maxiter     =        1000

    @IBO Iter:                   Metric       Gradient
    @IBO    1:   2.0294808821903203E+00   2.324888E+00
    @IBO    2:   2.2449501724809444E+00   2.479997E+00
    @IBO    3:   2.3411826866028753E+00   1.132561E+00
    @IBO    4:   2.3575588279596338E+00   2.389292E-01
    @IBO    5:   2.3587149482658685E+00   1.134947E-02
    @IBO    6:   2.3587168966747867E+00   7.093499E-05
    @IBO    7:   2.3587168967390704E+00   1.155010E-06
    @IBO    8:   2.3587168967390846E+00   4.156405E-08
    @IBO    9:   2.3587168967390850E+00   1.902277E-09
    @IBO   10:   2.3587168967390846E+00   8.785669E-11
    @IBO   11:   2.3587168967390850E+00   4.070279E-12
    @IBO   12:   2.3587168967390846E+00   1.890896E-13

    IBO Localizer 2 converged.

  ==> Partitioning <==

   => Atomic Partitioning <= 

    Monomer A:   7 atoms
    Monomer B:   7 atoms
    Monomer C:  21 atoms

   => Link Bond Identification <=

    Link Bond Selection = AUTOMATIC

    Charge Completeness = 0.800

    Total Link Bonds = 2

    --------------------------
    N     Orb Type Aind1 Aind2
    --------------------------
    1      22   AC     1    24
    2      28   BC     8    23
    --------------------------

   => Link Bond Assignment <=

    Link Bond Assignment      = C

   => Partition Summary <=

    Monomer A:  0 charge,  30 protons,  30 electrons,  15 docc
    Monomer B:  0 charge,  30 protons,  30 electrons,  15 docc
    Monomer C:  0 charge,  70 protons,  70 electrons,  35 docc

  ==> Overlap Integrals <==

  ==> Kinetic Integrals <==

  ==> Nuclear Integrals <==

    Nuclear Repulsion Tot:   1.4049445749452184E+03 [Eh]

  ==> Coulomb Integrals <==

  ==> DFJK: Density-Fitted J/K Matrices <==

    J tasked:                  Yes
    K tasked:                  Yes
    wK tasked:                  No
    OpenMP threads:              4
    Integrals threads:           4
    Memory (MB):            643730
    Algorithm:                Core
    Integral Cache:           NONE
    Schwarz Cutoff:          1E-12
    Fitting Condition:       1E-12

   => Auxiliary Basis Set <=

  Basis Set: (JUN-CC-PVDZ AUX)
    Blend: JUN-CC-PVDZ-JKFIT
    Number of shells: 621
    Number of basis function: 1757
    Number of Cartesian functions: 1997
    Spherical Harmonics?: true
    Max angular momentum: 3

  ==> Relaxed SCF Equations <==

  ==> SCF A: <==

    Maxiter =          50
    E Tol   =   1.000E-06
    D Tol   =   1.000E-08

    Max DIIS Vectors = 5

    Iter   N:                        E          dE         |D|
    Iter   1:  -2.2394506821861782E+02  -2.239E+02   1.369E-03 
    Iter   2:  -2.2395480494157047E+02  -9.737E-03   7.827E-05 DIIS
    Iter   3:  -2.2395496679096141E+02  -1.618E-04   2.543E-05 DIIS
    Iter   4:  -2.2395497858351266E+02  -1.179E-05   1.318E-05 DIIS
    Iter   5:  -2.2395498156766214E+02  -2.984E-06   2.389E-06 DIIS
    Iter   6:  -2.2395498174955495E+02  -1.819E-07   9.821E-07 DIIS
    Iter   7:  -2.2395498177721421E+02  -2.766E-08   2.812E-07 DIIS
    Iter   8:  -2.2395498178008847E+02  -2.874E-09   1.175E-07 DIIS
    Iter   9:  -2.2395498178043815E+02  -3.497E-10   3.995E-08 DIIS
    Iter  10:  -2.2395498178050164E+02  -6.349E-11   1.582E-08 DIIS
    Iter  11:  -2.2395498178050818E+02  -6.537E-12   8.801E-09 DIIS

    FISAPTSCF Converged.

    Final SCF Energy:  -2.2395498178050818E+02 [Eh]

   => Occupied Orbital Energies <=

       1  -20.597211     2  -20.542610     3  -11.379041  
       4  -11.287188     5   -1.432360     6   -1.349385  
       7   -0.954979     8   -0.758826     9   -0.662930  
      10   -0.656304    11   -0.613496    12   -0.534669  
      13   -0.527199    14   -0.466721    15   -0.452089  

   => Virtual Orbital Energies <=

      16    0.028182    17    0.053648    18    0.056261  
      19    0.061190    20    0.070560    21    0.073916  
      22    0.082535    23    0.087098    24    0.095660  
      25    0.096121    26    0.102392    27    0.108103  
      28    0.115894    29    0.121666    30    0.125434  
      31    0.126309    32    0.129026    33    0.134813  
      34    0.139051    35    0.152011    36    0.155345  
      37    0.159158    38    0.163365    39    0.170029  
      40    0.173853    41    0.176495    42    0.182556  
      43    0.187115    44    0.191993    45    0.192504  
      46    0.204280    47    0.213032    48    0.216122  
      49    0.223730    50    0.226573    51    0.234142  
      52    0.235331    53    0.239026    54    0.246713  
      55    0.247957    56    0.252270    57    0.256007  
      58    0.261697    59    0.267546    60    0.274760  
      61    0.276655    62    0.279136    63    0.291344  
      64    0.296672    65    0.299632    66    0.305572  
      67    0.314054    68    0.319862    69    0.327667  
      70    0.328977    71    0.332714    72    0.339538  
      73    0.343558    74    0.354129    75    0.358274  
      76    0.359887    77    0.364798    78    0.371659  
      79    0.378139    80    0.378685    81    0.386796  
      82    0.391532    83    0.395963    84    0.410837  
      85    0.416042    86    0.418892    87    0.425964  
      88    0.428878    89    0.431331    90    0.437681  
      91    0.441632    92    0.445243    93    0.454479  
      94    0.459162    95    0.469531    96    0.470410  
      97    0.478589    98    0.488535    99    0.495844  
     100    0.497853   101    0.517941   102    0.523569  
     103    0.524164   104    0.531943   105    0.544265  
     106    0.553492   107    0.557111   108    0.561038  
     109    0.570954   110    0.583195   111    0.592626  
     112    0.605449   113    0.612358   114    0.618203  
     115    0.625684   116    0.637180   117    0.639847  
     118    0.650693   119    0.663077   120    0.679273  
     121    0.692528   122    0.706483   123    0.740649  
     124    0.757143   125    0.780021   126    0.795702  
     127    0.809185   128    0.816604   129    0.827761  
     130    0.849734   131    0.869779   132    0.872180  
     133    0.884645   134    0.886990   135    0.895238  
     136    0.910622   137    0.923086   138    0.925753  
     139    0.929192   140    0.935743   141    0.948418  
     142    0.954884   143    0.956025   144    0.967318  
     145    0.969431   146    0.973435   147    0.978299  
     148    0.980699   149    0.984583   150    0.991252  
     151    0.996296   152    0.996521   153    1.005184  
     154    1.023532   155    1.030049   156    1.033109  
     157    1.046621   158    1.052708   159    1.067095  
     160    1.073179   161    1.093506   162    1.099206  
     163    1.108421   164    1.113354   165    1.121405  
     166    1.124090   167    1.140294   168    1.149908  
     169    1.159205   170    1.166188   171    1.182693  
     172    1.188995   173    1.209930   174    1.238201  
     175    1.273789   176    1.281894   177    1.286591  
     178    1.319047   179    1.329053   180    1.347008  
     181    1.377288   182    1.388810   183    1.439337  
     184    1.458130   185    1.474490   186    1.498668  
     187    1.509408   188    1.523268   189    1.536239  
     190    1.549439   191    1.560084   192    1.576606  
     193    1.588631   194    1.594552   195    1.604129  
     196    1.616018   197    1.623045   198    1.630454  
     199    1.648445   200    1.654022   201    1.661519  
     202    1.671904   203    1.689482   204    1.704868  
     205    1.711661   206    1.714569   207    1.728860  
     208    1.751868   209    1.760429   210    1.763865  
     211    1.787773   212    1.801729   213    1.810766  
     214    1.813434   215    1.840551   216    1.844509  
     217    1.855768   218    1.872276   219    1.895308  
     220    1.902241   221    1.904814   222    1.925259  
     223    1.932141   224    1.944866   225    1.957545  
     226    1.969724   227    1.971620   228    1.974056  
     229    1.991611   230    1.999759   231    2.005942  
     232    2.015491   233    2.022943   234    2.028519  
     235    2.031110   236    2.050992   237    2.051846  
     238    2.063736   239    2.070334   240    2.077549  
     241    2.085123   242    2.100334   243    2.112361  
     244    2.116981   245    2.121915   246    2.134936  
     247    2.142550   248    2.155726   249    2.156786  
     250    2.165000   251    2.178181   252    2.182124  
     253    2.200639   254    2.209765   255    2.226648  
     256    2.244030   257    2.254983   258    2.263328  
     259    2.272166   260    2.280099   261    2.306242  
     262    2.314310   263    2.330511   264    2.337199  
     265    2.346358   266    2.357228   267    2.366606  
     268    2.382993   269    2.386065   270    2.389193  
     271    2.411651   272    2.416279   273    2.422884  
     274    2.433829   275    2.451794   276    2.462364  
     277    2.482566   278    2.490420   279    2.504823  
     280    2.526285   281    2.540428   282    2.549949  
     283    2.583318   284    2.599254   285    2.629405  
     286    2.633029   287    2.654209   288    2.665624  
     289    2.683168   290    2.695484   291    2.702486  
     292    2.722376   293    2.745134   294    2.760604  
     295    2.780177   296    2.786238   297    2.803826  
     298    2.810203   299    2.831114   300    2.844824  
     301    2.860506   302    2.868931   303    2.877677  
     304    2.882138   305    2.887265   306    2.894012  
     307    2.898958   308    2.908187   309    2.923583  
     310    2.931195   311    2.950978   312    2.963418  
     313    2.977392   314    3.011294   315    3.024799  
     316    3.042625   317    3.056177   318    3.080111  
     319    3.091616   320    3.148745   321    3.185778  
     322    3.281180   323    3.336257   324    3.387812  
     325    3.411119   326    3.445473   327    3.469310  
     328    3.563232   329    3.585934   330    3.628047  
     331    3.658064   332    3.687706   333    3.748725  
     334    3.789970   335    3.835056   336    3.932400  
     337    3.955649   338    4.006951   339    4.105714  
     340    4.137547   341    4.209421   342    4.437543  
     343    4.509650   344    4.535748   345    4.746752  
     346    4.943863   347    5.043474   348    5.067156  
     349    5.205815   350    5.327955   351    5.518678  
     352    5.574986   353    5.682100   354    5.828002  
     355    6.220450   356    6.357752   357    6.692525  
     358   13.375350   359   18.429178   360   33.414643  
     361   33.472738  

  ==> SCF B: <==

    Maxiter =          50
    E Tol   =   1.000E-06
    D Tol   =   1.000E-08

    Max DIIS Vectors = 5

    Iter   N:                        E          dE         |D|
    Iter   1:  -2.2409457787615111E+02  -2.241E+02   1.879E-03 
    Iter   2:  -2.2411274693043293E+02  -1.817E-02   1.121E-04 DIIS
    Iter   3:  -2.2411304010107673E+02  -2.932E-04   4.212E-05 DIIS
    Iter   4:  -2.2411306808965458E+02  -2.799E-05   1.883E-05 DIIS
    Iter   5:  -2.2411307435074946E+02  -6.261E-06   3.187E-06 DIIS
    Iter   6:  -2.2411307464364171E+02  -2.929E-07   1.091E-06 DIIS
    Iter   7:  -2.2411307468350745E+02  -3.987E-08   3.376E-07 DIIS
    Iter   8:  -2.2411307468653942E+02  -3.032E-09   1.384E-07 DIIS
    Iter   9:  -2.2411307468702361E+02  -4.842E-10   5.161E-08 DIIS
    Iter  10:  -2.2411307468712621E+02  -1.026E-10   2.155E-08 DIIS
    Iter  11:  -2.2411307468714247E+02  -1.626E-11   1.320E-08 DIIS
    Iter  12:  -2.2411307468714909E+02  -6.622E-12   4.688E-09 DIIS

    FISAPTSCF Converged.

    Final SCF Energy:  -2.2411307468714909E+02 [Eh]

   => Occupied Orbital Energies <=

       1  -20.606649     2  -20.543767     3  -11.384306  
       4  -11.293500     5   -1.438094     6   -1.353285  
       7   -0.962026     8   -0.765711     9   -0.666421  
      10   -0.661617    11   -0.620123    12   -0.540203  
      13   -0.534417    14   -0.470788    15   -0.457758  

   => Virtual Orbital Energies <=

      16    0.032051    17    0.054179    18    0.059426  
      19    0.062567    20    0.067553    21    0.073653  
      22    0.082865    23    0.085722    24    0.096157  
      25    0.098467    26    0.105009    27    0.108377  
      28    0.115346    29    0.119110    30    0.121704  
      31    0.127865    32    0.129566    33    0.137457  
      34    0.141951    35    0.148733    36    0.150535  
      37    0.160519    38    0.163432    39    0.169633  
      40    0.172367    41    0.175577    42    0.184208  
      43    0.186752    44    0.189781    45    0.199410  
      46    0.206095    47    0.215518    48    0.218373  
      49    0.221988    50    0.229663    51    0.234380  
      52    0.237012    53    0.241633    54    0.246224  
      55    0.249739    56    0.253662    57    0.257717  
      58    0.263709    59    0.265277    60    0.270333  
      61    0.274407    62    0.285878    63    0.289272  
      64    0.299075    65    0.301889    66    0.310061  
      67    0.313834    68    0.323270    69    0.326086  
      70    0.329928    71    0.335462    72    0.344411  
      73    0.346018    74    0.351313    75    0.357886  
      76    0.367892    77    0.372951    78    0.374388  
      79    0.382025    80    0.384918    81    0.389674  
      82    0.392794    83    0.399483    84    0.402917  
      85    0.407027    86    0.409479    87    0.416077  
      88    0.420748    89    0.429914    90    0.435187  
      91    0.438765    92    0.440243    93    0.452351  
      94    0.462796    95    0.464691    96    0.468860  
      97    0.479140    98    0.490017    99    0.492446  
     100    0.494967   101    0.506026   102    0.515772  
     103    0.527208   104    0.531104   105    0.536373  
     106    0.541615   107    0.554035   108    0.567907  
     109    0.570177   110    0.579180   111    0.599047  
     112    0.603687   113    0.616860   114    0.621202  
     115    0.630885   116    0.635271   117    0.641468  
     118    0.655773   119    0.681860   120    0.688921  
     121    0.709262   122    0.729701   123    0.752654  
     124    0.765598   125    0.791025   126    0.794583  
     127    0.807541   128    0.813971   129    0.827609  
     130    0.842687   131    0.846828   132    0.869795  
     133    0.881271   134    0.887166   135    0.905330  
     136    0.910741   137    0.916587   138    0.921245  
     139    0.930639   140    0.934331   141    0.942931  
     142    0.945971   143    0.956087   144    0.957982  
     145    0.965267   146    0.971611   147    0.981535  
     148    0.985590   149    0.990529   150    0.996959  
     151    1.004106   152    1.017410   153    1.023075  
     154    1.027266   155    1.040078   156    1.048360  
     157    1.063243   158    1.064949   159    1.074580  
     160    1.083678   161    1.093194   162    1.106201  
     163    1.111340   164    1.116860   165    1.121771  
     166    1.136227   167    1.141252   168    1.146984  
     169    1.154138   170    1.174245   171    1.181668  
     172    1.193905   173    1.219690   174    1.232408  
     175    1.239154   176    1.258681   177    1.282486  
     178    1.303025   179    1.331840   180    1.366026  
     181    1.381956   182    1.410071   183    1.418582  
     184    1.460293   185    1.468764   186    1.478728  
     187    1.501483   188    1.505076   189    1.525413  
     190    1.533412   191    1.551425   192    1.562992  
     193    1.566387   194    1.586858   195    1.597277  
     196    1.609426   197    1.627378   198    1.638896  
     199    1.641447   200    1.663083   201    1.669023  
     202    1.676189   203    1.683185   204    1.700735  
     205    1.711615   206    1.718985   207    1.732246  
     208    1.741182   209    1.748020   210    1.780259  
     211    1.790445   212    1.810037   213    1.818236  
     214    1.828404   215    1.833510   216    1.836624  
     217    1.866119   218    1.876580   219    1.883178  
     220    1.903940   221    1.906106   222    1.918938  
     223    1.929017   224    1.932448   225    1.954440  
     226    1.977396   227    1.978585   228    1.986434  
     229    1.989780   230    1.993612   231    2.006968  
     232    2.021436   233    2.025364   234    2.027343  
     235    2.045927   236    2.048898   237    2.054334  
     238    2.061517   239    2.069543   240    2.086285  
     241    2.088645   242    2.093520   243    2.108047  
     244    2.125555   245    2.127730   246    2.135219  
     247    2.138469   248    2.152487   249    2.155738  
     250    2.179358   251    2.184239   252    2.189329  
     253    2.203961   254    2.208345   255    2.219557  
     256    2.237268   257    2.254386   258    2.267174  
     259    2.286855   260    2.290876   261    2.298077  
     262    2.314567   263    2.320306   264    2.349396  
     265    2.364507   266    2.366602   267    2.379095  
     268    2.386510   269    2.388307   270    2.401366  
     271    2.409593   272    2.418648   273    2.422558  
     274    2.445192   275    2.448228   276    2.469844  
     277    2.494875   278    2.500852   279    2.520057  
     280    2.537195   281    2.554652   282    2.579506  
     283    2.594380   284    2.621326   285    2.629698  
     286    2.646082   287    2.651169   288    2.675798  
     289    2.684657   290    2.691696   291    2.707303  
     292    2.725971   293    2.744949   294    2.768193  
     295    2.782319   296    2.785599   297    2.799433  
     298    2.802850   299    2.843982   300    2.863355  
     301    2.866257   302    2.873858   303    2.880579  
     304    2.886776   305    2.888552   306    2.899110  
     307    2.902132   308    2.908956   309    2.925070  
     310    2.945126   311    2.955514   312    2.970647  
     313    2.999018   314    3.004961   315    3.021371  
     316    3.029273   317    3.056867   318    3.067690  
     319    3.134464   320    3.142634   321    3.197650  
     322    3.259803   323    3.311996   324    3.364129  
     325    3.408903   326    3.423221   327    3.444216  
     328    3.564758   329    3.577745   330    3.623580  
     331    3.680991   332    3.717217   333    3.765978  
     334    3.806992   335    3.878450   336    3.949822  
     337    3.958657   338    3.983528   339    4.089939  
     340    4.138770   341    4.218161   342    4.457405  
     343    4.532185   344    4.563400   345    4.761443  
     346    4.949443   347    5.044386   348    5.071410  
     349    5.240690   350    5.351278   351    5.523362  
     352    5.633475   353    5.762484   354    5.845776  
     355    6.175725   356    6.378619   357    6.703194  
     358   13.388646   359   18.435583   360   33.428350  
     361   33.495442  

  ==> Frozen Core <==


    ------------------
    Range      A     B
    ------------------
    nbf      396   396
    nmo      361   361
    nocc      15    15
    nvir     346   346
    nfocc      4     4
    naocc     11    11
    navir    346   346
    nfvir      0     0
    ------------------

  ==> Unification <==

  ==> dHF <==

    E ABC(HF) =  -8.3930460496459136E+02 [Eh]
    E AC(0)   =  -6.1126992858120059E+02 [Eh]
    E BC(0)   =  -6.1128136923433465E+02 [Eh]
    E A(0)    =  -2.1266142077881057E+02 [Eh]
    E B(0)    =  -2.1266063686651665E+02 [Eh]
    E AC(HF)  =  -6.1126001501930989E+02 [Eh]
    E BC(HF)  =  -6.1126287242333603E+02 [Eh]
    E AB(HF)  =  -4.2528607209721093E+02 [Eh]
    E A(HF)   =  -2.1264319840210743E+02 [Eh]
    E B(HF)   =  -2.1263291230774928E+02 [Eh]
    E C       =  -3.8322824386540981E+02 [Eh]
    E HF      =   1.8448985534064377E-02 [Eh]

  ==> Electrostatics <==

    Elst10,r            =     0.011301485191 [Eh]

  ==> Exchange <==

    Exch10(S^2)         =     0.009139313153 [Eh]
    Exch10              =     0.009175019668 [Eh]

  ==> Induction <==

    Ind20,u (A<-B)      =    -0.001383762998 [Eh]
    Ind20,u (B<-A)      =    -0.002061544352 [Eh]
    Ind20,u             =    -0.003445307350 [Eh]
    Exch-Ind20,u (A<-B) =     0.000932333344 [Eh]
    Exch-Ind20,u (B<-A) =     0.001152982110 [Eh]
    Exch-Ind20,u        =     0.002085315454 [Eh]

  ==> CPHF Iterations <==

    Maxiter     =          50
    Convergence =   1.000E-08

    -----------------------------------------
    Iter   Monomer A    Monomer B    Time [s]
    -----------------------------------------
    1      1.521E-01    2.119E-01           7
    2      5.410E-02    8.102E-02          14
    3      1.209E-02    2.001E-02          20
    4      5.357E-03    7.060E-03          27
    5      1.654E-03    2.013E-03          33
    6      5.672E-04    7.021E-04          40
    7      1.696E-04    1.785E-04          47
    8      7.154E-05    6.790E-05          53
    9      1.593E-05    2.053E-05          60
    10     3.193E-06    8.324E-06          66
    11     1.084E-06    2.130E-06          73
    12     3.116E-07    3.684E-07          79
    13     8.789E-08    9.547E-08          86
    14     3.803E-08    3.088E-08          93
    15     7.363E-09*   6.003E-09*        100
    -----------------------------------------

    Ind20,r (A<-B)      =    -0.001561539926 [Eh]
    Ind20,r (B<-A)      =    -0.002442240849 [Eh]
    Ind20,r             =    -0.004003780775 [Eh]
    Exch-Ind20,r (A<-B) =     0.001094500664 [Eh]
    Exch-Ind20,r (B<-A) =     0.001471755538 [Eh]
    Exch-Ind20,r        =     0.002566256203 [Eh]

  ==> F-SAPT Localization (IBO) <==

  Local Orbitals for Monomer A:

  ==> IBO Localizer 2 <==

    MinAO Basis = CC-PVTZ-MINAO
    Use Ghosts  =       FALSE
    Use Stars   =       FALSE
    Condition   =   1.000E-07
    Power       =           4
    Convergence =   1.000E-12
    Maxiter     =        1000

    @IBO Iter:                   Metric       Gradient
    @IBO    1:   1.4816795409176768E+00   1.683895E+00
    @IBO    2:   1.6780598611639923E+00   9.410583E-01
    @IBO    3:   1.7098408061658894E+00   3.057785E-01
    @IBO    4:   1.7110077221999642E+00   2.656504E-03
    @IBO    5:   1.7110079804925462E+00   1.197291E-04
    @IBO    6:   1.7110079806785659E+00   2.267770E-06
    @IBO    7:   1.7110079806786720E+00   7.729213E-08
    @IBO    8:   1.7110079806786720E+00   2.641394E-09
    @IBO    9:   1.7110079806786720E+00   1.026948E-10
    @IBO   10:   1.7110079806786720E+00   4.181362E-12
    @IBO   11:   1.7110079806786720E+00   1.724828E-13

    IBO Localizer 2 converged.

  Local Orbitals for Monomer B:

  ==> IBO Localizer 2 <==

    MinAO Basis = CC-PVTZ-MINAO
    Use Ghosts  =       FALSE
    Use Stars   =       FALSE
    Condition   =   1.000E-07
    Power       =           4
    Convergence =   1.000E-12
    Maxiter     =        1000

    @IBO Iter:                   Metric       Gradient
    @IBO    1:   1.4836790896281544E+00   1.671222E+00
    @IBO    2:   1.6776009594773726E+00   9.245164E-01
    @IBO    3:   1.7090065389938327E+00   3.116498E-01
    @IBO    4:   1.7102144474939547E+00   2.427340E-03
    @IBO    5:   1.7102146350068268E+00   8.607461E-05
    @IBO    6:   1.7102146351020504E+00   1.374476E-06
    @IBO    7:   1.7102146351020870E+00   4.267832E-08
    @IBO    8:   1.7102146351020868E+00   9.614702E-10
    @IBO    9:   1.7102146351020868E+00   2.417945E-11
    @IBO   10:   1.7102146351020868E+00   7.640078E-13

    IBO Localizer 2 converged.

  ==> F-SAPT Electrostatics <==

  ==> DFERI: Density Fitted 3-Index Tensors <==

    Schwarz cutoff =   0.000E+00
    J cutoff       =   1.000E-12
    Mem (GB)       =         628

   => Auxiliary Basis <=

  Basis Set: (JUN-CC-PVDZ AUX)
    Blend: JUN-CC-PVDZ-JKFIT
    Number of shells: 621
    Number of basis function: 1757
    Number of Cartesian functions: 1997
    Spherical Harmonics?: true
    Max angular momentum: 3

    Elst10,r            =     0.011301485394 [Eh]

  ==> F-SAPT Exchange <==

  ==> DFERI: Density Fitted 3-Index Tensors <==

    Schwarz cutoff =   0.000E+00
    J cutoff       =   1.000E-12
    Mem (GB)       =         628

   => Auxiliary Basis <=

  Basis Set: (JUN-CC-PVDZ AUX)
    Blend: JUN-CC-PVDZ-JKFIT
    Number of shells: 621
    Number of basis function: 1757
    Number of Cartesian functions: 1997
    Spherical Harmonics?: true
    Max angular momentum: 3

    Exch10(S^2)         =     0.009139313153 [Eh]

    Scaling F-SAPT Exch10(S^2) by   1.004E+00 to match Exch10

  ==> F-SAPT Induction <==

  ==> DFERI: Density Fitted 3-Index Tensors <==

    Schwarz cutoff =   0.000E+00
    J cutoff       =   1.000E-12
    Mem (GB)       =         628

   => Auxiliary Basis <=

  Basis Set: (JUN-CC-PVDZ AUX)
    Blend: JUN-CC-PVDZ-JKFIT
    Number of shells: 621
    Number of basis function: 1757
    Number of Cartesian functions: 1997
    Spherical Harmonics?: true
    Max angular momentum: 3

    Ind20,u (A<-B)      =    -0.001383762998 [Eh]
    Ind20,u (B<-A)      =    -0.002061544352 [Eh]
    Ind20,u             =    -0.003445307351 [Eh]
    Exch-Ind20,u (A<-B) =     0.000932333344 [Eh]
    Exch-Ind20,u (B<-A) =     0.001152982110 [Eh]
    Exch-Ind20,u        =     0.002085315455 [Eh]

    Scaling for delta HF        =   1.410E+00
    Scaling for response (A<-B) =   1.035E+00
    Scaling for response (B<-A) =   1.068E+00
    Scaling for total (A<-B)    =   1.459E+00
    Scaling for total (B<-A)    =   1.507E+00

  ==> F-SAPT Dispersion <==

  ==> DFERI: Density Fitted 3-Index Tensors <==

    Schwarz cutoff =   0.000E+00
    J cutoff       =   1.000E-12
    Mem (GB)       =         628

   => Auxiliary Basis <=

  Basis Set: (JUN-CC-PVDZ AUX)
    Blend: JUN-CC-PVDZ-RI
    Number of shells: 465
    Number of basis function: 1357
    Number of Cartesian functions: 1562
    Spherical Harmonics?: true
    Max angular momentum: 3

    Disp20              =    -0.004942741761 [Eh]
    Exch-Disp20         =     0.000660657462 [Eh]

  ==> F-SAPT Output <==

    F-SAPT Data Filepath = fsapt/

  ==> Results <==


    SAPT Results  
  --------------------------------------------------------------------------------------------------------
    Electrostatics                 11.30148519 [mEh]       7.09178932 [kcal/mol]      29.67204937 [kJ/mol]
      Elst10,r                     11.30148519 [mEh]       7.09178932 [kcal/mol]      29.67204937 [kJ/mol]

    Exchange                        9.17501967 [mEh]       5.75741200 [kcal/mol]      24.08901414 [kJ/mol]
      Exch10                        9.17501967 [mEh]       5.75741200 [kcal/mol]      24.08901414 [kJ/mol]
      Exch10(S^2)                   9.13931315 [mEh]       5.73500583 [kcal/mol]      23.99526668 [kJ/mol]

    Induction                      -2.02751932 [mEh]      -1.27228764 [kcal/mol]      -5.32325199 [kJ/mol]
      Ind20,r                      -4.00378078 [mEh]      -2.51241047 [kcal/mol]     -10.51192643 [kJ/mol]
      Exch-Ind20,r                  2.56625620 [mEh]       1.61035015 [kcal/mol]       6.73770566 [kJ/mol]
      delta HF,r (2)               -0.58999475 [mEh]      -0.37022731 [kcal/mol]      -1.54903122 [kJ/mol]
      Induction (A<-B)             -0.65872344 [mEh]      -0.41335522 [kcal/mol]      -1.72947839 [kJ/mol]
      Induction (B<-A)             -1.36879589 [mEh]      -0.85893242 [kcal/mol]      -3.59377360 [kJ/mol]

    Dispersion                     -4.28208430 [mEh]      -2.68704858 [kcal/mol]     -11.24261233 [kJ/mol]
      Disp20                       -4.94274176 [mEh]      -3.10161741 [kcal/mol]     -12.97716849 [kJ/mol]
      Exch-Disp20                   0.66065746 [mEh]       0.41456883 [kcal/mol]       1.73455617 [kJ/mol]

  Total HF                         18.44898553 [mEh]      11.57691369 [kcal/mol]      48.43781152 [kJ/mol]
  Total SAPT0                      14.16690123 [mEh]       8.88986511 [kcal/mol]      37.19519919 [kJ/mol]

  --------------------------------------------------------------------------------------------------------
    Han Solo: This is *not* gonna work.
    Luke Skywalker: Why didn't you say so before?
    Han Solo: I *did* say so before.

*** tstop() called on ThinkPad-P50 at Mon Jan 15 18:04:15 2018
Module time:
	user time   =     853.15 seconds =      14.22 minutes
	system time =       3.24 seconds =       0.05 minutes
	total time  =        248 seconds =       4.13 minutes
Total time:
	user time   =    1052.44 seconds =      17.54 minutes
	system time =       4.12 seconds =       0.07 minutes
	total time  =        315 seconds =       5.25 minutes

*** Psi4 exiting successfully. Buy a developer a beer!
