
    -----------------------------------------------------------------------
          Psi4: An Open-Source Ab Initio Electronic Structure Package
                               Psi4 1.1 release

                         Git: Rev {HEAD} add49b9 


    R. M. Parrish, L. A. Burns, D. G. A. Smith, A. C. Simmonett,
    A. E. DePrince III, E. G. Hohenstein, U. Bozkaya, A. Yu. Sokolov,
    R. Di Remigio, R. M. Richard, J. F. Gonthier, A. M. James,
    H. R. McAlexander, A. Kumar, M. Saitow, X. Wang, B. P. Pritchard,
    P. Verma, H. F. Schaefer III, K. Patkowski, R. A. King, E. F. Valeev,
    F. A. Evangelista, J. M. Turney, T. D. Crawford, and C. D. Sherrill,
    J. Chem. Theory Comput. in press (2017).
    (doi: 10.1021/acs.jctc.7b00174)

    -----------------------------------------------------------------------


    Psi4 started on: Monday, 15 January 2018 06:04PM

    Process ID:  19502
    PSIDATADIR: /home/junteng/Softwares/psi4conda/share/psi4
    Memory:     500.0 MiB
    Threads:    4
    
  ==> Input File <==

--------------------------------------------------------------------------
memory 750000 mb

molecule mol {
0 1
C          1.91069       -2.40671       -0.32329
H          2.00304       -3.02988        0.57048
H          1.09519       -2.78872       -0.93642
H          2.83844       -2.48594       -0.89405
--
0 1
C         -0.82048       -1.50080        0.50191
O         -1.48590       -2.10965        1.30702
O         -1.02805       -1.55732       -0.82410
C         -2.17237       -2.31252       -1.24807
H         -2.08808       -3.35399       -0.93287
H         -3.08392       -1.88581       -0.82570
H         -2.18230       -2.23960       -2.33355
--
0 1
C          1.16349        2.24276       -1.43340
H          1.99947        2.27185       -2.13610
H          1.07591        3.21088       -0.93935
H          0.24596        2.06487       -1.99800
C         -1.03723        1.59665        0.42739
O         -1.13186        2.80245        0.42291
O         -2.08672        0.78024        0.25215
C         -3.36695        1.41025        0.05821
H         -4.08170        0.59323       -0.00892
H         -3.36368        1.99758       -0.86096
H         -3.60308        2.05996        0.90159
C          0.28370        0.89578        0.68456
C          0.37873       -0.65186        0.89479
C          1.39844        1.14521       -0.42345
C          2.74479        1.18881        0.33553
C          2.87347       -0.28530        0.80006
C          1.67326       -0.96445        0.07004
O          1.48767       -0.12754       -1.08092
H          0.62302        1.38227        1.60129
H          0.52619       -0.87291        1.95148
H          3.54144        1.45476       -0.36207
H          2.74985        1.91374        1.15170
H          3.81354       -0.73064        0.47086
H          2.81123       -0.40391        1.88396

symmetry c1
no_reorient
no_com
}

set {
basis jun-cc-pvdz
scf_type df
guess sad
freeze_core true
}

energy('fisapt0')
--------------------------------------------------------------------------

  Memory set to 698.492 GiB by Python driver.

*** tstart() called on ThinkPad-P50
*** at Mon Jan 15 18:04:15 2018

   => Loading Basis Set <=

    Name: JUN-CC-PVDZ
    Role: ORBITAL
    Keyword: BASIS
    atoms 1, 5, 8, 12, 16, 19, 23-28     entry C          line   157 file /home/junteng/Softwares/psi4conda/share/psi4/basis/jun-cc-pvdz.gbs 
    atoms 2-4, 9-11, 13-15, 20-22, 30-35 entry H          line    35 file /home/junteng/Softwares/psi4conda/share/psi4/basis/jun-cc-pvdz.gbs 
    atoms 6-7, 17-18, 29                 entry O          line   225 file /home/junteng/Softwares/psi4conda/share/psi4/basis/jun-cc-pvdz.gbs 


         ---------------------------------------------------------
                                   SCF
            by Justin Turney, Rob Parrish, and Andy Simmonett
                              RHF Reference
                        4 Threads, 715255 MiB Core
         ---------------------------------------------------------

  ==> Geometry <==

    Molecular point group: c1
    Full point group: C1

    Geometry (in Angstrom), charge = 0, multiplicity = 1:

       Center              X                  Y                   Z               Mass       
    ------------   -----------------  -----------------  -----------------  -----------------
           C          1.910690000000    -2.406710000000    -0.323290000000    12.000000000000
           H          2.003040000000    -3.029880000000     0.570480000000     1.007825032070
           H          1.095190000000    -2.788720000000    -0.936420000000     1.007825032070
           H          2.838440000000    -2.485940000000    -0.894050000000     1.007825032070
           C         -0.820480000000    -1.500800000000     0.501910000000    12.000000000000
           O         -1.485900000000    -2.109650000000     1.307020000000    15.994914619560
           O         -1.028050000000    -1.557320000000    -0.824100000000    15.994914619560
           C         -2.172370000000    -2.312520000000    -1.248070000000    12.000000000000
           H         -2.088080000000    -3.353990000000    -0.932870000000     1.007825032070
           H         -3.083920000000    -1.885810000000    -0.825700000000     1.007825032070
           H         -2.182300000000    -2.239600000000    -2.333550000000     1.007825032070
           C          1.163490000000     2.242760000000    -1.433400000000    12.000000000000
           H          1.999470000000     2.271850000000    -2.136100000000     1.007825032070
           H          1.075910000000     3.210880000000    -0.939350000000     1.007825032070
           H          0.245960000000     2.064870000000    -1.998000000000     1.007825032070
           C         -1.037230000000     1.596650000000     0.427390000000    12.000000000000
           O         -1.131860000000     2.802450000000     0.422910000000    15.994914619560
           O         -2.086720000000     0.780240000000     0.252150000000    15.994914619560
           C         -3.366950000000     1.410250000000     0.058210000000    12.000000000000
           H         -4.081700000000     0.593230000000    -0.008920000000     1.007825032070
           H         -3.363680000000     1.997580000000    -0.860960000000     1.007825032070
           H         -3.603080000000     2.059960000000     0.901590000000     1.007825032070
           C          0.283700000000     0.895780000000     0.684560000000    12.000000000000
           C          0.378730000000    -0.651860000000     0.894790000000    12.000000000000
           C          1.398440000000     1.145210000000    -0.423450000000    12.000000000000
           C          2.744790000000     1.188810000000     0.335530000000    12.000000000000
           C          2.873470000000    -0.285300000000     0.800060000000    12.000000000000
           C          1.673260000000    -0.964450000000     0.070040000000    12.000000000000
           O          1.487670000000    -0.127540000000    -1.080920000000    15.994914619560
           H          0.623020000000     1.382270000000     1.601290000000     1.007825032070
           H          0.526190000000    -0.872910000000     1.951480000000     1.007825032070
           H          3.541440000000     1.454760000000    -0.362070000000     1.007825032070
           H          2.749850000000     1.913740000000     1.151700000000     1.007825032070
           H          3.813540000000    -0.730640000000     0.470860000000     1.007825032070
           H          2.811230000000    -0.403910000000     1.883960000000     1.007825032070

  Running in c1 symmetry.

  Rotational constants: A =      0.02030  B =      0.01700  C =      0.01135 [cm^-1]
  Rotational constants: A =    608.66484  B =    509.54109  C =    340.30354 [MHz]
  Nuclear repulsion = 1404.944574945217255

  Charge       = 0
  Multiplicity = 1
  Electrons    = 130
  Nalpha       = 65
  Nbeta        = 65

  ==> Algorithm <==

  SCF Algorithm Type is DF.
  DIIS enabled.
  MOM disabled.
  Fractional occupation disabled.
  Guess Type is SAD.
  Energy threshold   = 1.00e-08
  Density threshold  = 1.00e-08
  Integral threshold = 0.00e+00

  ==> Primary Basis <==

  Basis Set: JUN-CC-PVDZ
    Blend: JUN-CC-PVDZ
    Number of shells: 190
    Number of basis function: 396
    Number of Cartesian functions: 413
    Spherical Harmonics?: true
    Max angular momentum: 2

   => Loading Basis Set <=

    Name: (JUN-CC-PVDZ AUX)
    Role: JKFIT
    Keyword: DF_BASIS_SCF
    atoms 1, 5, 8, 12, 16, 19, 23-28     entry C          line   145 file /home/junteng/Softwares/psi4conda/share/psi4/basis/jun-cc-pvdz-jkfit.gbs 
    atoms 2-4, 9-11, 13-15, 20-22, 30-35 entry H          line    69 file /home/junteng/Softwares/psi4conda/share/psi4/basis/jun-cc-pvdz-jkfit.gbs 
    atoms 6-7, 17-18, 29                 entry O          line   257 file /home/junteng/Softwares/psi4conda/share/psi4/basis/jun-cc-pvdz-jkfit.gbs 

  ==> Pre-Iterations <==

   -------------------------------------------------------
    Irrep   Nso     Nmo     Nalpha   Nbeta   Ndocc  Nsocc
   -------------------------------------------------------
     A        396     396       0       0       0       0
   -------------------------------------------------------
    Total     396     396      65      65      65       0
   -------------------------------------------------------

  ==> Integral Setup <==

  ==> DFJK: Density-Fitted J/K Matrices <==

    J tasked:                  Yes
    K tasked:                  Yes
    wK tasked:                  No
    OpenMP threads:              4
    Integrals threads:           4
    Memory (MB):            536441
    Algorithm:                Core
    Integral Cache:           NONE
    Schwarz Cutoff:          1E-12
    Fitting Condition:       1E-12

   => Auxiliary Basis Set <=

  Basis Set: (JUN-CC-PVDZ AUX)
    Blend: JUN-CC-PVDZ-JKFIT
    Number of shells: 621
    Number of basis function: 1757
    Number of Cartesian functions: 1997
    Spherical Harmonics?: true
    Max angular momentum: 3

  Minimum eigenvalue in the overlap matrix is 7.5359877132E-06.
  Using Symmetric Orthogonalization.

  SCF Guess: Superposition of Atomic Densities via on-the-fly atomic UHF.

  ==> Iterations <==

                           Total Energy        Delta E     RMS |[F,P]|

   @DF-RHF iter   0:  -846.30339132140466   -8.46303e+02   3.86266e-02 
   @DF-RHF iter   1:  -838.79044581875542    7.51295e+00   4.27888e-03 
   @DF-RHF iter   2:  -839.20066022585013   -4.10214e-01   2.21266e-03 DIIS
   @DF-RHF iter   3:  -839.28507055887303   -8.44103e-02   7.81234e-04 DIIS
   @DF-RHF iter   4:  -839.30257876558107   -1.75082e-02   2.22430e-04 DIIS
   @DF-RHF iter   5:  -839.30411982922362   -1.54106e-03   9.65874e-05 DIIS
   @DF-RHF iter   6:  -839.30449299613269   -3.73167e-04   3.89241e-05 DIIS
   @DF-RHF iter   7:  -839.30458423742982   -9.12413e-05   1.50829e-05 DIIS
   @DF-RHF iter   8:  -839.30460173498875   -1.74976e-05   6.00327e-06 DIIS
   @DF-RHF iter   9:  -839.30460459555900   -2.86057e-06   2.20446e-06 DIIS
   @DF-RHF iter  10:  -839.30460491382314   -3.18264e-07   9.10366e-07 DIIS
   @DF-RHF iter  11:  -839.30460496474689   -5.09237e-08   3.23834e-07 DIIS
   @DF-RHF iter  12:  -839.30460497128058   -6.53370e-09   1.23817e-07 DIIS
   @DF-RHF iter  13:  -839.30460497216927   -8.88690e-10   4.53357e-08 DIIS
   @DF-RHF iter  14:  -839.30460497228410   -1.14824e-10   1.94768e-08 DIIS
   @DF-RHF iter  15:  -839.30460497230149   -1.73941e-11   6.72465e-09 DIIS

  ==> Post-Iterations <==

    Orbital Energies (a.u.)
    -----------------------

    Doubly Occupied:                                                      

       1A    -20.617610     2A    -20.600701     3A    -20.563392  
       4A    -20.556729     5A    -20.548248     6A    -11.397009  
       7A    -11.385208     8A    -11.304121     9A    -11.303245  
      10A    -11.300824    11A    -11.291230    12A    -11.269406  
      13A    -11.262213    14A    -11.239554    15A    -11.237176  
      16A    -11.229687    17A    -11.224498    18A     -1.474972  
      19A     -1.459790    20A     -1.403472    21A     -1.369758  
      22A     -1.358046    23A     -1.113673    24A     -1.077337  
      25A     -1.050582    26A     -0.992699    27A     -0.977878  
      28A     -0.970535    29A     -0.916401    30A     -0.875908  
      31A     -0.813885    32A     -0.786333    33A     -0.771314  
      34A     -0.765852    35A     -0.708081    36A     -0.698504  
      37A     -0.693049    38A     -0.674800    39A     -0.671209  
      40A     -0.663161    41A     -0.655874    42A     -0.646255  
      43A     -0.625948    44A     -0.604331    45A     -0.588578  
      46A     -0.582335    47A     -0.567595    48A     -0.564309  
      49A     -0.560210    50A     -0.547701    51A     -0.546727  
      52A     -0.531351    53A     -0.526224    54A     -0.510836  
      55A     -0.506934    56A     -0.501000    57A     -0.498718  
      58A     -0.483116    59A     -0.476474    60A     -0.470726  
      61A     -0.464339    62A     -0.453921    63A     -0.446041  
      64A     -0.427303    65A     -0.420932  

    Virtual:                                                              

      66A      0.049377    67A      0.053180    68A      0.057905  
      69A      0.065237    70A      0.071569    71A      0.077292  
      72A      0.082515    73A      0.094821    74A      0.098366  
      75A      0.102238    76A      0.107224    77A      0.111547  
      78A      0.117826    79A      0.123306    80A      0.126156  
      81A      0.130957    82A      0.134362    83A      0.138577  
      84A      0.147378    85A      0.154253    86A      0.154878  
      87A      0.160310    88A      0.167570    89A      0.170098  
      90A      0.174730    91A      0.178313    92A      0.182034  
      93A      0.185357    94A      0.188081    95A      0.204423  
      96A      0.210190    97A      0.212565    98A      0.215116  
      99A      0.221159   100A      0.228635   101A      0.229966  
     102A      0.232836   103A      0.241021   104A      0.244890  
     105A      0.250170   106A      0.252348   107A      0.255237  
     108A      0.259602   109A      0.265633   110A      0.270899  
     111A      0.276460   112A      0.277559   113A      0.292558  
     114A      0.296674   115A      0.300902   116A      0.306221  
     117A      0.314735   118A      0.319007   119A      0.326024  
     120A      0.332933   121A      0.339831   122A      0.344084  
     123A      0.350072   124A      0.356716   125A      0.359321  
     126A      0.363000   127A      0.366523   128A      0.371388  
     129A      0.375963   130A      0.383594   131A      0.386134  
     132A      0.395253   133A      0.397512   134A      0.398717  
     135A      0.408044   136A      0.412708   137A      0.417933  
     138A      0.418582   139A      0.420534   140A      0.424300  
     141A      0.431532   142A      0.435931   143A      0.446720  
     144A      0.452508   145A      0.461879   146A      0.468356  
     147A      0.471121   148A      0.475916   149A      0.479204  
     150A      0.490203   151A      0.496572   152A      0.507343  
     153A      0.508421   154A      0.515046   155A      0.523243  
     156A      0.525833   157A      0.532536   158A      0.538345  
     159A      0.547933   160A      0.552976   161A      0.565896  
     162A      0.570756   163A      0.591071   164A      0.601507  
     165A      0.605639   166A      0.621536   167A      0.632721  
     168A      0.649726   169A      0.683218   170A      0.691365  
     171A      0.734693   172A      0.746441   173A      0.776108  
     174A      0.783642   175A      0.792358   176A      0.803643  
     177A      0.814930   178A      0.818176   179A      0.841764  
     180A      0.856523   181A      0.858819   182A      0.870976  
     183A      0.878557   184A      0.885927   185A      0.896680  
     186A      0.900954   187A      0.911184   188A      0.915898  
     189A      0.922339   190A      0.925430   191A      0.928446  
     192A      0.937976   193A      0.941420   194A      0.949093  
     195A      0.954048   196A      0.958618   197A      0.964564  
     198A      0.967508   199A      0.973227   200A      0.975682  
     201A      0.981893   202A      0.993559   203A      0.997930  
     204A      1.000173   205A      1.009158   206A      1.015802  
     207A      1.022914   208A      1.039222   209A      1.045012  
     210A      1.050153   211A      1.067566   212A      1.069984  
     213A      1.077908   214A      1.082352   215A      1.098354  
     216A      1.102414   217A      1.109597   218A      1.121893  
     219A      1.133233   220A      1.133972   221A      1.145616  
     222A      1.170783   223A      1.179818   224A      1.185732  
     225A      1.226327   226A      1.233564   227A      1.255326  
     228A      1.281452   229A      1.292313   230A      1.295003  
     231A      1.320645   232A      1.338669   233A      1.349276  
     234A      1.371383   235A      1.419640   236A      1.430103  
     237A      1.455331   238A      1.468209   239A      1.478101  
     240A      1.487302   241A      1.498009   242A      1.504239  
     243A      1.522740   244A      1.533375   245A      1.541930  
     246A      1.561668   247A      1.565971   248A      1.570916  
     249A      1.583371   250A      1.598926   251A      1.611657  
     252A      1.613624   253A      1.636697   254A      1.641542  
     255A      1.653213   256A      1.666352   257A      1.666655  
     258A      1.674011   259A      1.688819   260A      1.697621  
     261A      1.707137   262A      1.711185   263A      1.718488  
     264A      1.732053   265A      1.744994   266A      1.759684  
     267A      1.771650   268A      1.791151   269A      1.803803  
     270A      1.816433   271A      1.827049   272A      1.836587  
     273A      1.864187   274A      1.866251   275A      1.874171  
     276A      1.883940   277A      1.891249   278A      1.910810  
     279A      1.916076   280A      1.939015   281A      1.945241  
     282A      1.950026   283A      1.962002   284A      1.964381  
     285A      1.971882   286A      1.977777   287A      1.985031  
     288A      2.006274   289A      2.008871   290A      2.016715  
     291A      2.021622   292A      2.033471   293A      2.037464  
     294A      2.048499   295A      2.055794   296A      2.062180  
     297A      2.063489   298A      2.067021   299A      2.079575  
     300A      2.095883   301A      2.100994   302A      2.106637  
     303A      2.118045   304A      2.125176   305A      2.136169  
     306A      2.145612   307A      2.163236   308A      2.172149  
     309A      2.180352   310A      2.186512   311A      2.198450  
     312A      2.206881   313A      2.221326   314A      2.238967  
     315A      2.261673   316A      2.272266   317A      2.285451  
     318A      2.313963   319A      2.320642   320A      2.334139  
     321A      2.340840   322A      2.356078   323A      2.367309  
     324A      2.376021   325A      2.380026   326A      2.382901  
     327A      2.392738   328A      2.409811   329A      2.427880  
     330A      2.434307   331A      2.445374   332A      2.451671  
     333A      2.461034   334A      2.482147   335A      2.493020  
     336A      2.530843   337A      2.533814   338A      2.555385  
     339A      2.586685   340A      2.608361   341A      2.624213  
     342A      2.636509   343A      2.659859   344A      2.680943  
     345A      2.716630   346A      2.732013   347A      2.757238  
     348A      2.763139   349A      2.775278   350A      2.792501  
     351A      2.797773   352A      2.803400   353A      2.828759  
     354A      2.843091   355A      2.857896   356A      2.864942  
     357A      2.874923   358A      2.877922   359A      2.883490  
     360A      2.889994   361A      2.898151   362A      2.916822  
     363A      2.923962   364A      2.942815   365A      2.965780  
     366A      2.975007   367A      2.990529   368A      3.021219  
     369A      3.029223   370A      3.045237   371A      3.057666  
     372A      3.119217   373A      3.138747   374A      3.176830  
     375A      3.248676   376A      3.275504   377A      3.299508  
     378A      3.327537   379A      3.362216   380A      3.393412  
     381A      3.411203   382A      3.439888   383A      3.538976  
     384A      3.545744   385A      3.578062   386A      3.582161  
     387A      3.680035   388A      3.695288   389A      3.740018  
     390A      3.778670   391A      3.838701   392A      3.910999  
     393A      3.941961   394A      3.967809   395A      4.072679  
     396A      4.107979  

    Final Occupation by Irrep:
              A 
    DOCC [    65 ]

  Energy converged.

  @DF-RHF Final Energy:  -839.30460497230149

   => Energetics <=

    Nuclear Repulsion Energy =           1404.9445749452172549
    One-Electron Energy =               -3940.8466246971106557
    Two-Electron Energy =                1696.5974447795917968
    DFT Exchange-Correlation Energy =       0.0000000000000000
    Empirical Dispersion Energy =           0.0000000000000000
    PCM Polarization Energy =               0.0000000000000000
    EFP Energy =                            0.0000000000000000
    Total Energy =                       -839.3046049723013766



Properties will be evaluated at   0.000000,   0.000000,   0.000000 Bohr

Properties computed using the SCF density matrix

  Nuclear Dipole Moment: (a.u.)
     X:     2.1522      Y:    -0.7368      Z:    -1.9171

  Electronic Dipole Moment: (a.u.)
     X:    -1.9251      Y:     0.5912      Z:     1.6768

  Dipole Moment: (a.u.)
     X:     0.2271      Y:    -0.1456      Z:    -0.2402     Total:     0.3612

  Dipole Moment: (Debye)
     X:     0.5772      Y:    -0.3700      Z:    -0.6106     Total:     0.9181


*** tstop() called on ThinkPad-P50 at Mon Jan 15 18:05:22 2018
Module time:
	user time   =     199.34 seconds =       3.32 minutes
	system time =       0.96 seconds =       0.02 minutes
	total time  =         67 seconds =       1.12 minutes
Total time:
	user time   =     199.34 seconds =       3.32 minutes
	system time =       0.96 seconds =       0.02 minutes
	total time  =         67 seconds =       1.12 minutes
   => Loading Basis Set <=

    Name: (JUN-CC-PVDZ AUX)
    Role: JKFIT
    Keyword: DF_BASIS_SCF
    atoms 1, 5, 8, 12, 16, 19, 23-28     entry C          line   145 file /home/junteng/Softwares/psi4conda/share/psi4/basis/jun-cc-pvdz-jkfit.gbs 
    atoms 2-4, 9-11, 13-15, 20-22, 30-35 entry H          line    69 file /home/junteng/Softwares/psi4conda/share/psi4/basis/jun-cc-pvdz-jkfit.gbs 
    atoms 6-7, 17-18, 29                 entry O          line   257 file /home/junteng/Softwares/psi4conda/share/psi4/basis/jun-cc-pvdz-jkfit.gbs 

   => Loading Basis Set <=

    Name: (JUN-CC-PVDZ AUX)
    Role: RIFIT
    Keyword: DF_BASIS_SAPT
    atoms 1, 5, 8, 12, 16, 19, 23-28     entry C          line    99 file /home/junteng/Softwares/psi4conda/share/psi4/basis/jun-cc-pvdz-ri.gbs 
    atoms 2-4, 9-11, 13-15, 20-22, 30-35 entry H          line    29 file /home/junteng/Softwares/psi4conda/share/psi4/basis/jun-cc-pvdz-ri.gbs 
    atoms 6-7, 17-18, 29                 entry O          line   187 file /home/junteng/Softwares/psi4conda/share/psi4/basis/jun-cc-pvdz-ri.gbs 

   => Loading Basis Set <=

    Name: CC-PVTZ-MINAO
    Role: ORBITAL
    Keyword: BASIS
    atoms 1, 5, 8, 12, 16, 19, 23-28     entry C          line   130 file /home/junteng/Softwares/psi4conda/share/psi4/basis/cc-pvtz-minao.gbs 
    atoms 2-4, 9-11, 13-15, 20-22, 30-35 entry H          line    19 file /home/junteng/Softwares/psi4conda/share/psi4/basis/cc-pvtz-minao.gbs 
    atoms 6-7, 17-18, 29                 entry O          line   190 file /home/junteng/Softwares/psi4conda/share/psi4/basis/cc-pvtz-minao.gbs 


*** tstart() called on ThinkPad-P50
*** at Mon Jan 15 18:05:23 2018

	 --------------------------------------------
	                    FISAPT0                  
	                  Rob Parrish                
	 --------------------------------------------

    Do F-SAPT =         Yes
    Do Plot   =          No
    Memory    =      78.580 [GD]

  ==> Localization (IBO) <==

  ==> IBO Localizer 2 <==

    MinAO Basis = CC-PVTZ-MINAO
    Use Ghosts  =       FALSE
    Use Stars   =       FALSE
    Condition   =   1.000E-07
    Power       =           4
    Convergence =   1.000E-12
    Maxiter     =        1000

    @IBO Iter:                   Metric       Gradient
    @IBO    1:   2.0294804996283187E+00   2.324904E+00
    @IBO    2:   2.2449500594915444E+00   2.479999E+00
    @IBO    3:   2.3411830211490052E+00   1.132562E+00
    @IBO    4:   2.3575588361812394E+00   2.389263E-01
    @IBO    5:   2.3587149368943336E+00   1.134928E-02
    @IBO    6:   2.3587168852034361E+00   7.092864E-05
    @IBO    7:   2.3587168852677061E+00   1.154844E-06
    @IBO    8:   2.3587168852677203E+00   4.155540E-08
    @IBO    9:   2.3587168852677203E+00   1.901817E-09
    @IBO   10:   2.3587168852677203E+00   8.783330E-11
    @IBO   11:   2.3587168852677203E+00   4.069143E-12
    @IBO   12:   2.3587168852677198E+00   1.890823E-13

    IBO Localizer 2 converged.

  ==> Partitioning <==

   => Atomic Partitioning <= 

    Monomer A:   4 atoms
    Monomer B:   7 atoms
    Monomer C:  24 atoms

   => Link Bond Identification <=

    Link Bond Selection = AUTOMATIC

    Charge Completeness = 0.800

    Total Link Bonds = 2

    --------------------------
    N     Orb Type Aind1 Aind2
    --------------------------
    1      22   BC     5    24
    2      41   AC     1    28
    --------------------------

   => Link Bond Assignment <=

    Link Bond Assignment      = C

   => Partition Summary <=

    Monomer A:  0 charge,   8 protons,   8 electrons,   4 docc
    Monomer B:  0 charge,  30 protons,  30 electrons,  15 docc
    Monomer C:  0 charge,  92 protons,  92 electrons,  46 docc

  ==> Overlap Integrals <==

  ==> Kinetic Integrals <==

  ==> Nuclear Integrals <==

    Nuclear Repulsion Tot:   1.4049445749452184E+03 [Eh]

  ==> Coulomb Integrals <==

  ==> DFJK: Density-Fitted J/K Matrices <==

    J tasked:                  Yes
    K tasked:                  Yes
    wK tasked:                  No
    OpenMP threads:              4
    Integrals threads:           4
    Memory (MB):            643730
    Algorithm:                Core
    Integral Cache:           NONE
    Schwarz Cutoff:          1E-12
    Fitting Condition:       1E-12

   => Auxiliary Basis Set <=

  Basis Set: (JUN-CC-PVDZ AUX)
    Blend: JUN-CC-PVDZ-JKFIT
    Number of shells: 621
    Number of basis function: 1757
    Number of Cartesian functions: 1997
    Spherical Harmonics?: true
    Max angular momentum: 3

  ==> Relaxed SCF Equations <==

  ==> SCF A: <==

    Maxiter =          50
    E Tol   =   1.000E-06
    D Tol   =   1.000E-08

    Max DIIS Vectors = 5

    Iter   N:                        E          dE         |D|
    Iter   1:  -3.6210772257648820E+01  -3.621E+01   4.653E-04 
    Iter   2:  -3.6212997179503532E+01  -2.225E-03   4.373E-05 DIIS
    Iter   3:  -3.6213052017063859E+01  -5.484E-05   8.688E-06 DIIS
    Iter   4:  -3.6213055393129018E+01  -3.376E-06   2.436E-06 DIIS
    Iter   5:  -3.6213055620960432E+01  -2.278E-07   4.582E-07 DIIS
    Iter   6:  -3.6213055630598859E+01  -9.638E-09   6.569E-08 DIIS
    Iter   7:  -3.6213055630788261E+01  -1.894E-10   9.186E-09 DIIS

    FISAPTSCF Converged.

    Final SCF Energy:  -3.6213055630788261E+01 [Eh]

   => Occupied Orbital Energies <=

       1  -11.221371     2   -0.838269     3   -0.549787  
       4   -0.545719  

   => Virtual Orbital Energies <=

       5    0.032274     6    0.053999     7    0.059372  
       8    0.062732     9    0.067512    10    0.073819  
      11    0.083012    12    0.086056    13    0.096305  
      14    0.098591    15    0.104937    16    0.108426  
      17    0.115475    18    0.118958    19    0.121881  
      20    0.128300    21    0.129854    22    0.137239  
      23    0.142105    24    0.148876    25    0.150278  
      26    0.161105    27    0.163476    28    0.170009  
      29    0.172548    30    0.176345    31    0.184595  
      32    0.187187    33    0.191095    34    0.199692  
      35    0.206255    36    0.215636    37    0.218619  
      38    0.221570    39    0.229871    40    0.234551  
      41    0.237477    42    0.242051    43    0.246770  
      44    0.250052    45    0.253830    46    0.258243  
      47    0.263850    48    0.265344    49    0.270595  
      50    0.274737    51    0.286421    52    0.289618  
      53    0.298878    54    0.302197    55    0.310253  
      56    0.314239    57    0.323200    58    0.326119  
      59    0.330332    60    0.335462    61    0.344419  
      62    0.346224    63    0.351012    64    0.358007  
      65    0.367988    66    0.373210    67    0.374294  
      68    0.382350    69    0.385152    70    0.389581  
      71    0.393000    72    0.399667    73    0.403284  
      74    0.407023    75    0.409590    76    0.416412  
      77    0.421009    78    0.430095    79    0.435547  
      80    0.439080    81    0.440715    82    0.452314  
      83    0.462744    84    0.464820    85    0.469441  
      86    0.479140    87    0.490248    88    0.492965  
      89    0.496036    90    0.506640    91    0.517019  
      92    0.527260    93    0.531602    94    0.536987  
      95    0.542539    96    0.554466    97    0.568473  
      98    0.570888    99    0.579783   100    0.599738  
     101    0.604397   102    0.617743   103    0.621844  
     104    0.631323   105    0.636020   106    0.641886  
     107    0.656654   108    0.683963   109    0.689187  
     110    0.710377   111    0.730178   112    0.754386  
     113    0.766172   114    0.791342   115    0.794907  
     116    0.807800   117    0.813826   118    0.827156  
     119    0.842954   120    0.846601   121    0.870203  
     122    0.881191   123    0.887319   124    0.904674  
     125    0.910976   126    0.915825   127    0.921277  
     128    0.930016   129    0.934614   130    0.943007  
     131    0.946178   132    0.955557   133    0.957952  
     134    0.965331   135    0.971784   136    0.981980  
     137    0.986999   138    0.990557   139    0.997749  
     140    1.004047   141    1.018322   142    1.024228  
     143    1.028326   144    1.040186   145    1.049734  
     146    1.063586   147    1.065307   148    1.074741  
     149    1.084824   150    1.094430   151    1.105939  
     152    1.111283   153    1.116645   154    1.121770  
     155    1.136396   156    1.141391   157    1.147535  
     158    1.154495   159    1.175024   160    1.182042  
     161    1.194644   162    1.220096   163    1.232196  
     164    1.239395   165    1.259776   166    1.283170  
     167    1.302875   168    1.332702   169    1.366838  
     170    1.383365   171    1.411242   172    1.419829  
     173    1.461012   174    1.471437   175    1.479083  
     176    1.502950   177    1.505503   178    1.525878  
     179    1.533581   180    1.551773   181    1.563610  
     182    1.567089   183    1.587069   184    1.597706  
     185    1.610138   186    1.628799   187    1.639892  
     188    1.642275   189    1.661977   190    1.668181  
     191    1.676378   192    1.683757   193    1.701068  
     194    1.711704   195    1.719430   196    1.732582  
     197    1.741545   198    1.748781   199    1.780785  
     200    1.790570   201    1.810618   202    1.818638  
     203    1.828733   204    1.833834   205    1.837086  
     206    1.867508   207    1.877107   208    1.883240  
     209    1.904349   210    1.906366   211    1.919257  
     212    1.929954   213    1.932787   214    1.954318  
     215    1.977543   216    1.979282   217    1.986231  
     218    1.990273   219    1.993789   220    2.006908  
     221    2.021770   222    2.025950   223    2.026814  
     224    2.045462   225    2.048807   226    2.054396  
     227    2.061362   228    2.069777   229    2.086209  
     230    2.088968   231    2.093522   232    2.108257  
     233    2.125738   234    2.127895   235    2.135661  
     236    2.139422   237    2.152989   238    2.156418  
     239    2.179674   240    2.184669   241    2.189791  
     242    2.203886   243    2.208782   244    2.220491  
     245    2.237818   246    2.254500   247    2.267825  
     248    2.287245   249    2.291002   250    2.298650  
     251    2.315469   252    2.320932   253    2.349708  
     254    2.364619   255    2.367291   256    2.379278  
     257    2.386491   258    2.388053   259    2.401134  
     260    2.409521   261    2.419209   262    2.422283  
     263    2.445225   264    2.449154   265    2.469963  
     266    2.496117   267    2.500700   268    2.520947  
     269    2.537928   270    2.555530   271    2.580308  
     272    2.595074   273    2.622799   274    2.630977  
     275    2.647238   276    2.651455   277    2.676486  
     278    2.685739   279    2.692229   280    2.707424  
     281    2.726365   282    2.745136   283    2.768468  
     284    2.782820   285    2.785333   286    2.798204  
     287    2.801827   288    2.843901   289    2.862972  
     290    2.865736   291    2.872928   292    2.880242  
     293    2.886475   294    2.888702   295    2.899564  
     296    2.902322   297    2.909171   298    2.925361  
     299    2.944834   300    2.955298   301    2.970802  
     302    2.999701   303    3.005496   304    3.022752  
     305    3.029693   306    3.057612   307    3.068365  
     308    3.135718   309    3.142806   310    3.198071  
     311    3.263310   312    3.315326   313    3.365468  
     314    3.411842   315    3.423813   316    3.444201  
     317    3.564736   318    3.580029   319    3.624856  
     320    3.683769   321    3.719397   322    3.766012  
     323    3.811409   324    3.880046   325    3.950605  
     326    3.961371   327    3.984399   328    4.091343  
     329    4.139864   330    4.219189   331    4.458961  
     332    4.533606   333    4.564811   334    4.762728  
     335    4.950668   336    5.044916   337    5.072095  
     338    5.242141   339    5.352713   340    5.524559  
     341    5.634173   342    5.761776   343    5.846737  
     344    6.177440   345    6.380309   346    6.704611  
     347   13.389926   348   18.436250   349   33.429820  
     350   33.497345  

  ==> SCF B: <==

    Maxiter =          50
    E Tol   =   1.000E-06
    D Tol   =   1.000E-08

    Max DIIS Vectors = 5

    Iter   N:                        E          dE         |D|
    Iter   1:  -2.2393395730845060E+02  -2.239E+02   9.551E-04 
    Iter   2:  -2.2394262057787259E+02  -8.663E-03   8.780E-05 DIIS
    Iter   3:  -2.2394286736557206E+02  -2.468E-04   2.681E-05 DIIS
    Iter   4:  -2.2394288298997148E+02  -1.562E-05   1.565E-05 DIIS
    Iter   5:  -2.2394288687786553E+02  -3.888E-06   2.134E-06 DIIS
    Iter   6:  -2.2394288708149398E+02  -2.036E-07   1.075E-06 DIIS
    Iter   7:  -2.2394288711373719E+02  -3.224E-08   3.730E-07 DIIS
    Iter   8:  -2.2394288711936409E+02  -5.627E-09   1.387E-07 DIIS
    Iter   9:  -2.2394288712011300E+02  -7.489E-10   5.963E-08 DIIS
    Iter  10:  -2.2394288712026352E+02  -1.505E-10   2.079E-08 DIIS
    Iter  11:  -2.2394288712028060E+02  -1.708E-11   9.037E-09 DIIS

    FISAPTSCF Converged.

    Final SCF Energy:  -2.2394288712028060E+02 [Eh]

   => Occupied Orbital Energies <=

       1  -20.596528     2  -20.542416     3  -11.380363  
       4  -11.288469     5   -1.432114     6   -1.349635  
       7   -0.955759     8   -0.759017     9   -0.663640  
      10   -0.656170    11   -0.614152    12   -0.535485  
      13   -0.528139    14   -0.467162    15   -0.452603  

   => Virtual Orbital Energies <=

      16    0.007982    17    0.051691    18    0.058702  
      19    0.064658    20    0.068499    21    0.077215  
      22    0.079659    23    0.088243    24    0.097067  
      25    0.100095    26    0.102091    27    0.107764  
      28    0.111933    29    0.118595    30    0.124416  
      31    0.128357    32    0.129732    33    0.133376  
      34    0.140239    35    0.149782    36    0.155376  
      37    0.158680    38    0.165653    39    0.170462  
      40    0.173032    41    0.178711    42    0.182720  
      43    0.183926    44    0.188717    45    0.190596  
      46    0.205396    47    0.210927    48    0.215874  
      49    0.216519    50    0.224271    51    0.228626  
      52    0.233754    53    0.237623    54    0.240591  
      55    0.246862    56    0.253665    57    0.259495  
      58    0.261324    59    0.262215    60    0.269647  
      61    0.278631    62    0.284263    63    0.298356  
      64    0.302014    65    0.306856    66    0.311735  
      67    0.317741    68    0.323887    69    0.331693  
      70    0.335610    71    0.340537    72    0.346899  
      73    0.352609    74    0.355194    75    0.359885  
      76    0.365629    77    0.369867    78    0.372462  
      79    0.380579    80    0.383202    81    0.386072  
      82    0.394056    83    0.397532    84    0.405367  
      85    0.412477    86    0.416358    87    0.420408  
      88    0.424783    89    0.428684    90    0.429692  
      91    0.435117    92    0.443165    93    0.452492  
      94    0.455880    95    0.459731    96    0.470038  
      97    0.477307    98    0.481555    99    0.485812  
     100    0.492432   101    0.507224   102    0.508205  
     103    0.516283   104    0.518123   105    0.531668  
     106    0.537764   107    0.545235   108    0.552611  
     109    0.558152   110    0.569778   111    0.571689  
     112    0.577490   113    0.588684   114    0.606338  
     115    0.612240   116    0.618398   117    0.630866  
     118    0.651476   119    0.658411   120    0.687495  
     121    0.692681   122    0.706285   123    0.721513  
     124    0.756505   125    0.776970   126    0.794386  
     127    0.806749   128    0.813261   129    0.817831  
     130    0.840362   131    0.848766   132    0.857051  
     133    0.870330   134    0.893712   135    0.897613  
     136    0.907588   137    0.912974   138    0.923298  
     139    0.925560   140    0.932782   141    0.938961  
     142    0.945045   143    0.957166   144    0.959311  
     145    0.961647   146    0.968402   147    0.978468  
     148    0.985997   149    0.990428   150    0.993398  
     151    0.996803   152    1.008317   153    1.012165  
     154    1.016694   155    1.033814   156    1.038402  
     157    1.051118   158    1.053959   159    1.067880  
     160    1.080817   161    1.087965   162    1.091810  
     163    1.101113   164    1.108701   165    1.119115  
     166    1.134050   167    1.143741   168    1.149979  
     169    1.162179   170    1.183700   171    1.226753  
     172    1.232191   173    1.240926   174    1.264099  
     175    1.302260   176    1.309148   177    1.329010  
     178    1.342824   179    1.345500   180    1.361027  
     181    1.391423   182    1.414151   183    1.427595  
     184    1.462683   185    1.472076   186    1.487214  
     187    1.493487   188    1.501541   189    1.509353  
     190    1.517264   191    1.526881   192    1.539337  
     193    1.550597   194    1.568283   195    1.574003  
     196    1.578052   197    1.593774   198    1.609554  
     199    1.628234   200    1.630339   201    1.634631  
     202    1.644721   203    1.662825   204    1.666660  
     205    1.680750   206    1.686637   207    1.692048  
     208    1.707338   209    1.715111   210    1.722690  
     211    1.734338   212    1.741118   213    1.756891  
     214    1.763128   215    1.779257   216    1.808094  
     217    1.812153   218    1.831932   219    1.845452  
     220    1.848179   221    1.859501   222    1.873940  
     223    1.881429   224    1.897697   225    1.913281  
     226    1.915941   227    1.923096   228    1.932879  
     229    1.954166   230    1.956182   231    1.970981  
     232    1.973445   233    1.979963   234    1.990114  
     235    1.998930   236    2.008321   237    2.015901  
     238    2.021756   239    2.025690   240    2.028071  
     241    2.039862   242    2.049918   243    2.052601  
     244    2.057753   245    2.071518   246    2.081795  
     247    2.093697   248    2.099323   249    2.112931  
     250    2.120861   251    2.130448   252    2.139029  
     253    2.142745   254    2.152405   255    2.159251  
     256    2.175014   257    2.191094   258    2.199293  
     259    2.206906   260    2.223379   261    2.244317  
     262    2.253583   263    2.273582   264    2.280154  
     265    2.295974   266    2.303978   267    2.324295  
     268    2.345600   269    2.363476   270    2.365437  
     271    2.375941   272    2.381607   273    2.396913  
     274    2.398530   275    2.406627   276    2.420133  
     277    2.432701   278    2.442947   279    2.449363  
     280    2.470373   281    2.474802   282    2.496059  
     283    2.502803   284    2.517172   285    2.540234  
     286    2.571768   287    2.580318   288    2.602698  
     289    2.614433   290    2.630351   291    2.643904  
     292    2.656859   293    2.678347   294    2.700772  
     295    2.721665   296    2.739647   297    2.758513  
     298    2.768534   299    2.789645   300    2.797982  
     301    2.804866   302    2.820460   303    2.829960  
     304    2.859568   305    2.865908   306    2.866671  
     307    2.880925   308    2.886482   309    2.898096  
     310    2.912642   311    2.920000   312    2.944817  
     313    2.950839   314    2.961538   315    2.993018  
     316    3.008682   317    3.017546   318    3.036876  
     319    3.054943   320    3.071824   321    3.097203  
     322    3.135412   323    3.162129   324    3.191768  
     325    3.254699   326    3.283071   327    3.305256  
     328    3.334194   329    3.375746   330    3.407236  
     331    3.438618   332    3.461471   333    3.553375  
     334    3.578949   335    3.585805   336    3.595723  
     337    3.686614   338    3.697244   339    3.763584  
     340    3.782511   341    3.840906   342    3.901731  
     343    3.939817   344    3.950310   345    3.976871  
     346    4.077555   347    4.115125   348    4.535287  
     349    4.544991   350   13.287478  

  ==> Frozen Core <==


    ------------------
    Range      A     B
    ------------------
    nbf      396   396
    nmo      350   350
    nocc       4    15
    nvir     346   335
    nfocc      1     4
    naocc      3    11
    navir    346   335
    nfvir      0     0
    ------------------

  ==> Unification <==

  ==> dHF <==

    E ABC(HF) =  -8.3930460497230149E+02 [Eh]
    E AC(0)   =  -6.1126515582857644E+02 [Eh]
    E BC(0)   =  -7.9914332955767031E+02 [Eh]
    E A(0)    =  -2.5033798514625190E+01 [Eh]
    E B(0)    =  -2.1265864406959685E+02 [Eh]
    E AC(HF)  =  -6.1126287245543710E+02 [Eh]
    E BC(HF)  =  -7.9913439974584071E+02 [Eh]
    E AB(HF)  =  -2.3766421760831068E+02 [Eh]
    E A(HF)   =  -2.5020366693645620E+01 [Eh]
    E B(HF)   =  -2.1264319825986701E+02 [Eh]
    E C       =  -5.7109331988377301E+02 [Eh]
    E HF      =   1.0560530172256222E-02 [Eh]

  ==> Electrostatics <==

    Elst10,r            =     0.006950398342 [Eh]

  ==> Exchange <==

    Exch10(S^2)         =     0.004665903592 [Eh]
    Exch10              =     0.004683405841 [Eh]

  ==> Induction <==

    Ind20,u (A<-B)      =    -0.001128640044 [Eh]
    Ind20,u (B<-A)      =    -0.000409841778 [Eh]
    Ind20,u             =    -0.001538481822 [Eh]
    Exch-Ind20,u (A<-B) =     0.000631823229 [Eh]
    Exch-Ind20,u (B<-A) =     0.000156650664 [Eh]
    Exch-Ind20,u        =     0.000788473893 [Eh]

  ==> CPHF Iterations <==

    Maxiter     =          50
    Convergence =   1.000E-08

    -----------------------------------------
    Iter   Monomer A    Monomer B    Time [s]
    -----------------------------------------
    1      1.489E-01    2.456E-01           7
    2      2.510E-02    8.227E-02          14
    3      4.039E-03    2.475E-02          21
    4      4.868E-04    8.962E-03          27
    5      6.556E-05    2.843E-03          34
    6      9.857E-06    9.545E-04          40
    7      1.441E-06    3.146E-04          47
    8      2.203E-07    1.318E-04          53
    9      2.426E-08    3.927E-05          60
    10     1.880E-09*   1.196E-05          66
    11     1.880E-09*   3.372E-06          70
    12     1.880E-09*   8.217E-07          73
    13     1.880E-09*   2.462E-07          76
    14     1.880E-09*   6.178E-08          79
    15     1.880E-09*   1.231E-08          83
    16     1.880E-09*   3.246E-09*         86
    -----------------------------------------

    Ind20,r (A<-B)      =    -0.001318261344 [Eh]
    Ind20,r (B<-A)      =    -0.000472173317 [Eh]
    Ind20,r             =    -0.001790434661 [Eh]
    Exch-Ind20,r (A<-B) =     0.000778414623 [Eh]
    Exch-Ind20,r (B<-A) =     0.000207093556 [Eh]
    Exch-Ind20,r        =     0.000985508179 [Eh]

  ==> F-SAPT Localization (IBO) <==

  Local Orbitals for Monomer A:

  ==> IBO Localizer 2 <==

    MinAO Basis = CC-PVTZ-MINAO
    Use Ghosts  =       FALSE
    Use Stars   =       FALSE
    Condition   =   1.000E-07
    Power       =           4
    Convergence =   1.000E-12
    Maxiter     =        1000

    @IBO Iter:                   Metric       Gradient
    @IBO    1:   1.0645066171811404E+00   3.436873E-02
    @IBO    2:   1.0832801136905483E+00   1.442294E-02
    @IBO    3:   1.0834269974749027E+00   7.746342E-05
    @IBO    4:   1.0834270016501406E+00   9.748712E-09
    @IBO    5:   1.0834270016501408E+00   3.363971E-12
    @IBO    6:   1.0834270016501406E+00   5.203953E-16

    IBO Localizer 2 converged.

  Local Orbitals for Monomer B:

  ==> IBO Localizer 2 <==

    MinAO Basis = CC-PVTZ-MINAO
    Use Ghosts  =       FALSE
    Use Stars   =       FALSE
    Condition   =   1.000E-07
    Power       =           4
    Convergence =   1.000E-12
    Maxiter     =        1000

    @IBO Iter:                   Metric       Gradient
    @IBO    1:   1.4813213319643186E+00   1.684524E+00
    @IBO    2:   1.6780883024102053E+00   9.376550E-01
    @IBO    3:   1.7095882370146940E+00   3.069695E-01
    @IBO    4:   1.7107745298838539E+00   2.624238E-03
    @IBO    5:   1.7107747935280351E+00   1.185858E-04
    @IBO    6:   1.7107747937167006E+00   2.186259E-06
    @IBO    7:   1.7107747937168065E+00   7.626704E-08
    @IBO    8:   1.7107747937168067E+00   2.764731E-09
    @IBO    9:   1.7107747937168067E+00   1.115583E-10
    @IBO   10:   1.7107747937168067E+00   4.609803E-12
    @IBO   11:   1.7107747937168070E+00   1.906775E-13

    IBO Localizer 2 converged.

  ==> F-SAPT Electrostatics <==

  ==> DFERI: Density Fitted 3-Index Tensors <==

    Schwarz cutoff =   0.000E+00
    J cutoff       =   1.000E-12
    Mem (GB)       =         628

   => Auxiliary Basis <=

  Basis Set: (JUN-CC-PVDZ AUX)
    Blend: JUN-CC-PVDZ-JKFIT
    Number of shells: 621
    Number of basis function: 1757
    Number of Cartesian functions: 1997
    Spherical Harmonics?: true
    Max angular momentum: 3

    Elst10,r            =     0.006950398540 [Eh]

  ==> F-SAPT Exchange <==

  ==> DFERI: Density Fitted 3-Index Tensors <==

    Schwarz cutoff =   0.000E+00
    J cutoff       =   1.000E-12
    Mem (GB)       =         628

   => Auxiliary Basis <=

  Basis Set: (JUN-CC-PVDZ AUX)
    Blend: JUN-CC-PVDZ-JKFIT
    Number of shells: 621
    Number of basis function: 1757
    Number of Cartesian functions: 1997
    Spherical Harmonics?: true
    Max angular momentum: 3

    Exch10(S^2)         =     0.004665903592 [Eh]

    Scaling F-SAPT Exch10(S^2) by   1.004E+00 to match Exch10

  ==> F-SAPT Induction <==

  ==> DFERI: Density Fitted 3-Index Tensors <==

    Schwarz cutoff =   0.000E+00
    J cutoff       =   1.000E-12
    Mem (GB)       =         628

   => Auxiliary Basis <=

  Basis Set: (JUN-CC-PVDZ AUX)
    Blend: JUN-CC-PVDZ-JKFIT
    Number of shells: 621
    Number of basis function: 1757
    Number of Cartesian functions: 1997
    Spherical Harmonics?: true
    Max angular momentum: 3

    Ind20,u (A<-B)      =    -0.001128640044 [Eh]
    Ind20,u (B<-A)      =    -0.000409841778 [Eh]
    Ind20,u             =    -0.001538481822 [Eh]
    Exch-Ind20,u (A<-B) =     0.000631823229 [Eh]
    Exch-Ind20,u (B<-A) =     0.000156650664 [Eh]
    Exch-Ind20,u        =     0.000788473893 [Eh]

    Scaling for delta HF        =   1.333E+00
    Scaling for response (A<-B) =   1.087E+00
    Scaling for response (B<-A) =   1.047E+00
    Scaling for total (A<-B)    =   1.449E+00
    Scaling for total (B<-A)    =   1.396E+00

  ==> F-SAPT Dispersion <==

  ==> DFERI: Density Fitted 3-Index Tensors <==

    Schwarz cutoff =   0.000E+00
    J cutoff       =   1.000E-12
    Mem (GB)       =         628

   => Auxiliary Basis <=

  Basis Set: (JUN-CC-PVDZ AUX)
    Blend: JUN-CC-PVDZ-RI
    Number of shells: 465
    Number of basis function: 1357
    Number of Cartesian functions: 1562
    Spherical Harmonics?: true
    Max angular momentum: 3

    Disp20              =    -0.002617206412 [Eh]
    Exch-Disp20         =     0.000313060333 [Eh]

  ==> F-SAPT Output <==

    F-SAPT Data Filepath = fsapt/

  ==> Results <==


    SAPT Results  
  --------------------------------------------------------------------------------------------------------
    Electrostatics                  6.95039834 [mEh]       4.36144099 [kcal/mol]      18.24827085 [kJ/mol]
      Elst10,r                      6.95039834 [mEh]       4.36144099 [kcal/mol]      18.24827085 [kJ/mol]

    Exchange                        4.68340584 [mEh]       2.93888166 [kcal/mol]      12.29628204 [kJ/mol]
      Exch10                        4.68340584 [mEh]       2.93888166 [kcal/mol]      12.29628204 [kJ/mol]
      Exch10(S^2)                   4.66590359 [mEh]       2.92789883 [kcal/mol]      12.25032988 [kJ/mol]

    Induction                      -1.07327401 [mEh]      -0.67348964 [kcal/mol]      -2.81788092 [kJ/mol]
      Ind20,r                      -1.79043466 [mEh]      -1.12351476 [kcal/mol]      -4.70078620 [kJ/mol]
      Exch-Ind20,r                  0.98550818 [mEh]       0.61841574 [kcal/mol]       2.58745173 [kJ/mol]
      delta HF,r (2)               -0.26834753 [mEh]      -0.16839062 [kcal/mol]      -0.70454644 [kJ/mol]
      Induction (A<-B)             -0.71982158 [mEh]      -0.45169488 [kcal/mol]      -1.88989157 [kJ/mol]
      Induction (B<-A)             -0.35345243 [mEh]      -0.22179476 [kcal/mol]      -0.92798935 [kJ/mol]

    Dispersion                     -2.30414608 [mEh]      -1.44587355 [kcal/mol]      -6.04953553 [kJ/mol]
      Disp20                       -2.61720641 [mEh]      -1.64232189 [kcal/mol]      -6.87147543 [kJ/mol]
      Exch-Disp20                   0.31306033 [mEh]       0.19644833 [kcal/mol]       0.82193990 [kJ/mol]

  Total HF                         10.56053017 [mEh]       6.62683301 [kcal/mol]      27.72667197 [kJ/mol]
  Total SAPT0                       8.25638409 [mEh]       5.18095945 [kcal/mol]      21.67713644 [kJ/mol]

  --------------------------------------------------------------------------------------------------------
    Han Solo: This is *not* gonna work.
    Luke Skywalker: Why didn't you say so before?
    Han Solo: I *did* say so before.

*** tstop() called on ThinkPad-P50 at Mon Jan 15 18:08:54 2018
Module time:
	user time   =     729.17 seconds =      12.15 minutes
	system time =       2.66 seconds =       0.04 minutes
	total time  =        211 seconds =       3.52 minutes
Total time:
	user time   =     929.68 seconds =      15.49 minutes
	system time =       3.62 seconds =       0.06 minutes
	total time  =        279 seconds =       4.65 minutes

*** Psi4 exiting successfully. Buy a developer a beer!
