
    -----------------------------------------------------------------------
          Psi4: An Open-Source Ab Initio Electronic Structure Package
                               Psi4 1.1 release

                         Git: Rev {HEAD} add49b9 


    R. M. Parrish, L. A. Burns, D. G. A. Smith, A. C. Simmonett,
    A. E. DePrince III, E. G. Hohenstein, U. Bozkaya, A. Yu. Sokolov,
    R. Di Remigio, R. M. Richard, J. F. Gonthier, A. M. James,
    H. R. McAlexander, A. Kumar, M. Saitow, X. Wang, B. P. Pritchard,
    P. Verma, H. F. Schaefer III, K. Patkowski, R. A. King, E. F. Valeev,
    F. A. Evangelista, J. M. Turney, T. D. Crawford, and C. D. Sherrill,
    J. Chem. Theory Comput. in press (2017).
    (doi: 10.1021/acs.jctc.7b00174)

    -----------------------------------------------------------------------


    Psi4 started on: Monday, 15 January 2018 06:08PM

    Process ID:  19801
    PSIDATADIR: /home/junteng/Softwares/psi4conda/share/psi4
    Memory:     500.0 MiB
    Threads:    4
    
  ==> Input File <==

--------------------------------------------------------------------------
memory 750000 mb

molecule mol {
0 1
C          1.16349        2.24276       -1.43340
H          1.99947        2.27185       -2.13610
H          1.07591        3.21088       -0.93935
H          0.24596        2.06487       -1.99800
--
0 1
C         -1.03723        1.59665        0.42739
O         -1.13186        2.80245        0.42291
O         -2.08672        0.78024        0.25215
C         -3.36695        1.41025        0.05821
H         -4.08170        0.59323       -0.00892
H         -3.36368        1.99758       -0.86096
H         -3.60308        2.05996        0.90159
--
0 1
C          1.91069       -2.40671       -0.32329
H          2.00304       -3.02988        0.57048
H          1.09519       -2.78872       -0.93642
H          2.83844       -2.48594       -0.89405
C         -0.82048       -1.50080        0.50191
O         -1.48590       -2.10965        1.30702
O         -1.02805       -1.55732       -0.82410
C         -2.17237       -2.31252       -1.24807
H         -2.08808       -3.35399       -0.93287
H         -3.08392       -1.88581       -0.82570
H         -2.18230       -2.23960       -2.33355
C          0.28370        0.89578        0.68456
C          0.37873       -0.65186        0.89479
C          1.39844        1.14521       -0.42345
C          2.74479        1.18881        0.33553
C          2.87347       -0.28530        0.80006
C          1.67326       -0.96445        0.07004
O          1.48767       -0.12754       -1.08092
H          0.62302        1.38227        1.60129
H          0.52619       -0.87291        1.95148
H          3.54144        1.45476       -0.36207
H          2.74985        1.91374        1.15170
H          3.81354       -0.73064        0.47086
H          2.81123       -0.40391        1.88396

symmetry c1
no_reorient
no_com
}

set {
basis jun-cc-pvdz
scf_type df
guess sad
freeze_core true
}

energy('fisapt0')
--------------------------------------------------------------------------

  Memory set to 698.492 GiB by Python driver.

*** tstart() called on ThinkPad-P50
*** at Mon Jan 15 18:08:55 2018

   => Loading Basis Set <=

    Name: JUN-CC-PVDZ
    Role: ORBITAL
    Keyword: BASIS
    atoms 1, 5, 8, 12, 16, 19, 23-28     entry C          line   157 file /home/junteng/Softwares/psi4conda/share/psi4/basis/jun-cc-pvdz.gbs 
    atoms 2-4, 9-11, 13-15, 20-22, 30-35 entry H          line    35 file /home/junteng/Softwares/psi4conda/share/psi4/basis/jun-cc-pvdz.gbs 
    atoms 6-7, 17-18, 29                 entry O          line   225 file /home/junteng/Softwares/psi4conda/share/psi4/basis/jun-cc-pvdz.gbs 


         ---------------------------------------------------------
                                   SCF
            by Justin Turney, Rob Parrish, and Andy Simmonett
                              RHF Reference
                        4 Threads, 715255 MiB Core
         ---------------------------------------------------------

  ==> Geometry <==

    Molecular point group: c1
    Full point group: C1

    Geometry (in Angstrom), charge = 0, multiplicity = 1:

       Center              X                  Y                   Z               Mass       
    ------------   -----------------  -----------------  -----------------  -----------------
           C          1.163490000000     2.242760000000    -1.433400000000    12.000000000000
           H          1.999470000000     2.271850000000    -2.136100000000     1.007825032070
           H          1.075910000000     3.210880000000    -0.939350000000     1.007825032070
           H          0.245960000000     2.064870000000    -1.998000000000     1.007825032070
           C         -1.037230000000     1.596650000000     0.427390000000    12.000000000000
           O         -1.131860000000     2.802450000000     0.422910000000    15.994914619560
           O         -2.086720000000     0.780240000000     0.252150000000    15.994914619560
           C         -3.366950000000     1.410250000000     0.058210000000    12.000000000000
           H         -4.081700000000     0.593230000000    -0.008920000000     1.007825032070
           H         -3.363680000000     1.997580000000    -0.860960000000     1.007825032070
           H         -3.603080000000     2.059960000000     0.901590000000     1.007825032070
           C          1.910690000000    -2.406710000000    -0.323290000000    12.000000000000
           H          2.003040000000    -3.029880000000     0.570480000000     1.007825032070
           H          1.095190000000    -2.788720000000    -0.936420000000     1.007825032070
           H          2.838440000000    -2.485940000000    -0.894050000000     1.007825032070
           C         -0.820480000000    -1.500800000000     0.501910000000    12.000000000000
           O         -1.485900000000    -2.109650000000     1.307020000000    15.994914619560
           O         -1.028050000000    -1.557320000000    -0.824100000000    15.994914619560
           C         -2.172370000000    -2.312520000000    -1.248070000000    12.000000000000
           H         -2.088080000000    -3.353990000000    -0.932870000000     1.007825032070
           H         -3.083920000000    -1.885810000000    -0.825700000000     1.007825032070
           H         -2.182300000000    -2.239600000000    -2.333550000000     1.007825032070
           C          0.283700000000     0.895780000000     0.684560000000    12.000000000000
           C          0.378730000000    -0.651860000000     0.894790000000    12.000000000000
           C          1.398440000000     1.145210000000    -0.423450000000    12.000000000000
           C          2.744790000000     1.188810000000     0.335530000000    12.000000000000
           C          2.873470000000    -0.285300000000     0.800060000000    12.000000000000
           C          1.673260000000    -0.964450000000     0.070040000000    12.000000000000
           O          1.487670000000    -0.127540000000    -1.080920000000    15.994914619560
           H          0.623020000000     1.382270000000     1.601290000000     1.007825032070
           H          0.526190000000    -0.872910000000     1.951480000000     1.007825032070
           H          3.541440000000     1.454760000000    -0.362070000000     1.007825032070
           H          2.749850000000     1.913740000000     1.151700000000     1.007825032070
           H          3.813540000000    -0.730640000000     0.470860000000     1.007825032070
           H          2.811230000000    -0.403910000000     1.883960000000     1.007825032070

  Running in c1 symmetry.

  Rotational constants: A =      0.02030  B =      0.01700  C =      0.01135 [cm^-1]
  Rotational constants: A =    608.66484  B =    509.54109  C =    340.30354 [MHz]
  Nuclear repulsion = 1404.944574945217028

  Charge       = 0
  Multiplicity = 1
  Electrons    = 130
  Nalpha       = 65
  Nbeta        = 65

  ==> Algorithm <==

  SCF Algorithm Type is DF.
  DIIS enabled.
  MOM disabled.
  Fractional occupation disabled.
  Guess Type is SAD.
  Energy threshold   = 1.00e-08
  Density threshold  = 1.00e-08
  Integral threshold = 0.00e+00

  ==> Primary Basis <==

  Basis Set: JUN-CC-PVDZ
    Blend: JUN-CC-PVDZ
    Number of shells: 190
    Number of basis function: 396
    Number of Cartesian functions: 413
    Spherical Harmonics?: true
    Max angular momentum: 2

   => Loading Basis Set <=

    Name: (JUN-CC-PVDZ AUX)
    Role: JKFIT
    Keyword: DF_BASIS_SCF
    atoms 1, 5, 8, 12, 16, 19, 23-28     entry C          line   145 file /home/junteng/Softwares/psi4conda/share/psi4/basis/jun-cc-pvdz-jkfit.gbs 
    atoms 2-4, 9-11, 13-15, 20-22, 30-35 entry H          line    69 file /home/junteng/Softwares/psi4conda/share/psi4/basis/jun-cc-pvdz-jkfit.gbs 
    atoms 6-7, 17-18, 29                 entry O          line   257 file /home/junteng/Softwares/psi4conda/share/psi4/basis/jun-cc-pvdz-jkfit.gbs 

  ==> Pre-Iterations <==

   -------------------------------------------------------
    Irrep   Nso     Nmo     Nalpha   Nbeta   Ndocc  Nsocc
   -------------------------------------------------------
     A        396     396       0       0       0       0
   -------------------------------------------------------
    Total     396     396      65      65      65       0
   -------------------------------------------------------

  ==> Integral Setup <==

  ==> DFJK: Density-Fitted J/K Matrices <==

    J tasked:                  Yes
    K tasked:                  Yes
    wK tasked:                  No
    OpenMP threads:              4
    Integrals threads:           4
    Memory (MB):            536441
    Algorithm:                Core
    Integral Cache:           NONE
    Schwarz Cutoff:          1E-12
    Fitting Condition:       1E-12

   => Auxiliary Basis Set <=

  Basis Set: (JUN-CC-PVDZ AUX)
    Blend: JUN-CC-PVDZ-JKFIT
    Number of shells: 621
    Number of basis function: 1757
    Number of Cartesian functions: 1997
    Spherical Harmonics?: true
    Max angular momentum: 3

  Minimum eigenvalue in the overlap matrix is 7.5359877133E-06.
  Using Symmetric Orthogonalization.

  SCF Guess: Superposition of Atomic Densities via on-the-fly atomic UHF.

  ==> Iterations <==

                           Total Energy        Delta E     RMS |[F,P]|

   @DF-RHF iter   0:  -847.56923471678419   -8.47569e+02   4.03737e-02 
   @DF-RHF iter   1:  -838.63166381485109    8.93757e+00   5.31233e-03 
   @DF-RHF iter   2:  -839.06773334349691   -4.36070e-01   3.73110e-03 DIIS
   @DF-RHF iter   3:  -839.28309125531507   -2.15358e-01   8.11810e-04 DIIS
   @DF-RHF iter   4:  -839.30191073465323   -1.88195e-02   2.95664e-04 DIIS
   @DF-RHF iter   5:  -839.30426125048689   -2.35052e-03   8.86851e-05 DIIS
   @DF-RHF iter   6:  -839.30454210145842   -2.80851e-04   3.74511e-05 DIIS
   @DF-RHF iter   7:  -839.30459601509494   -5.39136e-05   1.18723e-05 DIIS
   @DF-RHF iter   8:  -839.30460360512518   -7.59003e-06   4.76597e-06 DIIS
   @DF-RHF iter   9:  -839.30460478729537   -1.18217e-06   1.80887e-06 DIIS
   @DF-RHF iter  10:  -839.30460494141721   -1.54122e-07   5.91630e-07 DIIS
   @DF-RHF iter  11:  -839.30460495851014   -1.70929e-08   2.10759e-07 DIIS
   @DF-RHF iter  12:  -839.30460496082378   -2.31364e-09   9.11890e-08 DIIS
   @DF-RHF iter  13:  -839.30460496128319   -4.59409e-10   4.07751e-08 DIIS
   @DF-RHF iter  14:  -839.30460496138971   -1.06525e-10   1.76321e-08 DIIS
   @DF-RHF iter  15:  -839.30460496140813   -1.84173e-11   7.14670e-09 DIIS

  ==> Post-Iterations <==

    Orbital Energies (a.u.)
    -----------------------

    Doubly Occupied:                                                      

       1A    -20.617610     2A    -20.600700     3A    -20.563392  
       4A    -20.556729     5A    -20.548249     6A    -11.397009  
       7A    -11.385208     8A    -11.304121     9A    -11.303245  
      10A    -11.300824    11A    -11.291230    12A    -11.269406  
      13A    -11.262213    14A    -11.239554    15A    -11.237176  
      16A    -11.229687    17A    -11.224498    18A     -1.474972  
      19A     -1.459790    20A     -1.403472    21A     -1.369758  
      22A     -1.358046    23A     -1.113673    24A     -1.077337  
      25A     -1.050582    26A     -0.992699    27A     -0.977878  
      28A     -0.970535    29A     -0.916401    30A     -0.875908  
      31A     -0.813885    32A     -0.786333    33A     -0.771314  
      34A     -0.765852    35A     -0.708081    36A     -0.698504  
      37A     -0.693049    38A     -0.674800    39A     -0.671209  
      40A     -0.663161    41A     -0.655874    42A     -0.646255  
      43A     -0.625948    44A     -0.604331    45A     -0.588578  
      46A     -0.582335    47A     -0.567595    48A     -0.564309  
      49A     -0.560210    50A     -0.547701    51A     -0.546727  
      52A     -0.531351    53A     -0.526224    54A     -0.510836  
      55A     -0.506934    56A     -0.501000    57A     -0.498718  
      58A     -0.483116    59A     -0.476474    60A     -0.470726  
      61A     -0.464339    62A     -0.453921    63A     -0.446041  
      64A     -0.427303    65A     -0.420932  

    Virtual:                                                              

      66A      0.049377    67A      0.053180    68A      0.057905  
      69A      0.065237    70A      0.071569    71A      0.077292  
      72A      0.082515    73A      0.094821    74A      0.098366  
      75A      0.102238    76A      0.107224    77A      0.111547  
      78A      0.117826    79A      0.123306    80A      0.126156  
      81A      0.130957    82A      0.134362    83A      0.138577  
      84A      0.147378    85A      0.154253    86A      0.154878  
      87A      0.160310    88A      0.167570    89A      0.170098  
      90A      0.174730    91A      0.178313    92A      0.182034  
      93A      0.185357    94A      0.188081    95A      0.204423  
      96A      0.210190    97A      0.212565    98A      0.215116  
      99A      0.221159   100A      0.228635   101A      0.229966  
     102A      0.232836   103A      0.241021   104A      0.244890  
     105A      0.250170   106A      0.252348   107A      0.255237  
     108A      0.259602   109A      0.265633   110A      0.270898  
     111A      0.276460   112A      0.277559   113A      0.292558  
     114A      0.296674   115A      0.300902   116A      0.306221  
     117A      0.314735   118A      0.319006   119A      0.326024  
     120A      0.332933   121A      0.339831   122A      0.344084  
     123A      0.350072   124A      0.356716   125A      0.359321  
     126A      0.363000   127A      0.366523   128A      0.371388  
     129A      0.375963   130A      0.383594   131A      0.386134  
     132A      0.395253   133A      0.397512   134A      0.398717  
     135A      0.408043   136A      0.412708   137A      0.417933  
     138A      0.418582   139A      0.420534   140A      0.424300  
     141A      0.431532   142A      0.435931   143A      0.446720  
     144A      0.452508   145A      0.461879   146A      0.468356  
     147A      0.471121   148A      0.475916   149A      0.479204  
     150A      0.490203   151A      0.496572   152A      0.507343  
     153A      0.508421   154A      0.515046   155A      0.523243  
     156A      0.525833   157A      0.532536   158A      0.538344  
     159A      0.547933   160A      0.552975   161A      0.565897  
     162A      0.570756   163A      0.591071   164A      0.601507  
     165A      0.605639   166A      0.621536   167A      0.632721  
     168A      0.649726   169A      0.683218   170A      0.691365  
     171A      0.734693   172A      0.746441   173A      0.776108  
     174A      0.783642   175A      0.792358   176A      0.803643  
     177A      0.814930   178A      0.818176   179A      0.841764  
     180A      0.856523   181A      0.858819   182A      0.870976  
     183A      0.878557   184A      0.885927   185A      0.896680  
     186A      0.900954   187A      0.911184   188A      0.915898  
     189A      0.922339   190A      0.925430   191A      0.928446  
     192A      0.937976   193A      0.941420   194A      0.949093  
     195A      0.954048   196A      0.958618   197A      0.964564  
     198A      0.967508   199A      0.973227   200A      0.975682  
     201A      0.981893   202A      0.993559   203A      0.997930  
     204A      1.000173   205A      1.009158   206A      1.015802  
     207A      1.022914   208A      1.039222   209A      1.045011  
     210A      1.050153   211A      1.067566   212A      1.069984  
     213A      1.077908   214A      1.082352   215A      1.098354  
     216A      1.102414   217A      1.109597   218A      1.121893  
     219A      1.133233   220A      1.133972   221A      1.145616  
     222A      1.170783   223A      1.179818   224A      1.185732  
     225A      1.226327   226A      1.233564   227A      1.255326  
     228A      1.281452   229A      1.292313   230A      1.295003  
     231A      1.320645   232A      1.338669   233A      1.349276  
     234A      1.371383   235A      1.419640   236A      1.430103  
     237A      1.455331   238A      1.468209   239A      1.478101  
     240A      1.487302   241A      1.498009   242A      1.504239  
     243A      1.522740   244A      1.533375   245A      1.541930  
     246A      1.561668   247A      1.565971   248A      1.570916  
     249A      1.583371   250A      1.598926   251A      1.611657  
     252A      1.613624   253A      1.636697   254A      1.641542  
     255A      1.653213   256A      1.666352   257A      1.666655  
     258A      1.674011   259A      1.688819   260A      1.697621  
     261A      1.707137   262A      1.711185   263A      1.718488  
     264A      1.732053   265A      1.744994   266A      1.759684  
     267A      1.771650   268A      1.791151   269A      1.803803  
     270A      1.816433   271A      1.827049   272A      1.836587  
     273A      1.864187   274A      1.866251   275A      1.874171  
     276A      1.883940   277A      1.891249   278A      1.910810  
     279A      1.916076   280A      1.939015   281A      1.945241  
     282A      1.950026   283A      1.962002   284A      1.964381  
     285A      1.971882   286A      1.977777   287A      1.985031  
     288A      2.006274   289A      2.008871   290A      2.016715  
     291A      2.021622   292A      2.033471   293A      2.037464  
     294A      2.048499   295A      2.055794   296A      2.062180  
     297A      2.063489   298A      2.067021   299A      2.079575  
     300A      2.095883   301A      2.100994   302A      2.106637  
     303A      2.118045   304A      2.125176   305A      2.136169  
     306A      2.145612   307A      2.163236   308A      2.172149  
     309A      2.180352   310A      2.186512   311A      2.198450  
     312A      2.206881   313A      2.221326   314A      2.238967  
     315A      2.261673   316A      2.272266   317A      2.285451  
     318A      2.313963   319A      2.320642   320A      2.334139  
     321A      2.340840   322A      2.356078   323A      2.367309  
     324A      2.376021   325A      2.380026   326A      2.382901  
     327A      2.392738   328A      2.409811   329A      2.427880  
     330A      2.434307   331A      2.445374   332A      2.451671  
     333A      2.461034   334A      2.482147   335A      2.493020  
     336A      2.530843   337A      2.533814   338A      2.555385  
     339A      2.586685   340A      2.608361   341A      2.624213  
     342A      2.636509   343A      2.659859   344A      2.680943  
     345A      2.716630   346A      2.732013   347A      2.757238  
     348A      2.763139   349A      2.775278   350A      2.792501  
     351A      2.797772   352A      2.803400   353A      2.828759  
     354A      2.843091   355A      2.857896   356A      2.864942  
     357A      2.874923   358A      2.877922   359A      2.883490  
     360A      2.889994   361A      2.898151   362A      2.916822  
     363A      2.923962   364A      2.942815   365A      2.965780  
     366A      2.975007   367A      2.990529   368A      3.021219  
     369A      3.029223   370A      3.045237   371A      3.057666  
     372A      3.119217   373A      3.138747   374A      3.176830  
     375A      3.248676   376A      3.275504   377A      3.299508  
     378A      3.327537   379A      3.362216   380A      3.393412  
     381A      3.411203   382A      3.439888   383A      3.538976  
     384A      3.545744   385A      3.578062   386A      3.582161  
     387A      3.680035   388A      3.695288   389A      3.740018  
     390A      3.778670   391A      3.838701   392A      3.910999  
     393A      3.941961   394A      3.967809   395A      4.072679  
     396A      4.107979  

    Final Occupation by Irrep:
              A 
    DOCC [    65 ]

  Energy converged.

  @DF-RHF Final Energy:  -839.30460496140813

   => Energetics <=

    Nuclear Repulsion Energy =           1404.9445749452170276
    One-Electron Energy =               -3940.8466293790070267
    Two-Electron Energy =                1696.5974494723818680
    DFT Exchange-Correlation Energy =       0.0000000000000000
    Empirical Dispersion Energy =           0.0000000000000000
    PCM Polarization Energy =               0.0000000000000000
    EFP Energy =                            0.0000000000000000
    Total Energy =                       -839.3046049614081312



Properties will be evaluated at   0.000000,   0.000000,   0.000000 Bohr

Properties computed using the SCF density matrix

  Nuclear Dipole Moment: (a.u.)
     X:     2.1522      Y:    -0.7368      Z:    -1.9171

  Electronic Dipole Moment: (a.u.)
     X:    -1.9251      Y:     0.5912      Z:     1.6768

  Dipole Moment: (a.u.)
     X:     0.2271      Y:    -0.1456      Z:    -0.2402     Total:     0.3612

  Dipole Moment: (Debye)
     X:     0.5772      Y:    -0.3700      Z:    -0.6106     Total:     0.9181


*** tstop() called on ThinkPad-P50 at Mon Jan 15 18:10:00 2018
Module time:
	user time   =     193.71 seconds =       3.23 minutes
	system time =       0.89 seconds =       0.01 minutes
	total time  =         65 seconds =       1.08 minutes
Total time:
	user time   =     193.71 seconds =       3.23 minutes
	system time =       0.89 seconds =       0.01 minutes
	total time  =         65 seconds =       1.08 minutes
   => Loading Basis Set <=

    Name: (JUN-CC-PVDZ AUX)
    Role: JKFIT
    Keyword: DF_BASIS_SCF
    atoms 1, 5, 8, 12, 16, 19, 23-28     entry C          line   145 file /home/junteng/Softwares/psi4conda/share/psi4/basis/jun-cc-pvdz-jkfit.gbs 
    atoms 2-4, 9-11, 13-15, 20-22, 30-35 entry H          line    69 file /home/junteng/Softwares/psi4conda/share/psi4/basis/jun-cc-pvdz-jkfit.gbs 
    atoms 6-7, 17-18, 29                 entry O          line   257 file /home/junteng/Softwares/psi4conda/share/psi4/basis/jun-cc-pvdz-jkfit.gbs 

   => Loading Basis Set <=

    Name: (JUN-CC-PVDZ AUX)
    Role: RIFIT
    Keyword: DF_BASIS_SAPT
    atoms 1, 5, 8, 12, 16, 19, 23-28     entry C          line    99 file /home/junteng/Softwares/psi4conda/share/psi4/basis/jun-cc-pvdz-ri.gbs 
    atoms 2-4, 9-11, 13-15, 20-22, 30-35 entry H          line    29 file /home/junteng/Softwares/psi4conda/share/psi4/basis/jun-cc-pvdz-ri.gbs 
    atoms 6-7, 17-18, 29                 entry O          line   187 file /home/junteng/Softwares/psi4conda/share/psi4/basis/jun-cc-pvdz-ri.gbs 

   => Loading Basis Set <=

    Name: CC-PVTZ-MINAO
    Role: ORBITAL
    Keyword: BASIS
    atoms 1, 5, 8, 12, 16, 19, 23-28     entry C          line   130 file /home/junteng/Softwares/psi4conda/share/psi4/basis/cc-pvtz-minao.gbs 
    atoms 2-4, 9-11, 13-15, 20-22, 30-35 entry H          line    19 file /home/junteng/Softwares/psi4conda/share/psi4/basis/cc-pvtz-minao.gbs 
    atoms 6-7, 17-18, 29                 entry O          line   190 file /home/junteng/Softwares/psi4conda/share/psi4/basis/cc-pvtz-minao.gbs 


*** tstart() called on ThinkPad-P50
*** at Mon Jan 15 18:10:00 2018

	 --------------------------------------------
	                    FISAPT0                  
	                  Rob Parrish                
	 --------------------------------------------

    Do F-SAPT =         Yes
    Do Plot   =          No
    Memory    =      78.580 [GD]

  ==> Localization (IBO) <==

  ==> IBO Localizer 2 <==

    MinAO Basis = CC-PVTZ-MINAO
    Use Ghosts  =       FALSE
    Use Stars   =       FALSE
    Condition   =   1.000E-07
    Power       =           4
    Convergence =   1.000E-12
    Maxiter     =        1000

    @IBO Iter:                   Metric       Gradient
    @IBO    1:   2.0294809409479062E+00   2.324885E+00
    @IBO    2:   2.2449502249349362E+00   2.479997E+00
    @IBO    3:   2.3411825974355827E+00   1.132560E+00
    @IBO    4:   2.3575588295732062E+00   2.389293E-01
    @IBO    5:   2.3587149444413171E+00   1.134932E-02
    @IBO    6:   2.3587168927966835E+00   7.093658E-05
    @IBO    7:   2.3587168928609703E+00   1.155072E-06
    @IBO    8:   2.3587168928609845E+00   4.156757E-08
    @IBO    9:   2.3587168928609850E+00   1.902468E-09
    @IBO   10:   2.3587168928609850E+00   8.786658E-11
    @IBO   11:   2.3587168928609850E+00   4.070717E-12
    @IBO   12:   2.3587168928609850E+00   1.891453E-13

    IBO Localizer 2 converged.

  ==> Partitioning <==

   => Atomic Partitioning <= 

    Monomer A:   4 atoms
    Monomer B:   7 atoms
    Monomer C:  24 atoms

   => Link Bond Identification <=

    Link Bond Selection = AUTOMATIC

    Charge Completeness = 0.800

    Total Link Bonds = 2

    --------------------------
    N     Orb Type Aind1 Aind2
    --------------------------
    1      17   AC     1    25
    2      28   BC     5    23
    --------------------------

   => Link Bond Assignment <=

    Link Bond Assignment      = C

   => Partition Summary <=

    Monomer A:  0 charge,   8 protons,   8 electrons,   4 docc
    Monomer B:  0 charge,  30 protons,  30 electrons,  15 docc
    Monomer C:  0 charge,  92 protons,  92 electrons,  46 docc

  ==> Overlap Integrals <==

  ==> Kinetic Integrals <==

  ==> Nuclear Integrals <==

    Nuclear Repulsion Tot:   1.4049445749452184E+03 [Eh]

  ==> Coulomb Integrals <==

  ==> DFJK: Density-Fitted J/K Matrices <==

    J tasked:                  Yes
    K tasked:                  Yes
    wK tasked:                  No
    OpenMP threads:              4
    Integrals threads:           4
    Memory (MB):            643730
    Algorithm:                Core
    Integral Cache:           NONE
    Schwarz Cutoff:          1E-12
    Fitting Condition:       1E-12

   => Auxiliary Basis Set <=

  Basis Set: (JUN-CC-PVDZ AUX)
    Blend: JUN-CC-PVDZ-JKFIT
    Number of shells: 621
    Number of basis function: 1757
    Number of Cartesian functions: 1997
    Spherical Harmonics?: true
    Max angular momentum: 3

  ==> Relaxed SCF Equations <==

  ==> SCF A: <==

    Maxiter =          50
    E Tol   =   1.000E-06
    D Tol   =   1.000E-08

    Max DIIS Vectors = 5

    Iter   N:                        E          dE         |D|
    Iter   1:  -3.6249723400402885E+01  -3.625E+01   4.429E-04 
    Iter   2:  -3.6252123550489713E+01  -2.400E-03   4.731E-05 DIIS
    Iter   3:  -3.6252192585424439E+01  -6.903E-05   1.010E-05 DIIS
    Iter   4:  -3.6252197008926331E+01  -4.424E-06   2.656E-06 DIIS
    Iter   5:  -3.6252197290833884E+01  -2.819E-07   5.294E-07 DIIS
    Iter   6:  -3.6252197302829110E+01  -1.200E-08   7.122E-08 DIIS
    Iter   7:  -3.6252197303064200E+01  -2.351E-10   9.258E-09 DIIS

    FISAPTSCF Converged.

    Final SCF Energy:  -3.6252197303064200E+01 [Eh]

   => Occupied Orbital Energies <=

       1  -11.225220     2   -0.841554     3   -0.555170  
       4   -0.547618  

   => Virtual Orbital Energies <=

       5    0.028035     6    0.053797     7    0.056249  
       8    0.061293     9    0.070581    10    0.073862  
      11    0.082511    12    0.087070    13    0.095453  
      14    0.095899    15    0.102108    16    0.107874  
      17    0.115894    18    0.121494    19    0.125203  
      20    0.126297    21    0.129262    22    0.134758  
      23    0.139034    24    0.152010    25    0.155212  
      26    0.159127    27    0.163338    28    0.169836  
      29    0.173775    30    0.176168    31    0.182451  
      32    0.187154    33    0.192094    34    0.192555  
      35    0.203812    36    0.212886    37    0.216052  
      38    0.223504    39    0.226171    40    0.234040  
      41    0.235344    42    0.239101    43    0.247143  
      44    0.247812    45    0.252126    46    0.255951  
      47    0.261725    48    0.267468    49    0.274472  
      50    0.276605    51    0.278969    52    0.290718  
      53    0.296593    54    0.299353    55    0.305664  
      56    0.313718    57    0.319307    58    0.326997  
      59    0.328906    60    0.332348    61    0.339239  
      62    0.343085    63    0.353452    64    0.357817  
      65    0.359414    66    0.364388    67    0.370954  
      68    0.377565    69    0.378187    70    0.386309  
      71    0.390958    72    0.395333    73    0.409998  
      74    0.415567    75    0.418306    76    0.425458  
      77    0.428708    78    0.430825    79    0.436866  
      80    0.440861    81    0.444699    82    0.453948  
      83    0.458388    84    0.468787    85    0.469738  
      86    0.478163    87    0.488215    88    0.495325  
      89    0.497421    90    0.517286    91    0.522470  
      92    0.523686    93    0.531327    94    0.543875  
      95    0.553148    96    0.556716    97    0.560414  
      98    0.570667    99    0.582260   100    0.592182  
     101    0.604731   102    0.611577   103    0.617847  
     104    0.625062   105    0.636701   106    0.639246  
     107    0.649981   108    0.662327   109    0.678292  
     110    0.692271   111    0.705766   112    0.740231  
     113    0.756637   114    0.779467   115    0.795151  
     116    0.808636   117    0.815921   118    0.826794  
     119    0.849150   120    0.868934   121    0.871433  
     122    0.883710   123    0.886758   124    0.894559  
     125    0.910185   126    0.922077   127    0.925210  
     128    0.928726   129    0.935015   130    0.947285  
     131    0.953710   132    0.955187   133    0.967091  
     134    0.967704   135    0.972772   136    0.978138  
     137    0.980701   138    0.983857   139    0.990556  
     140    0.995078   141    0.995796   142    1.004632  
     143    1.023257   144    1.029536   145    1.032742  
     146    1.045993   147    1.052008   148    1.066264  
     149    1.072394   150    1.092680   151    1.098732  
     152    1.107344   153    1.112023   154    1.120709  
     155    1.123643   156    1.139898   157    1.149345  
     158    1.158635   159    1.165614   160    1.182200  
     161    1.188758   162    1.209446   163    1.237845  
     164    1.273162   165    1.280566   166    1.285701  
     167    1.318447   168    1.328396   169    1.346444  
     170    1.376168   171    1.388013   172    1.438559  
     173    1.457445   174    1.474708   175    1.498255  
     176    1.508546   177    1.522292   178    1.535404  
     179    1.548588   180    1.559604   181    1.575881  
     182    1.587696   183    1.593527   184    1.603478  
     185    1.615096   186    1.622293   187    1.629738  
     188    1.647598   189    1.652959   190    1.660568  
     191    1.670729   192    1.688203   193    1.704519  
     194    1.711722   195    1.714183   196    1.728337  
     197    1.751554   198    1.759613   199    1.762934  
     200    1.786919   201    1.800394   202    1.809915  
     203    1.812606   204    1.839559   205    1.843771  
     206    1.855160   207    1.871352   208    1.894146  
     209    1.901120   210    1.903997   211    1.924846  
     212    1.931933   213    1.944362   214    1.956737  
     215    1.969081   216    1.970359   217    1.973216  
     218    1.990970   219    1.999021   220    2.005142  
     221    2.014605   222    2.021713   223    2.027682  
     224    2.030183   225    2.050052   226    2.050458  
     227    2.063073   228    2.069278   229    2.076960  
     230    2.084391   231    2.099487   232    2.111607  
     233    2.116491   234    2.120812   235    2.134336  
     236    2.142087   237    2.155218   238    2.156020  
     239    2.164826   240    2.177683   241    2.181441  
     242    2.199968   243    2.208909   244    2.225312  
     245    2.243240   246    2.254452   247    2.262776  
     248    2.271136   249    2.279383   250    2.305717  
     251    2.313137   252    2.329810   253    2.336875  
     254    2.345754   255    2.356734   256    2.366176  
     257    2.382540   258    2.385220   259    2.388287  
     260    2.410882   261    2.414798   262    2.422002  
     263    2.432624   264    2.451258   265    2.461685  
     266    2.482131   267    2.490211   268    2.504133  
     269    2.525725   270    2.540020   271    2.548701  
     272    2.582395   273    2.598971   274    2.628982  
     275    2.632426   276    2.653337   277    2.664902  
     278    2.682520   279    2.694371   280    2.701211  
     281    2.721752   282    2.744498   283    2.759689  
     284    2.778684   285    2.785420   286    2.802242  
     287    2.808319   288    2.830195   289    2.843856  
     290    2.859527   291    2.868133   292    2.876321  
     293    2.880935   294    2.886621   295    2.893274  
     296    2.898922   297    2.907002   298    2.922188  
     299    2.930323   300    2.949662   301    2.962445  
     302    2.976448   303    3.010997   304    3.023908  
     305    3.041597   306    3.055292   307    3.079577  
     308    3.090776   309    3.147809   310    3.184942  
     311    3.280841   312    3.335843   313    3.387217  
     314    3.409979   315    3.443837   316    3.468062  
     317    3.561548   318    3.585224   319    3.626798  
     320    3.657660   321    3.687532   322    3.747685  
     323    3.788296   324    3.835238   325    3.930637  
     326    3.955073   327    4.006055   328    4.105290  
     329    4.138020   330    4.210327   331    4.435304  
     332    4.508485   333    4.534583   334    4.746385  
     335    4.943481   336    5.042469   337    5.065915  
     338    5.204242   339    5.325777   340    5.519021  
     341    5.575218   342    5.679810   343    5.828835  
     344    6.217310   345    6.355637   346    6.692604  
     347   13.374382   348   18.428020   349   33.415251  
     350   33.470606  

  ==> SCF B: <==

    Maxiter =          50
    E Tol   =   1.000E-06
    D Tol   =   1.000E-08

    Max DIIS Vectors = 5

    Iter   N:                        E          dE         |D|
    Iter   1:  -2.2439829773135949E+02  -2.244E+02   9.923E-04 
    Iter   2:  -2.2440833101386085E+02  -1.003E-02   9.771E-05 DIIS
    Iter   3:  -2.2440870389829402E+02  -3.729E-04   3.420E-05 DIIS
    Iter   4:  -2.2440873307943193E+02  -2.918E-05   1.848E-05 DIIS
    Iter   5:  -2.2440874000636910E+02  -6.927E-06   2.672E-06 DIIS
    Iter   6:  -2.2440874030192637E+02  -2.956E-07   1.261E-06 DIIS
    Iter   7:  -2.2440874033676545E+02  -3.484E-08   3.929E-07 DIIS
    Iter   8:  -2.2440874034205839E+02  -5.293E-09   1.237E-07 DIIS
    Iter   9:  -2.2440874034267335E+02  -6.150E-10   5.304E-08 DIIS
    Iter  10:  -2.2440874034279886E+02  -1.255E-10   2.164E-08 DIIS
    Iter  11:  -2.2440874034282240E+02  -2.353E-11   7.431E-09 DIIS

    FISAPTSCF Converged.

    Final SCF Energy:  -2.2440874034282240E+02 [Eh]

   => Occupied Orbital Energies <=

       1  -20.614575     2  -20.554177     3  -11.394929  
       4  -11.299218     5   -1.447984     6   -1.362895  
       7   -0.969181     8   -0.774016     9   -0.676636  
      10   -0.669329    11   -0.628835    12   -0.547855  
      13   -0.542205    14   -0.480133    15   -0.466749  

   => Virtual Orbital Energies <=

      16    0.016615    17    0.051362    18    0.055891  
      19    0.063274    20    0.070137    21    0.078019  
      22    0.081791    23    0.090342    24    0.095204  
      25    0.101544    26    0.107128    27    0.107671  
      28    0.112272    29    0.115814    30    0.123066  
      31    0.127943    32    0.130095    33    0.135172  
      34    0.140356    35    0.150017    36    0.154864  
      37    0.159587    38    0.162969    39    0.171294  
      40    0.174351    41    0.177392    42    0.180763  
      43    0.184867    44    0.186796    45    0.191019  
      46    0.205910    47    0.212496    48    0.216403  
      49    0.219603    50    0.223849    51    0.229210  
      52    0.231207    53    0.234928    54    0.241075  
      55    0.244522    56    0.252366    57    0.258049  
      58    0.262609    59    0.264758    60    0.274089  
      61    0.279583    62    0.282910    63    0.299165  
      64    0.302928    65    0.304921    66    0.307022  
      67    0.314436    68    0.318303    69    0.323313  
      70    0.337144    71    0.340350    72    0.343587  
      73    0.347446    74    0.353295    75    0.356636  
      76    0.366585    77    0.371154    78    0.375949  
      79    0.380592    80    0.383181    81    0.394038  
      82    0.398711    83    0.400520    84    0.405932  
      85    0.412060    86    0.415662    87    0.422992  
      88    0.425163    89    0.425682    90    0.433167  
      91    0.435913    92    0.444214    93    0.448490  
      94    0.455949    95    0.465991    96    0.469208  
      97    0.477687    98    0.479735    99    0.485088  
     100    0.497837   101    0.500059   102    0.513793  
     103    0.516744   104    0.522859   105    0.530478  
     106    0.536792   107    0.543021   108    0.547460  
     109    0.560068   110    0.565590   111    0.568564  
     112    0.582883   113    0.588623   114    0.605743  
     115    0.609297   116    0.622417   117    0.630054  
     118    0.640214   119    0.654750   120    0.673580  
     121    0.682823   122    0.711412   123    0.722137  
     124    0.755551   125    0.763321   126    0.797540  
     127    0.806432   128    0.814921   129    0.823086  
     130    0.831703   131    0.861742   132    0.864708  
     133    0.877983   134    0.887121   135    0.889957  
     136    0.902407   137    0.914483   138    0.920044  
     139    0.927261   140    0.931829   141    0.941266  
     142    0.946420   143    0.957584   144    0.961443  
     145    0.965146   146    0.973955   147    0.977147  
     148    0.982383   149    0.989121   150    0.994725  
     151    0.997614   152    1.005735   153    1.006433  
     154    1.017710   155    1.032601   156    1.035339  
     157    1.054268   158    1.065038   159    1.069858  
     160    1.076868   161    1.082435   162    1.098276  
     163    1.104264   164    1.111585   165    1.121691  
     166    1.133087   167    1.145886   168    1.151377  
     169    1.169911   170    1.177730   171    1.199078  
     172    1.227652   173    1.241661   174    1.258671  
     175    1.298412   176    1.303117   177    1.313744  
     178    1.347362   179    1.351281   180    1.378343  
     181    1.391310   182    1.413469   183    1.444223  
     184    1.452508   185    1.468021   186    1.484327  
     187    1.493881   188    1.503141   189    1.510647  
     190    1.517160   191    1.537072   192    1.546318  
     193    1.554429   194    1.561981   195    1.573249  
     196    1.584862   197    1.589138   198    1.605105  
     199    1.616384   200    1.628122   201    1.638872  
     202    1.643721   203    1.652935   204    1.667788  
     205    1.676151   206    1.683390   207    1.684603  
     208    1.691100   209    1.705742   210    1.712888  
     211    1.723244   212    1.738042   213    1.753757  
     214    1.767919   215    1.790526   216    1.797425  
     217    1.812031   218    1.821859   219    1.845263  
     220    1.857752   221    1.860126   222    1.873801  
     223    1.885853   224    1.903871   225    1.913821  
     226    1.923954   227    1.929619   228    1.942612  
     229    1.951807   230    1.958900   231    1.966958  
     232    1.972700   233    1.985829   234    1.990224  
     235    1.998240   236    2.003497   237    2.012476  
     238    2.017524   239    2.028053   240    2.033220  
     241    2.039948   242    2.046372   243    2.049893  
     244    2.063610   245    2.068993   246    2.074162  
     247    2.081938   248    2.093849   249    2.107130  
     250    2.125317   251    2.135941   252    2.140029  
     253    2.153915   254    2.155789   255    2.165183  
     256    2.167976   257    2.186465   258    2.196175  
     259    2.201285   260    2.222711   261    2.233001  
     262    2.266251   263    2.272529   264    2.277290  
     265    2.283543   266    2.308648   267    2.321392  
     268    2.336910   269    2.352803   270    2.364444  
     271    2.381023   272    2.387251   273    2.390232  
     274    2.405993   275    2.415529   276    2.422394  
     277    2.427924   278    2.440802   279    2.453761  
     280    2.458531   281    2.472599   282    2.495750  
     283    2.512095   284    2.531863   285    2.544246  
     286    2.562656   287    2.570679   288    2.597695  
     289    2.620025   290    2.626433   291    2.646212  
     292    2.666330   293    2.685747   294    2.693059  
     295    2.719931   296    2.735840   297    2.747030  
     298    2.774252   299    2.796554   300    2.799337  
     301    2.806850   302    2.824657   303    2.837630  
     304    2.844666   305    2.865496   306    2.875138  
     307    2.884073   308    2.888646   309    2.895034  
     310    2.905517   311    2.922189   312    2.939517  
     313    2.956569   314    2.973652   315    3.002720  
     316    3.006836   317    3.027361   318    3.043270  
     319    3.046611   320    3.073085   321    3.095115  
     322    3.125215   323    3.162218   324    3.190367  
     325    3.253911   326    3.280755   327    3.303977  
     328    3.332771   329    3.373309   330    3.406948  
     331    3.442957   332    3.456453   333    3.550607  
     334    3.577506   335    3.585129   336    3.593051  
     337    3.681681   338    3.699586   339    3.763108  
     340    3.784439   341    3.832690   342    3.923169  
     343    3.939872   344    3.948221   345    3.977395  
     346    4.074487   347    4.114494   348    4.539464  
     349    4.555868   350   13.293315  

  ==> Frozen Core <==


    ------------------
    Range      A     B
    ------------------
    nbf      396   396
    nmo      350   350
    nocc       4    15
    nvir     346   335
    nfocc      1     4
    naocc      3    11
    navir    346   335
    nfvir      0     0
    ------------------

  ==> Unification <==

  ==> dHF <==

    E ABC(HF) =  -8.3930460496140813E+02 [Eh]
    E AC(0)   =  -6.1126248887268434E+02 [Eh]
    E BC(0)   =  -7.9915297076783304E+02 [Eh]
    E A(0)    =  -2.5031498808244315E+01 [Eh]
    E B(0)    =  -2.1265105570465101E+02 [Eh]
    E AC(HF)  =  -6.1126001497002358E+02 [Eh]
    E BC(HF)  =  -7.9914252815637110E+02 [Eh]
    E AB(HF)  =  -2.3765081401933745E+02 [Eh]
    E A(HF)   =  -2.5017729479775475E+01 [Eh]
    E B(HF)   =  -2.1263291229697438E+02 [Eh]
    E C       =  -5.7109811040757245E+02 [Eh]
    E HF      =   1.2744271536803353E-02 [Eh]

  ==> Electrostatics <==

    Elst10,r            =     0.008926380160 [Eh]

  ==> Exchange <==

    Exch10(S^2)         =     0.005230423442 [Eh]
    Exch10              =     0.005246058849 [Eh]

  ==> Induction <==

    Ind20,u (A<-B)      =    -0.001254966426 [Eh]
    Ind20,u (B<-A)      =    -0.000754878291 [Eh]
    Ind20,u             =    -0.002009844717 [Eh]
    Exch-Ind20,u (A<-B) =     0.000527813728 [Eh]
    Exch-Ind20,u (B<-A) =     0.000534945357 [Eh]
    Exch-Ind20,u        =     0.001062759086 [Eh]

  ==> CPHF Iterations <==

    Maxiter     =          50
    Convergence =   1.000E-08

    -----------------------------------------
    Iter   Monomer A    Monomer B    Time [s]
    -----------------------------------------
    1      1.493E-01    2.536E-01           6
    2      2.680E-02    9.442E-02          12
    3      6.823E-03    2.132E-02          19
    4      9.257E-04    1.078E-02          25
    5      1.022E-04    3.858E-03          31
    6      1.537E-05    1.547E-03          38
    7      2.326E-06    4.046E-04          44
    8      3.425E-07    1.667E-04          50
    9      3.792E-08    4.753E-05          57
    10     3.480E-09*   1.669E-05          63
    11     3.480E-09*   4.669E-06          66
    12     3.480E-09*   9.809E-07          69
    13     3.480E-09*   1.973E-07          72
    14     3.480E-09*   4.657E-08          76
    15     3.480E-09*   9.892E-09*         79
    -----------------------------------------

    Ind20,r (A<-B)      =    -0.001465339025 [Eh]
    Ind20,r (B<-A)      =    -0.000907655930 [Eh]
    Ind20,r             =    -0.002372994955 [Eh]
    Exch-Ind20,r (A<-B) =     0.000633338927 [Eh]
    Exch-Ind20,r (B<-A) =     0.000701229190 [Eh]
    Exch-Ind20,r        =     0.001334568118 [Eh]

  ==> F-SAPT Localization (IBO) <==

  Local Orbitals for Monomer A:

  ==> IBO Localizer 2 <==

    MinAO Basis = CC-PVTZ-MINAO
    Use Ghosts  =       FALSE
    Use Stars   =       FALSE
    Condition   =   1.000E-07
    Power       =           4
    Convergence =   1.000E-12
    Maxiter     =        1000

    @IBO Iter:                   Metric       Gradient
    @IBO    1:   1.0650417325196424E+00   6.000465E-02
    @IBO    2:   1.0831186984475594E+00   2.796110E-02
    @IBO    3:   1.0836940433855364E+00   5.733087E-04
    @IBO    4:   1.0836942718283429E+00   1.049146E-07
    @IBO    5:   1.0836942718283507E+00   4.895413E-12
    @IBO    6:   1.0836942718283507E+00   3.658595E-15

    IBO Localizer 2 converged.

  Local Orbitals for Monomer B:

  ==> IBO Localizer 2 <==

    MinAO Basis = CC-PVTZ-MINAO
    Use Ghosts  =       FALSE
    Use Stars   =       FALSE
    Condition   =   1.000E-07
    Power       =           4
    Convergence =   1.000E-12
    Maxiter     =        1000

    @IBO Iter:                   Metric       Gradient
    @IBO    1:   1.4830881728646930E+00   1.675552E+00
    @IBO    2:   1.6761423437156100E+00   9.272453E-01
    @IBO    3:   1.7086455203423732E+00   3.718216E-01
    @IBO    4:   1.7104282221773937E+00   4.312605E-03
    @IBO    5:   1.7104287149086868E+00   1.311023E-04
    @IBO    6:   1.7104287151358930E+00   1.843569E-06
    @IBO    7:   1.7104287151359596E+00   5.554298E-08
    @IBO    8:   1.7104287151359598E+00   1.218048E-09
    @IBO    9:   1.7104287151359594E+00   2.945397E-11
    @IBO   10:   1.7104287151359594E+00   8.639900E-13

    IBO Localizer 2 converged.

  ==> F-SAPT Electrostatics <==

  ==> DFERI: Density Fitted 3-Index Tensors <==

    Schwarz cutoff =   0.000E+00
    J cutoff       =   1.000E-12
    Mem (GB)       =         628

   => Auxiliary Basis <=

  Basis Set: (JUN-CC-PVDZ AUX)
    Blend: JUN-CC-PVDZ-JKFIT
    Number of shells: 621
    Number of basis function: 1757
    Number of Cartesian functions: 1997
    Spherical Harmonics?: true
    Max angular momentum: 3

    Elst10,r            =     0.008926380224 [Eh]

  ==> F-SAPT Exchange <==

  ==> DFERI: Density Fitted 3-Index Tensors <==

    Schwarz cutoff =   0.000E+00
    J cutoff       =   1.000E-12
    Mem (GB)       =         628

   => Auxiliary Basis <=

  Basis Set: (JUN-CC-PVDZ AUX)
    Blend: JUN-CC-PVDZ-JKFIT
    Number of shells: 621
    Number of basis function: 1757
    Number of Cartesian functions: 1997
    Spherical Harmonics?: true
    Max angular momentum: 3

    Exch10(S^2)         =     0.005230423442 [Eh]

    Scaling F-SAPT Exch10(S^2) by   1.003E+00 to match Exch10

  ==> F-SAPT Induction <==

  ==> DFERI: Density Fitted 3-Index Tensors <==

    Schwarz cutoff =   0.000E+00
    J cutoff       =   1.000E-12
    Mem (GB)       =         628

   => Auxiliary Basis <=

  Basis Set: (JUN-CC-PVDZ AUX)
    Blend: JUN-CC-PVDZ-JKFIT
    Number of shells: 621
    Number of basis function: 1757
    Number of Cartesian functions: 1997
    Spherical Harmonics?: true
    Max angular momentum: 3

    Ind20,u (A<-B)      =    -0.001254966427 [Eh]
    Ind20,u (B<-A)      =    -0.000754878291 [Eh]
    Ind20,u             =    -0.002009844718 [Eh]
    Exch-Ind20,u (A<-B) =     0.000527813729 [Eh]
    Exch-Ind20,u (B<-A) =     0.000534945358 [Eh]
    Exch-Ind20,u        =     0.001062759086 [Eh]

    Scaling for delta HF        =   1.375E+00
    Scaling for response (A<-B) =   1.144E+00
    Scaling for response (B<-A) =   9.386E-01
    Scaling for total (A<-B)    =   1.574E+00
    Scaling for total (B<-A)    =   1.291E+00

  ==> F-SAPT Dispersion <==

  ==> DFERI: Density Fitted 3-Index Tensors <==

    Schwarz cutoff =   0.000E+00
    J cutoff       =   1.000E-12
    Mem (GB)       =         628

   => Auxiliary Basis <=

  Basis Set: (JUN-CC-PVDZ AUX)
    Blend: JUN-CC-PVDZ-RI
    Number of shells: 465
    Number of basis function: 1357
    Number of Cartesian functions: 1562
    Spherical Harmonics?: true
    Max angular momentum: 3

    Disp20              =    -0.002649193140 [Eh]
    Exch-Disp20         =     0.000386685882 [Eh]

  ==> F-SAPT Output <==

    F-SAPT Data Filepath = fsapt/

  ==> Results <==


    SAPT Results  
  --------------------------------------------------------------------------------------------------------
    Electrostatics                  8.92638016 [mEh]       5.60138835 [kcal/mol]      23.43621111 [kJ/mol]
      Elst10,r                      8.92638016 [mEh]       5.60138835 [kcal/mol]      23.43621111 [kJ/mol]

    Exchange                        5.24605885 [mEh]       3.29195177 [kcal/mol]      13.77352751 [kJ/mol]
      Exch10                        5.24605885 [mEh]       3.29195177 [kcal/mol]      13.77352751 [kJ/mol]
      Exch10(S^2)                   5.23042344 [mEh]       3.28214040 [kcal/mol]      13.73247675 [kJ/mol]

    Induction                      -1.42816747 [mEh]      -0.89618866 [kcal/mol]      -3.74965370 [kJ/mol]
      Ind20,r                      -2.37299496 [mEh]      -1.48907688 [kcal/mol]      -6.23029825 [kJ/mol]
      Exch-Ind20,r                  1.33456812 [mEh]       0.83745417 [kcal/mol]       3.50390859 [kJ/mol]
      delta HF,r (2)               -0.38974063 [mEh]      -0.24456595 [kcal/mol]      -1.02326404 [kJ/mol]
      Induction (A<-B)             -1.14426499 [mEh]      -0.71803715 [kcal/mol]      -3.00426773 [kJ/mol]
      Induction (B<-A)             -0.28390248 [mEh]      -0.17815150 [kcal/mol]      -0.74538596 [kJ/mol]

    Dispersion                     -2.26250726 [mEh]      -1.41974480 [kcal/mol]      -5.94021281 [kJ/mol]
      Disp20                       -2.64919314 [mEh]      -1.66239386 [kcal/mol]      -6.95545659 [kJ/mol]
      Exch-Disp20                   0.38668588 [mEh]       0.24264906 [kcal/mol]       1.01524378 [kJ/mol]

  Total HF                         12.74427154 [mEh]       7.99715146 [kcal/mol]      33.46008492 [kJ/mol]
  Total SAPT0                      10.48176428 [mEh]       6.57740666 [kcal/mol]      27.51987211 [kJ/mol]

  --------------------------------------------------------------------------------------------------------
    Han Solo: This is *not* gonna work.
    Luke Skywalker: Why didn't you say so before?
    Han Solo: I *did* say so before.

*** tstop() called on ThinkPad-P50 at Mon Jan 15 18:13:22 2018
Module time:
	user time   =     692.77 seconds =      11.55 minutes
	system time =       2.51 seconds =       0.04 minutes
	total time  =        202 seconds =       3.37 minutes
Total time:
	user time   =     887.65 seconds =      14.79 minutes
	system time =       3.40 seconds =       0.06 minutes
	total time  =        267 seconds =       4.45 minutes

*** Psi4 exiting successfully. Buy a developer a beer!
