
    -----------------------------------------------------------------------
          Psi4: An Open-Source Ab Initio Electronic Structure Package
                               Psi4 1.1 release

                         Git: Rev {HEAD} add49b9 


    R. M. Parrish, L. A. Burns, D. G. A. Smith, A. C. Simmonett,
    A. E. DePrince III, E. G. Hohenstein, U. Bozkaya, A. Yu. Sokolov,
    R. Di Remigio, R. M. Richard, J. F. Gonthier, A. M. James,
    H. R. McAlexander, A. Kumar, M. Saitow, X. Wang, B. P. Pritchard,
    P. Verma, H. F. Schaefer III, K. Patkowski, R. A. King, E. F. Valeev,
    F. A. Evangelista, J. M. Turney, T. D. Crawford, and C. D. Sherrill,
    J. Chem. Theory Comput. in press (2017).
    (doi: 10.1021/acs.jctc.7b00174)

    -----------------------------------------------------------------------


    Psi4 started on: Monday, 15 January 2018 06:18PM

    Process ID:  20283
    PSIDATADIR: /home/junteng/Softwares/psi4conda/share/psi4
    Memory:     500.0 MiB
    Threads:    4
    
  ==> Input File <==

--------------------------------------------------------------------------
memory 750000 mb

molecule mol {
0 1
C         -2.19239        2.18641       -0.11287
H         -1.48932        2.65631       -0.79855
H         -3.18392        2.19253       -0.57065
H         -2.23637        2.77386        0.80870
--
0 1
C          0.72431        1.49546        0.49714
O          1.52376        1.94221        1.28832
O          0.75351        1.75805       -0.81571
C          1.84256        2.57228       -1.28378
H          1.68367        2.67415       -2.35456
H          1.83178        3.54699       -0.79344
H          2.79483        2.07826       -1.08605
--
0 1
C         -1.15007       -2.35633       -1.45793
H         -0.35913       -2.08295       -2.15394
H         -0.88929       -3.30945       -0.98842
H         -2.08298       -2.49195       -2.00991
C          1.27189       -1.19180       -0.03155
O          1.61954       -1.12417       -1.18361
O          2.12096       -1.46760        0.98508
C          3.51182       -1.58970        0.63643
H          3.88556       -0.64080        0.24803
H          4.02065       -1.84659        1.56264
H          3.65281       -2.36984       -0.11271
C         -0.39824        0.55005        0.89674
C         -0.11835       -0.96151        0.53049
C         -1.78233        0.76264        0.19713
C         -2.83079       -0.04902        1.01422
C         -2.55151       -1.49776        0.54055
C         -1.33607       -1.28951       -0.40204
O         -1.64589       -0.01896       -0.99821
H         -0.47974        0.65973        1.97719
H         -0.17401       -1.55527        1.44239
H         -3.83801        0.27366        0.74483
H         -2.71306        0.08969        2.09096
H         -3.38808       -1.89373       -0.03795
H         -2.34057       -2.19651        1.35252

symmetry c1
no_reorient
no_com
}

set {
basis jun-cc-pvdz
scf_type df
guess sad
freeze_core true
}

energy('fisapt0')
--------------------------------------------------------------------------

  Memory set to 698.492 GiB by Python driver.

*** tstart() called on ThinkPad-P50
*** at Mon Jan 15 18:18:53 2018

   => Loading Basis Set <=

    Name: JUN-CC-PVDZ
    Role: ORBITAL
    Keyword: BASIS
    atoms 1, 5, 8, 12, 16, 19, 23-28     entry C          line   157 file /home/junteng/Softwares/psi4conda/share/psi4/basis/jun-cc-pvdz.gbs 
    atoms 2-4, 9-11, 13-15, 20-22, 30-35 entry H          line    35 file /home/junteng/Softwares/psi4conda/share/psi4/basis/jun-cc-pvdz.gbs 
    atoms 6-7, 17-18, 29                 entry O          line   225 file /home/junteng/Softwares/psi4conda/share/psi4/basis/jun-cc-pvdz.gbs 


         ---------------------------------------------------------
                                   SCF
            by Justin Turney, Rob Parrish, and Andy Simmonett
                              RHF Reference
                        4 Threads, 715255 MiB Core
         ---------------------------------------------------------

  ==> Geometry <==

    Molecular point group: c1
    Full point group: C1

    Geometry (in Angstrom), charge = 0, multiplicity = 1:

       Center              X                  Y                   Z               Mass       
    ------------   -----------------  -----------------  -----------------  -----------------
           C         -2.192390000000     2.186410000000    -0.112870000000    12.000000000000
           H         -1.489320000000     2.656310000000    -0.798550000000     1.007825032070
           H         -3.183920000000     2.192530000000    -0.570650000000     1.007825032070
           H         -2.236370000000     2.773860000000     0.808700000000     1.007825032070
           C          0.724310000000     1.495460000000     0.497140000000    12.000000000000
           O          1.523760000000     1.942210000000     1.288320000000    15.994914619560
           O          0.753510000000     1.758050000000    -0.815710000000    15.994914619560
           C          1.842560000000     2.572280000000    -1.283780000000    12.000000000000
           H          1.683670000000     2.674150000000    -2.354560000000     1.007825032070
           H          1.831780000000     3.546990000000    -0.793440000000     1.007825032070
           H          2.794830000000     2.078260000000    -1.086050000000     1.007825032070
           C         -1.150070000000    -2.356330000000    -1.457930000000    12.000000000000
           H         -0.359130000000    -2.082950000000    -2.153940000000     1.007825032070
           H         -0.889290000000    -3.309450000000    -0.988420000000     1.007825032070
           H         -2.082980000000    -2.491950000000    -2.009910000000     1.007825032070
           C          1.271890000000    -1.191800000000    -0.031550000000    12.000000000000
           O          1.619540000000    -1.124170000000    -1.183610000000    15.994914619560
           O          2.120960000000    -1.467600000000     0.985080000000    15.994914619560
           C          3.511820000000    -1.589700000000     0.636430000000    12.000000000000
           H          3.885560000000    -0.640800000000     0.248030000000     1.007825032070
           H          4.020650000000    -1.846590000000     1.562640000000     1.007825032070
           H          3.652810000000    -2.369840000000    -0.112710000000     1.007825032070
           C         -0.398240000000     0.550050000000     0.896740000000    12.000000000000
           C         -0.118350000000    -0.961510000000     0.530490000000    12.000000000000
           C         -1.782330000000     0.762640000000     0.197130000000    12.000000000000
           C         -2.830790000000    -0.049020000000     1.014220000000    12.000000000000
           C         -2.551510000000    -1.497760000000     0.540550000000    12.000000000000
           C         -1.336070000000    -1.289510000000    -0.402040000000    12.000000000000
           O         -1.645890000000    -0.018960000000    -0.998210000000    15.994914619560
           H         -0.479740000000     0.659730000000     1.977190000000     1.007825032070
           H         -0.174010000000    -1.555270000000     1.442390000000     1.007825032070
           H         -3.838010000000     0.273660000000     0.744830000000     1.007825032070
           H         -2.713060000000     0.089690000000     2.090960000000     1.007825032070
           H         -3.388080000000    -1.893730000000    -0.037950000000     1.007825032070
           H         -2.340570000000    -2.196510000000     1.352520000000     1.007825032070

  Running in c1 symmetry.

  Rotational constants: A =      0.02090  B =      0.01592  C =      0.01165 [cm^-1]
  Rotational constants: A =    626.52235  B =    477.41725  C =    349.40609 [MHz]
  Nuclear repulsion = 1402.929937938824878

  Charge       = 0
  Multiplicity = 1
  Electrons    = 130
  Nalpha       = 65
  Nbeta        = 65

  ==> Algorithm <==

  SCF Algorithm Type is DF.
  DIIS enabled.
  MOM disabled.
  Fractional occupation disabled.
  Guess Type is SAD.
  Energy threshold   = 1.00e-08
  Density threshold  = 1.00e-08
  Integral threshold = 0.00e+00

  ==> Primary Basis <==

  Basis Set: JUN-CC-PVDZ
    Blend: JUN-CC-PVDZ
    Number of shells: 190
    Number of basis function: 396
    Number of Cartesian functions: 413
    Spherical Harmonics?: true
    Max angular momentum: 2

   => Loading Basis Set <=

    Name: (JUN-CC-PVDZ AUX)
    Role: JKFIT
    Keyword: DF_BASIS_SCF
    atoms 1, 5, 8, 12, 16, 19, 23-28     entry C          line   145 file /home/junteng/Softwares/psi4conda/share/psi4/basis/jun-cc-pvdz-jkfit.gbs 
    atoms 2-4, 9-11, 13-15, 20-22, 30-35 entry H          line    69 file /home/junteng/Softwares/psi4conda/share/psi4/basis/jun-cc-pvdz-jkfit.gbs 
    atoms 6-7, 17-18, 29                 entry O          line   257 file /home/junteng/Softwares/psi4conda/share/psi4/basis/jun-cc-pvdz-jkfit.gbs 

  ==> Pre-Iterations <==

   -------------------------------------------------------
    Irrep   Nso     Nmo     Nalpha   Nbeta   Ndocc  Nsocc
   -------------------------------------------------------
     A        396     396       0       0       0       0
   -------------------------------------------------------
    Total     396     396      65      65      65       0
   -------------------------------------------------------

  ==> Integral Setup <==

  ==> DFJK: Density-Fitted J/K Matrices <==

    J tasked:                  Yes
    K tasked:                  Yes
    wK tasked:                  No
    OpenMP threads:              4
    Integrals threads:           4
    Memory (MB):            536441
    Algorithm:                Core
    Integral Cache:           NONE
    Schwarz Cutoff:          1E-12
    Fitting Condition:       1E-12

   => Auxiliary Basis Set <=

  Basis Set: (JUN-CC-PVDZ AUX)
    Blend: JUN-CC-PVDZ-JKFIT
    Number of shells: 621
    Number of basis function: 1757
    Number of Cartesian functions: 1997
    Spherical Harmonics?: true
    Max angular momentum: 3

  Minimum eigenvalue in the overlap matrix is 7.4582337405E-06.
  Using Symmetric Orthogonalization.

  SCF Guess: Superposition of Atomic Densities via on-the-fly atomic UHF.

  ==> Iterations <==

                           Total Energy        Delta E     RMS |[F,P]|

   @DF-RHF iter   0:  -847.13726440869834   -8.47137e+02   3.99646e-02 
   @DF-RHF iter   1:  -838.76649773670340    8.37077e+00   4.56493e-03 
   @DF-RHF iter   2:  -839.18176012395179   -4.15262e-01   2.54744e-03 DIIS
   @DF-RHF iter   3:  -839.28542188370807   -1.03662e-01   8.75093e-04 DIIS
   @DF-RHF iter   4:  -839.30383744402434   -1.84156e-02   2.41575e-04 DIIS
   @DF-RHF iter   5:  -839.30549250569516   -1.65506e-03   7.95740e-05 DIIS
   @DF-RHF iter   6:  -839.30571332459931   -2.20819e-04   3.13113e-05 DIIS
   @DF-RHF iter   7:  -839.30575338499807   -4.00604e-05   1.02762e-05 DIIS
   @DF-RHF iter   8:  -839.30576009970719   -6.71471e-06   4.43655e-06 DIIS
   @DF-RHF iter   9:  -839.30576134558316   -1.24588e-06   2.07774e-06 DIIS
   @DF-RHF iter  10:  -839.30576164428930   -2.98706e-07   8.74694e-07 DIIS
   @DF-RHF iter  11:  -839.30576169373671   -4.94474e-08   3.56132e-07 DIIS
   @DF-RHF iter  12:  -839.30576170327868   -9.54196e-09   1.13288e-07 DIIS
   @DF-RHF iter  13:  -839.30576170413542   -8.56744e-10   4.54313e-08 DIIS
   @DF-RHF iter  14:  -839.30576170424763   -1.12209e-10   1.86621e-08 DIIS
   @DF-RHF iter  15:  -839.30576170426298   -1.53477e-11   6.41220e-09 DIIS

  ==> Post-Iterations <==

    Orbital Energies (a.u.)
    -----------------------

    Doubly Occupied:                                                      

       1A    -20.610909     2A    -20.605218     3A    -20.560857  
       4A    -20.558173     5A    -20.555178     6A    -11.391865  
       7A    -11.388545     8A    -11.301938     9A    -11.299641  
      10A    -11.294525    11A    -11.290910    12A    -11.267108  
      13A    -11.266471    14A    -11.238164    15A    -11.236637  
      16A    -11.228044    17A    -11.221917    18A     -1.469015  
      19A     -1.463813    20A     -1.400082    21A     -1.367417  
      22A     -1.362689    23A     -1.114790    24A     -1.075913  
      25A     -1.050968    26A     -0.993886    27A     -0.976188  
      28A     -0.966106    29A     -0.910811    30A     -0.872953  
      31A     -0.818068    32A     -0.784779    33A     -0.767260  
      34A     -0.758806    35A     -0.710072    36A     -0.692432  
      37A     -0.690514    38A     -0.677800    39A     -0.673959  
      40A     -0.660015    41A     -0.656993    42A     -0.647841  
      43A     -0.623743    44A     -0.597713    45A     -0.589227  
      46A     -0.580560    47A     -0.574325    48A     -0.563690  
      49A     -0.558306    50A     -0.545026    51A     -0.541023  
      52A     -0.531772    53A     -0.526111    54A     -0.508243  
      55A     -0.506409    56A     -0.502935    57A     -0.495406  
      58A     -0.485024    59A     -0.475443    60A     -0.468146  
      61A     -0.466767    62A     -0.452771    63A     -0.446624  
      64A     -0.423859    65A     -0.422249  

    Virtual:                                                              

      66A      0.051109    67A      0.054668    68A      0.056769  
      69A      0.065894    70A      0.071756    71A      0.078269  
      72A      0.082776    73A      0.092684    74A      0.100425  
      75A      0.102250    76A      0.107218    77A      0.112871  
      78A      0.116953    79A      0.122607    80A      0.124436  
      81A      0.126542    82A      0.137311    83A      0.140098  
      84A      0.148090    85A      0.151227    86A      0.154563  
      87A      0.160485    88A      0.163109    89A      0.169772  
      90A      0.173826    91A      0.177638    92A      0.181964  
      93A      0.185825    94A      0.188476    95A      0.206833  
      96A      0.210404    97A      0.212200    98A      0.217581  
      99A      0.224071   100A      0.228229   101A      0.233756  
     102A      0.237196   103A      0.240752   104A      0.243296  
     105A      0.249829   106A      0.254330   107A      0.258409  
     108A      0.262115   109A      0.263946   110A      0.270826  
     111A      0.276048   112A      0.279155   113A      0.293523  
     114A      0.303889   115A      0.308909   116A      0.311550  
     117A      0.314849   118A      0.318211   119A      0.325047  
     120A      0.328468   121A      0.332977   122A      0.345032  
     123A      0.352176   124A      0.356317   125A      0.359421  
     126A      0.366354   127A      0.368954   128A      0.373434  
     129A      0.375887   130A      0.383397   131A      0.388381  
     132A      0.398173   133A      0.404826   134A      0.407530  
     135A      0.411121   136A      0.415399   137A      0.420039  
     138A      0.424292   139A      0.425953   140A      0.430757  
     141A      0.436084   142A      0.442312   143A      0.448332  
     144A      0.449834   145A      0.453995   146A      0.459224  
     147A      0.463343   148A      0.474910   149A      0.485710  
     150A      0.489339   151A      0.496717   152A      0.504706  
     153A      0.509880   154A      0.513782   155A      0.525940  
     156A      0.530653   157A      0.538980   158A      0.540358  
     159A      0.548709   160A      0.561532   161A      0.568419  
     162A      0.576153   163A      0.591496   164A      0.598565  
     165A      0.608982   166A      0.620179   167A      0.641039  
     168A      0.650246   169A      0.666563   170A      0.711879  
     171A      0.722848   172A      0.747848   173A      0.763435  
     174A      0.772941   175A      0.776444   176A      0.800928  
     177A      0.807379   178A      0.821230   179A      0.833837  
     180A      0.855891   181A      0.859293   182A      0.867527  
     183A      0.870119   184A      0.876772   185A      0.896661  
     186A      0.904163   187A      0.905540   188A      0.912178  
     189A      0.917411   190A      0.926304   191A      0.931300  
     192A      0.937012   193A      0.942967   194A      0.946972  
     195A      0.954389   196A      0.961758   197A      0.964341  
     198A      0.964729   199A      0.974807   200A      0.977279  
     201A      0.982622   202A      0.988126   203A      0.992327  
     204A      1.000871   205A      1.005102   206A      1.007629  
     207A      1.025105   208A      1.036403   209A      1.046035  
     210A      1.052863   211A      1.065377   212A      1.080237  
     213A      1.085589   214A      1.088309   215A      1.097893  
     216A      1.111950   217A      1.116823   218A      1.120799  
     219A      1.125029   220A      1.136633   221A      1.138187  
     222A      1.163824   223A      1.182549   224A      1.205500  
     225A      1.228251   226A      1.247012   227A      1.258836  
     228A      1.274491   229A      1.286057   230A      1.313908  
     231A      1.325961   232A      1.343413   233A      1.356372  
     234A      1.381374   235A      1.431731   236A      1.437012  
     237A      1.447839   238A      1.469906   239A      1.477303  
     240A      1.488213   241A      1.507824   242A      1.512123  
     243A      1.531657   244A      1.545579   245A      1.557206  
     246A      1.560658   247A      1.579819   248A      1.584746  
     249A      1.596354   250A      1.608217   251A      1.618868  
     252A      1.624658   253A      1.636716   254A      1.651429  
     255A      1.658377   256A      1.671054   257A      1.677156  
     258A      1.684700   259A      1.691933   260A      1.697169  
     261A      1.703952   262A      1.712856   263A      1.717004  
     264A      1.733665   265A      1.741749   266A      1.752113  
     267A      1.758175   268A      1.780604   269A      1.798992  
     270A      1.814632   271A      1.825387   272A      1.834739  
     273A      1.841504   274A      1.864440   275A      1.870260  
     276A      1.881583   277A      1.890662   278A      1.904284  
     279A      1.909363   280A      1.929703   281A      1.940977  
     282A      1.949467   283A      1.957127   284A      1.969344  
     285A      1.972297   286A      1.978257   287A      1.985006  
     288A      1.996535   289A      1.996964   290A      2.005429  
     291A      2.012730   292A      2.030573   293A      2.034406  
     294A      2.041313   295A      2.054152   296A      2.056941  
     297A      2.061656   298A      2.071551   299A      2.073449  
     300A      2.081335   301A      2.098972   302A      2.104984  
     303A      2.119490   304A      2.123572   305A      2.128446  
     306A      2.147517   307A      2.157866   308A      2.168444  
     309A      2.180876   310A      2.193889   311A      2.201654  
     312A      2.222293   313A      2.230407   314A      2.250282  
     315A      2.272017   316A      2.279577   317A      2.281257  
     318A      2.311132   319A      2.315172   320A      2.331424  
     321A      2.338391   322A      2.346026   323A      2.362542  
     324A      2.379218   325A      2.383794   326A      2.404884  
     327A      2.407639   328A      2.412254   329A      2.419986  
     330A      2.428784   331A      2.436444   332A      2.448308  
     333A      2.452873   334A      2.458460   335A      2.493983  
     336A      2.509141   337A      2.532661   338A      2.542307  
     339A      2.572038   340A      2.604886   341A      2.632119  
     342A      2.649384   343A      2.676875   344A      2.716240  
     345A      2.725305   346A      2.753608   347A      2.762651  
     348A      2.768491   349A      2.777924   350A      2.796652  
     351A      2.805578   352A      2.818477   353A      2.841106  
     354A      2.848766   355A      2.855815   356A      2.869225  
     357A      2.876936   358A      2.885469   359A      2.885707  
     360A      2.891872   361A      2.902799   362A      2.921915  
     363A      2.928222   364A      2.945134   365A      2.962501  
     366A      2.988445   367A      2.996397   368A      3.017480  
     369A      3.041154   370A      3.053106   371A      3.062458  
     372A      3.116287   373A      3.131067   374A      3.175308  
     375A      3.262345   376A      3.269428   377A      3.295582  
     378A      3.335266   379A      3.351289   380A      3.410834  
     381A      3.418712   382A      3.431034   383A      3.537370  
     384A      3.565819   385A      3.592699   386A      3.620111  
     387A      3.698978   388A      3.706259   389A      3.741833  
     390A      3.776313   391A      3.825809   392A      3.917230  
     393A      3.953814   394A      3.979140   395A      4.088323  
     396A      4.158952  

    Final Occupation by Irrep:
              A 
    DOCC [    65 ]

  Energy converged.

  @DF-RHF Final Energy:  -839.30576170426298

   => Energetics <=

    Nuclear Repulsion Energy =           1402.9299379388248781
    One-Electron Energy =               -3936.9421221095608416
    Two-Electron Energy =                1694.7064224664729863
    DFT Exchange-Correlation Energy =       0.0000000000000000
    Empirical Dispersion Energy =           0.0000000000000000
    PCM Polarization Energy =               0.0000000000000000
    EFP Energy =                            0.0000000000000000
    Total Energy =                       -839.3057617042629772



Properties will be evaluated at   0.000000,   0.000000,   0.000000 Bohr

Properties computed using the SCF density matrix

  Nuclear Dipole Moment: (a.u.)
     X:    -0.7278      Y:    -1.7733      Z:    -0.6137

  Electronic Dipole Moment: (a.u.)
     X:     0.3728      Y:     1.3953      Z:     1.0601

  Dipole Moment: (a.u.)
     X:    -0.3550      Y:    -0.3780      Z:     0.4464     Total:     0.6843

  Dipole Moment: (Debye)
     X:    -0.9024      Y:    -0.9609      Z:     1.1346     Total:     1.7392


*** tstop() called on ThinkPad-P50 at Mon Jan 15 18:20:01 2018
Module time:
	user time   =     199.19 seconds =       3.32 minutes
	system time =       0.91 seconds =       0.02 minutes
	total time  =         68 seconds =       1.13 minutes
Total time:
	user time   =     199.19 seconds =       3.32 minutes
	system time =       0.91 seconds =       0.02 minutes
	total time  =         68 seconds =       1.13 minutes
   => Loading Basis Set <=

    Name: (JUN-CC-PVDZ AUX)
    Role: JKFIT
    Keyword: DF_BASIS_SCF
    atoms 1, 5, 8, 12, 16, 19, 23-28     entry C          line   145 file /home/junteng/Softwares/psi4conda/share/psi4/basis/jun-cc-pvdz-jkfit.gbs 
    atoms 2-4, 9-11, 13-15, 20-22, 30-35 entry H          line    69 file /home/junteng/Softwares/psi4conda/share/psi4/basis/jun-cc-pvdz-jkfit.gbs 
    atoms 6-7, 17-18, 29                 entry O          line   257 file /home/junteng/Softwares/psi4conda/share/psi4/basis/jun-cc-pvdz-jkfit.gbs 

   => Loading Basis Set <=

    Name: (JUN-CC-PVDZ AUX)
    Role: RIFIT
    Keyword: DF_BASIS_SAPT
    atoms 1, 5, 8, 12, 16, 19, 23-28     entry C          line    99 file /home/junteng/Softwares/psi4conda/share/psi4/basis/jun-cc-pvdz-ri.gbs 
    atoms 2-4, 9-11, 13-15, 20-22, 30-35 entry H          line    29 file /home/junteng/Softwares/psi4conda/share/psi4/basis/jun-cc-pvdz-ri.gbs 
    atoms 6-7, 17-18, 29                 entry O          line   187 file /home/junteng/Softwares/psi4conda/share/psi4/basis/jun-cc-pvdz-ri.gbs 

   => Loading Basis Set <=

    Name: CC-PVTZ-MINAO
    Role: ORBITAL
    Keyword: BASIS
    atoms 1, 5, 8, 12, 16, 19, 23-28     entry C          line   130 file /home/junteng/Softwares/psi4conda/share/psi4/basis/cc-pvtz-minao.gbs 
    atoms 2-4, 9-11, 13-15, 20-22, 30-35 entry H          line    19 file /home/junteng/Softwares/psi4conda/share/psi4/basis/cc-pvtz-minao.gbs 
    atoms 6-7, 17-18, 29                 entry O          line   190 file /home/junteng/Softwares/psi4conda/share/psi4/basis/cc-pvtz-minao.gbs 


*** tstart() called on ThinkPad-P50
*** at Mon Jan 15 18:20:01 2018

	 --------------------------------------------
	                    FISAPT0                  
	                  Rob Parrish                
	 --------------------------------------------

    Do F-SAPT =         Yes
    Do Plot   =          No
    Memory    =      78.580 [GD]

  ==> Localization (IBO) <==

  ==> IBO Localizer 2 <==

    MinAO Basis = CC-PVTZ-MINAO
    Use Ghosts  =       FALSE
    Use Stars   =       FALSE
    Condition   =   1.000E-07
    Power       =           4
    Convergence =   1.000E-12
    Maxiter     =        1000

    @IBO Iter:                   Metric       Gradient
    @IBO    1:   1.9898151211271067E+00   2.863485E+00
    @IBO    2:   2.2527810904236389E+00   2.455292E+00
    @IBO    3:   2.3453483460756894E+00   1.088376E+00
    @IBO    4:   2.3579479308184768E+00   1.695992E-01
    @IBO    5:   2.3584455329390668E+00   6.095948E-03
    @IBO    6:   2.3584461679369841E+00   5.139506E-05
    @IBO    7:   2.3584461679697446E+00   1.342189E-06
    @IBO    8:   2.3584461679697690E+00   6.307135E-08
    @IBO    9:   2.3584461679697690E+00   2.990277E-09
    @IBO   10:   2.3584461679697690E+00   1.376840E-10
    @IBO   11:   2.3584461679697686E+00   6.264038E-12
    @IBO   12:   2.3584461679697686E+00   2.866720E-13

    IBO Localizer 2 converged.

  ==> Partitioning <==

   => Atomic Partitioning <= 

    Monomer A:   4 atoms
    Monomer B:   7 atoms
    Monomer C:  24 atoms

   => Link Bond Identification <=

    Link Bond Selection = AUTOMATIC

    Charge Completeness = 0.800

    Total Link Bonds = 2

    --------------------------
    N     Orb Type Aind1 Aind2
    --------------------------
    1      18   AC     1    25
    2      49   BC     5    23
    --------------------------

   => Link Bond Assignment <=

    Link Bond Assignment      = C

   => Partition Summary <=

    Monomer A:  0 charge,   8 protons,   8 electrons,   4 docc
    Monomer B:  0 charge,  30 protons,  30 electrons,  15 docc
    Monomer C:  0 charge,  92 protons,  92 electrons,  46 docc

  ==> Overlap Integrals <==

  ==> Kinetic Integrals <==

  ==> Nuclear Integrals <==

    Nuclear Repulsion Tot:   1.4029299379388240E+03 [Eh]

  ==> Coulomb Integrals <==

  ==> DFJK: Density-Fitted J/K Matrices <==

    J tasked:                  Yes
    K tasked:                  Yes
    wK tasked:                  No
    OpenMP threads:              4
    Integrals threads:           4
    Memory (MB):            643730
    Algorithm:                Core
    Integral Cache:           NONE
    Schwarz Cutoff:          1E-12
    Fitting Condition:       1E-12

   => Auxiliary Basis Set <=

  Basis Set: (JUN-CC-PVDZ AUX)
    Blend: JUN-CC-PVDZ-JKFIT
    Number of shells: 621
    Number of basis function: 1757
    Number of Cartesian functions: 1997
    Spherical Harmonics?: true
    Max angular momentum: 3

  ==> Relaxed SCF Equations <==

  ==> SCF A: <==

    Maxiter =          50
    E Tol   =   1.000E-06
    D Tol   =   1.000E-08

    Max DIIS Vectors = 5

    Iter   N:                        E          dE         |D|
    Iter   1:  -3.6193942674964141E+01  -3.619E+01   4.575E-04 
    Iter   2:  -3.6196182233986455E+01  -2.240E-03   4.494E-05 DIIS
    Iter   3:  -3.6196242273589149E+01  -6.004E-05   9.372E-06 DIIS
    Iter   4:  -3.6196246255971644E+01  -3.982E-06   2.569E-06 DIIS
    Iter   5:  -3.6196246515563608E+01  -2.596E-07   4.909E-07 DIIS
    Iter   6:  -3.6196246526198280E+01  -1.063E-08   6.686E-08 DIIS
    Iter   7:  -3.6196246526393523E+01  -1.952E-10   9.768E-09 DIIS

    FISAPTSCF Converged.

    Final SCF Energy:  -3.6196246526393523E+01 [Eh]

   => Occupied Orbital Energies <=

       1  -11.218848     2   -0.835560     3   -0.547263  
       4   -0.543746  

   => Virtual Orbital Energies <=

       5    0.032697     6    0.055179     7    0.056995  
       8    0.063627     9    0.067488    10    0.074601  
      11    0.082574    12    0.086553    13    0.096247  
      14    0.098879    15    0.102403    16    0.104018  
      17    0.115137    18    0.117715    19    0.121827  
      20    0.126191    21    0.128566    22    0.137249  
      23    0.142594    24    0.147342    25    0.151241  
      26    0.161620    27    0.167222    28    0.169622  
      29    0.175484    30    0.180691    31    0.184535  
      32    0.189537    33    0.195631    34    0.202077  
      35    0.207001    36    0.214494    37    0.217399  
      38    0.218982    39    0.225632    40    0.232896  
      41    0.237006    42    0.241340    43    0.247468  
      44    0.252758    45    0.255772    46    0.258921  
      47    0.264622    48    0.266733    49    0.272194  
      50    0.276192    51    0.284594    52    0.289672  
      53    0.295815    54    0.301484    55    0.308849  
      56    0.314846    57    0.320100    58    0.323266  
      59    0.329550    60    0.337914    61    0.347477  
      62    0.350656    63    0.351344    64    0.359458  
      65    0.368233    66    0.371636    67    0.380560  
      68    0.381806    69    0.385057    70    0.388683  
      71    0.394345    72    0.397411    73    0.398597  
      74    0.408114    75    0.415158    76    0.422837  
      77    0.426234    78    0.432918    79    0.435107  
      80    0.440040    81    0.449045    82    0.451109  
      83    0.457818    84    0.460808    85    0.465938  
      86    0.484504    87    0.488261    88    0.497361  
      89    0.501792    90    0.512716    91    0.522824  
      92    0.524385    93    0.530293    94    0.536796  
      95    0.543751    96    0.548327    97    0.556850  
      98    0.572308    99    0.576228   100    0.595207  
     101    0.607072   102    0.616280   103    0.621349  
     104    0.627020   105    0.637901   106    0.640161  
     107    0.657463   108    0.663563   109    0.690474  
     110    0.712622   111    0.720426   112    0.745258  
     113    0.762948   114    0.784975   115    0.792963  
     116    0.796396   117    0.803272   118    0.828474  
     119    0.838894   120    0.861500   121    0.869904  
     122    0.875661   123    0.894890   124    0.900715  
     125    0.912159   126    0.920318   127    0.922462  
     128    0.928745   129    0.937114   130    0.944372  
     131    0.949099   132    0.953613   133    0.957580  
     134    0.964649   135    0.972179   136    0.979344  
     137    0.981191   138    0.987127   139    0.998177  
     140    1.005805   141    1.008029   142    1.016574  
     143    1.021795   144    1.035329   145    1.046756  
     146    1.062651   147    1.066065   148    1.078353  
     149    1.081865   150    1.091823   151    1.102329  
     152    1.104514   153    1.114040   154    1.121146  
     155    1.130196   156    1.139657   157    1.144012  
     158    1.155953   159    1.178075   160    1.183546  
     161    1.197705   162    1.205444   163    1.244653  
     164    1.245291   165    1.265785   166    1.291291  
     167    1.302105   168    1.350442   169    1.371323  
     170    1.388075   171    1.414566   172    1.417008  
     173    1.458264   174    1.477870   175    1.490581  
     176    1.509781   177    1.521599   178    1.531229  
     179    1.548530   180    1.559189   181    1.568376  
     182    1.584935   183    1.590361   184    1.599871  
     185    1.611920   186    1.621746   187    1.637354  
     188    1.655627   189    1.660706   190    1.669476  
     191    1.671823   192    1.686098   193    1.699587  
     194    1.705995   195    1.728700   196    1.734615  
     197    1.736604   198    1.754789   199    1.769986  
     200    1.798631   201    1.806321   202    1.817655  
     203    1.825104   204    1.829423   205    1.848201  
     206    1.858599   207    1.865238   208    1.884796  
     209    1.888945   210    1.895821   211    1.914511  
     212    1.928011   213    1.954109   214    1.955485  
     215    1.967866   216    1.975897   217    1.982921  
     218    1.984883   219    1.993447   220    2.004837  
     221    2.007716   222    2.015152   223    2.024239  
     224    2.034650   225    2.042659   226    2.048510  
     227    2.057432   228    2.083117   229    2.086961  
     230    2.100133   231    2.108508   232    2.113507  
     233    2.116808   234    2.125150   235    2.131613  
     236    2.137306   237    2.148547   238    2.159178  
     239    2.169693   240    2.173200   241    2.187097  
     242    2.191102   243    2.206337   244    2.211933  
     245    2.228868   246    2.259020   247    2.272748  
     248    2.290282   249    2.293745   250    2.301755  
     251    2.320202   252    2.327024   253    2.338299  
     254    2.349260   255    2.361198   256    2.376836  
     257    2.383311   258    2.391734   259    2.401887  
     260    2.413894   261    2.418789   262    2.426940  
     263    2.434621   264    2.452875   265    2.456229  
     266    2.483386   267    2.493867   268    2.508221  
     269    2.527370   270    2.536263   271    2.565483  
     272    2.572116   273    2.585842   274    2.631201  
     275    2.657615   276    2.663612   277    2.671029  
     278    2.696411   279    2.706191   280    2.720562  
     281    2.750104   282    2.759460   283    2.764587  
     284    2.783291   285    2.791453   286    2.800548  
     287    2.810663   288    2.835956   289    2.857393  
     290    2.868087   291    2.873999   292    2.882504  
     293    2.890926   294    2.894141   295    2.899291  
     296    2.904500   297    2.919405   298    2.922966  
     299    2.943429   300    2.956589   301    2.965403  
     302    2.996879   303    3.005461   304    3.027080  
     305    3.035303   306    3.043127   307    3.083879  
     308    3.121423   309    3.126747   310    3.193475  
     311    3.268208   312    3.323446   313    3.381263  
     314    3.419953   315    3.440261   316    3.454331  
     317    3.556403   318    3.601163   319    3.642422  
     320    3.680129   321    3.761169   322    3.774742  
     323    3.795041   324    3.873593   325    3.940804  
     326    3.983424   327    4.004936   328    4.128844  
     329    4.145181   330    4.224764   331    4.453926  
     332    4.524525   333    4.554780   334    4.759114  
     335    4.943680   336    5.051101   337    5.078718  
     338    5.244826   339    5.348005   340    5.528091  
     341    5.628188   342    5.752795   343    5.836256  
     344    6.163539   345    6.380279   346    6.703117  
     347   13.390333   348   18.437287   349   33.423992  
     350   33.491832  

  ==> SCF B: <==

    Maxiter =          50
    E Tol   =   1.000E-06
    D Tol   =   1.000E-08

    Max DIIS Vectors = 5

    Iter   N:                        E          dE         |D|
    Iter   1:  -2.2406303068749264E+02  -2.241E+02   9.949E-04 
    Iter   2:  -2.2407219476052416E+02  -9.164E-03   9.079E-05 DIIS
    Iter   3:  -2.2407246709761480E+02  -2.723E-04   2.652E-05 DIIS
    Iter   4:  -2.2407248444107682E+02  -1.734E-05   1.607E-05 DIIS
    Iter   5:  -2.2407248854761988E+02  -4.107E-06   2.251E-06 DIIS
    Iter   6:  -2.2407248876863247E+02  -2.210E-07   1.067E-06 DIIS
    Iter   7:  -2.2407248879820111E+02  -2.957E-08   3.476E-07 DIIS
    Iter   8:  -2.2407248880280977E+02  -4.609E-09   1.324E-07 DIIS
    Iter   9:  -2.2407248880345503E+02  -6.453E-10   5.868E-08 DIIS
    Iter  10:  -2.2407248880360845E+02  -1.534E-10   2.176E-08 DIIS
    Iter  11:  -2.2407248880362735E+02  -1.890E-11   9.522E-09 DIIS

    FISAPTSCF Converged.

    Final SCF Energy:  -2.2407248880362735E+02 [Eh]

   => Occupied Orbital Energies <=

       1  -20.601068     2  -20.549170     3  -11.383364  
       4  -11.288038     5   -1.436521     6   -1.354423  
       7   -0.957411     8   -0.761739     9   -0.667986  
      10   -0.658799    11   -0.615180    12   -0.539834  
      13   -0.529467    14   -0.472001    15   -0.455215  

   => Virtual Orbital Energies <=

      16    0.008321    17    0.055507    18    0.057726  
      19    0.065059    20    0.067656    21    0.077124  
      22    0.080171    23    0.088661    24    0.096948  
      25    0.101596    26    0.102538    27    0.105871  
      28    0.114956    29    0.117674    30    0.122259  
      31    0.125791    32    0.128311    33    0.137191  
      34    0.141747    35    0.148964    36    0.155332  
      37    0.158895    38    0.163079    39    0.167949  
      40    0.173073    41    0.175838    42    0.180935  
      43    0.184987    44    0.189131    45    0.190868  
      46    0.206986    47    0.211221    48    0.214739  
      49    0.217090    50    0.229211    51    0.229417  
      52    0.236478    53    0.239297    54    0.243673  
      55    0.249733    56    0.250626    57    0.262108  
      58    0.264586    59    0.266941    60    0.270609  
      61    0.274038    62    0.280413    63    0.301171  
      64    0.307202    65    0.314823    66    0.316711  
      67    0.321785    68    0.327638    69    0.330052  
      70    0.330556    71    0.333634    72    0.341756  
      73    0.347816    74    0.351687    75    0.358600  
      76    0.368584    77    0.372828    78    0.376324  
      79    0.379859    80    0.389126    81    0.390553  
      82    0.396322    83    0.404080    84    0.414770  
      85    0.417356    86    0.422545    87    0.424606  
      88    0.428822    89    0.432709    90    0.435631  
      91    0.438204    92    0.446727    93    0.449178  
      94    0.458900    95    0.461292    96    0.466164  
      97    0.472906    98    0.479536    99    0.484153  
     100    0.492106   101    0.508087   102    0.512181  
     103    0.519952   104    0.524262   105    0.531039  
     106    0.544978   107    0.547466   108    0.552590  
     109    0.557093   110    0.567523   111    0.574943  
     112    0.580061   113    0.588673   114    0.595872  
     115    0.623142   116    0.624781   117    0.630750  
     118    0.647832   119    0.653551   120    0.668644  
     121    0.696608   122    0.715017   123    0.732897  
     124    0.747880   125    0.763599   126    0.785058  
     127    0.793211   128    0.809681   129    0.814802  
     130    0.840694   131    0.849449   132    0.865326  
     133    0.868889   134    0.881309   135    0.885101  
     136    0.907668   137    0.915273   138    0.921146  
     139    0.928627   140    0.932200   141    0.936191  
     142    0.942128   143    0.953091   144    0.957679  
     145    0.967945   146    0.972002   147    0.975527  
     148    0.981479   149    0.982180   150    0.995768  
     151    0.999150   152    1.008456   153    1.009810  
     154    1.024336   155    1.027197   156    1.035895  
     157    1.043591   158    1.053644   159    1.068824  
     160    1.080597   161    1.089708   162    1.094493  
     163    1.106263   164    1.118142   165    1.125188  
     166    1.129719   167    1.137686   168    1.156631  
     169    1.165029   170    1.190133   171    1.228198  
     172    1.235560   173    1.259593   174    1.265464  
     175    1.295834   176    1.308989   177    1.329171  
     178    1.343682   179    1.351484   180    1.368466  
     181    1.400979   182    1.434839   183    1.441306  
     184    1.468202   185    1.473997   186    1.483426  
     187    1.491943   188    1.504547   189    1.517961  
     190    1.535691   191    1.538725   192    1.546660  
     193    1.561203   194    1.570082   195    1.578929  
     196    1.590669   197    1.613611   198    1.619029  
     199    1.623950   200    1.629942   201    1.643456  
     202    1.656726   203    1.670040   204    1.680251  
     205    1.688623   206    1.699279   207    1.701701  
     208    1.708012   209    1.713863   210    1.723354  
     211    1.726900   212    1.731193   213    1.742387  
     214    1.755049   215    1.773544   216    1.782219  
     217    1.801159   218    1.828725   219    1.846907  
     220    1.860303   221    1.868358   222    1.876609  
     223    1.880701   224    1.889931   225    1.901620  
     226    1.923016   227    1.927008   228    1.935199  
     229    1.942712   230    1.950242   231    1.956463  
     232    1.966694   233    1.979851   234    1.986784  
     235    1.991546   236    1.998478   237    2.007601  
     238    2.014030   239    2.020427   240    2.028056  
     241    2.033758   242    2.043077   243    2.052012  
     244    2.054124   245    2.067144   246    2.075656  
     247    2.088077   248    2.100363   249    2.108009  
     250    2.126021   251    2.128632   252    2.132332  
     253    2.148023   254    2.162763   255    2.167688  
     256    2.172482   257    2.182084   258    2.198383  
     259    2.217644   260    2.235656   261    2.252210  
     262    2.258186   263    2.264762   264    2.269773  
     265    2.304566   266    2.320056   267    2.325905  
     268    2.336520   269    2.352760   270    2.359953  
     271    2.382380   272    2.389842   273    2.406135  
     274    2.407690   275    2.417584   276    2.418977  
     277    2.430063   278    2.435414   279    2.440640  
     280    2.452426   281    2.472130   282    2.476033  
     283    2.487334   284    2.500197   285    2.536008  
     286    2.562668   287    2.583725   288    2.603240  
     289    2.610711   290    2.625848   291    2.638458  
     292    2.657736   293    2.691059   294    2.714618  
     295    2.745227   296    2.749380   297    2.762482  
     298    2.785502   299    2.788840   300    2.796699  
     301    2.821563   302    2.831246   303    2.847342  
     304    2.852268   305    2.869673   306    2.870843  
     307    2.893352   308    2.898899   309    2.904538  
     310    2.918215   311    2.922721   312    2.931535  
     313    2.959114   314    2.988373   315    2.996482  
     316    3.004532   317    3.019732   318    3.040329  
     319    3.056652   320    3.090970   321    3.103630  
     322    3.124350   323    3.147961   324    3.195358  
     325    3.267850   326    3.277220   327    3.301159  
     328    3.341235   329    3.361629   330    3.419824  
     331    3.444864   332    3.465064   333    3.571154  
     334    3.578209   335    3.602385   336    3.627011  
     337    3.704125   338    3.715361   339    3.760199  
     340    3.781664   341    3.824966   342    3.911781  
     343    3.939039   344    3.961536   345    3.994484  
     346    4.093771   347    4.169938   348    4.533476  
     349    4.548966   350   13.288179  

  ==> Frozen Core <==


    ------------------
    Range      A     B
    ------------------
    nbf      396   396
    nmo      350   350
    nocc       4    15
    nvir     346   335
    nfocc      1     4
    naocc      3    11
    navir    346   335
    nfvir      0     0
    ------------------

  ==> Unification <==

  ==> dHF <==

    E ABC(HF) =  -8.3930576170426298E+02 [Eh]
    E AC(0)   =  -6.1127273466881229E+02 [Eh]
    E BC(0)   =  -7.9914570880570045E+02 [Eh]
    E A(0)    =  -2.5032945265186761E+01 [Eh]
    E B(0)    =  -2.1265644606562603E+02 [Eh]
    E AC(HF)  =  -6.1127043081738304E+02 [Eh]
    E BC(HF)  =  -7.9913625068956435E+02 [Eh]
    E AB(HF)  =  -2.3766224441879365E+02 [Eh]
    E A(HF)   =  -2.5019972855731694E+01 [Eh]
    E B(HF)   =  -2.1264054431765686E+02 [Eh]
    E C       =  -5.7110264704808708E+02 [Eh]
    E HF      =   1.0034722162686194E-02 [Eh]

  ==> Electrostatics <==

    Elst10,r            =     0.006022400473 [Eh]

  ==> Exchange <==

    Exch10(S^2)         =     0.005066038196 [Eh]
    Exch10              =     0.005086701585 [Eh]

  ==> Induction <==

    Ind20,u (A<-B)      =    -0.001107377098 [Eh]
    Ind20,u (B<-A)      =    -0.000423362636 [Eh]
    Ind20,u             =    -0.001530739734 [Eh]
    Exch-Ind20,u (A<-B) =     0.000644245435 [Eh]
    Exch-Ind20,u (B<-A) =     0.000180901068 [Eh]
    Exch-Ind20,u        =     0.000825146503 [Eh]

  ==> CPHF Iterations <==

    Maxiter     =          50
    Convergence =   1.000E-08

    -----------------------------------------
    Iter   Monomer A    Monomer B    Time [s]
    -----------------------------------------
    1      1.433E-01    2.314E-01           6
    2      2.323E-02    7.974E-02          13
    3      4.014E-03    2.339E-02          19
    4      4.902E-04    8.422E-03          25
    5      6.674E-05    2.793E-03          32
    6      9.937E-06    1.017E-03          38
    7      1.549E-06    3.606E-04          44
    8      2.518E-07    1.575E-04          50
    9      2.881E-08    4.286E-05          56
    10     2.474E-09*   1.171E-05          63
    11     2.474E-09*   3.118E-06          66
    12     2.474E-09*   6.430E-07          69
    13     2.474E-09*   2.085E-07          72
    14     2.474E-09*   5.830E-08          76
    15     2.474E-09*   1.283E-08          79
    16     2.474E-09*   3.460E-09*         82
    -----------------------------------------

    Ind20,r (A<-B)      =    -0.001290746071 [Eh]
    Ind20,r (B<-A)      =    -0.000492427867 [Eh]
    Ind20,r             =    -0.001783173938 [Eh]
    Exch-Ind20,r (A<-B) =     0.000784586321 [Eh]
    Exch-Ind20,r (B<-A) =     0.000240161081 [Eh]
    Exch-Ind20,r        =     0.001024747403 [Eh]

  ==> F-SAPT Localization (IBO) <==

  Local Orbitals for Monomer A:

  ==> IBO Localizer 2 <==

    MinAO Basis = CC-PVTZ-MINAO
    Use Ghosts  =       FALSE
    Use Stars   =       FALSE
    Condition   =   1.000E-07
    Power       =           4
    Convergence =   1.000E-12
    Maxiter     =        1000

    @IBO Iter:                   Metric       Gradient
    @IBO    1:   1.0646414944364579E+00   4.396593E-02
    @IBO    2:   1.0832020188868194E+00   2.055147E-02
    @IBO    3:   1.0835062153185346E+00   2.275138E-04
    @IBO    4:   1.0835062514779445E+00   2.789047E-08
    @IBO    5:   1.0835062514779450E+00   8.993043E-12
    @IBO    6:   1.0835062514779450E+00   1.411318E-15

    IBO Localizer 2 converged.

  Local Orbitals for Monomer B:

  ==> IBO Localizer 2 <==

    MinAO Basis = CC-PVTZ-MINAO
    Use Ghosts  =       FALSE
    Use Stars   =       FALSE
    Condition   =   1.000E-07
    Power       =           4
    Convergence =   1.000E-12
    Maxiter     =        1000

    @IBO Iter:                   Metric       Gradient
    @IBO    1:   1.4795256685682625E+00   1.675977E+00
    @IBO    2:   1.6765688757290713E+00   9.449313E-01
    @IBO    3:   1.7082041946380280E+00   3.526661E-01
    @IBO    4:   1.7098395157471835E+00   5.204682E-03
    @IBO    5:   1.7098406015430567E+00   2.732524E-04
    @IBO    6:   1.7098406024336448E+00   3.891498E-06
    @IBO    7:   1.7098406024339383E+00   1.205441E-07
    @IBO    8:   1.7098406024339388E+00   4.307064E-09
    @IBO    9:   1.7098406024339388E+00   1.819875E-10
    @IBO   10:   1.7098406024339385E+00   7.939203E-12
    @IBO   11:   1.7098406024339385E+00   3.459937E-13

    IBO Localizer 2 converged.

  ==> F-SAPT Electrostatics <==

  ==> DFERI: Density Fitted 3-Index Tensors <==

    Schwarz cutoff =   0.000E+00
    J cutoff       =   1.000E-12
    Mem (GB)       =         628

   => Auxiliary Basis <=

  Basis Set: (JUN-CC-PVDZ AUX)
    Blend: JUN-CC-PVDZ-JKFIT
    Number of shells: 621
    Number of basis function: 1757
    Number of Cartesian functions: 1997
    Spherical Harmonics?: true
    Max angular momentum: 3

    Elst10,r            =     0.006022400311 [Eh]

  ==> F-SAPT Exchange <==

  ==> DFERI: Density Fitted 3-Index Tensors <==

    Schwarz cutoff =   0.000E+00
    J cutoff       =   1.000E-12
    Mem (GB)       =         628

   => Auxiliary Basis <=

  Basis Set: (JUN-CC-PVDZ AUX)
    Blend: JUN-CC-PVDZ-JKFIT
    Number of shells: 621
    Number of basis function: 1757
    Number of Cartesian functions: 1997
    Spherical Harmonics?: true
    Max angular momentum: 3

    Exch10(S^2)         =     0.005066038196 [Eh]

    Scaling F-SAPT Exch10(S^2) by   1.004E+00 to match Exch10

  ==> F-SAPT Induction <==

  ==> DFERI: Density Fitted 3-Index Tensors <==

    Schwarz cutoff =   0.000E+00
    J cutoff       =   1.000E-12
    Mem (GB)       =         628

   => Auxiliary Basis <=

  Basis Set: (JUN-CC-PVDZ AUX)
    Blend: JUN-CC-PVDZ-JKFIT
    Number of shells: 621
    Number of basis function: 1757
    Number of Cartesian functions: 1997
    Spherical Harmonics?: true
    Max angular momentum: 3

    Ind20,u (A<-B)      =    -0.001107377098 [Eh]
    Ind20,u (B<-A)      =    -0.000423362636 [Eh]
    Ind20,u             =    -0.001530739734 [Eh]
    Exch-Ind20,u (A<-B) =     0.000644245435 [Eh]
    Exch-Ind20,u (B<-A) =     0.000180901068 [Eh]
    Exch-Ind20,u        =     0.000825146503 [Eh]

    Scaling for delta HF        =   1.417E+00
    Scaling for response (A<-B) =   1.093E+00
    Scaling for response (B<-A) =   1.040E+00
    Scaling for total (A<-B)    =   1.548E+00
    Scaling for total (B<-A)    =   1.474E+00

  ==> F-SAPT Dispersion <==

  ==> DFERI: Density Fitted 3-Index Tensors <==

    Schwarz cutoff =   0.000E+00
    J cutoff       =   1.000E-12
    Mem (GB)       =         628

   => Auxiliary Basis <=

  Basis Set: (JUN-CC-PVDZ AUX)
    Blend: JUN-CC-PVDZ-RI
    Number of shells: 465
    Number of basis function: 1357
    Number of Cartesian functions: 1562
    Spherical Harmonics?: true
    Max angular momentum: 3

    Disp20              =    -0.002541500708 [Eh]
    Exch-Disp20         =     0.000322997068 [Eh]

  ==> F-SAPT Output <==

    F-SAPT Data Filepath = fsapt/

  ==> Results <==


    SAPT Results  
  --------------------------------------------------------------------------------------------------------
    Electrostatics                  6.02240047 [mEh]       3.77911351 [kcal/mol]      15.81181244 [kJ/mol]
      Elst10,r                      6.02240047 [mEh]       3.77911351 [kcal/mol]      15.81181244 [kJ/mol]

    Exchange                        5.08670159 [mEh]       3.19195357 [kcal/mol]      13.35513501 [kJ/mol]
      Exch10                        5.08670159 [mEh]       3.19195357 [kcal/mol]      13.35513501 [kJ/mol]
      Exch10(S^2)                   5.06603820 [mEh]       3.17898710 [kcal/mol]      13.30088328 [kJ/mol]

    Induction                      -1.07437990 [mEh]      -0.67418359 [kcal/mol]      -2.82078442 [kJ/mol]
      Ind20,r                      -1.78317394 [mEh]      -1.11895859 [kcal/mol]      -4.68172318 [kJ/mol]
      Exch-Ind20,r                  1.02474740 [mEh]       0.64303873 [kcal/mol]       2.69047431 [kJ/mol]
      delta HF,r (2)               -0.31595336 [mEh]      -0.19826374 [kcal/mol]      -0.82953555 [kJ/mol]
      Induction (A<-B)             -0.71702114 [mEh]      -0.44993758 [kcal/mol]      -1.88253900 [kJ/mol]
      Induction (B<-A)             -0.35735876 [mEh]      -0.22424601 [kcal/mol]      -0.93824541 [kJ/mol]

    Dispersion                     -2.21850364 [mEh]      -1.39213211 [kcal/mol]      -5.82468131 [kJ/mol]
      Disp20                       -2.54150071 [mEh]      -1.59481584 [kcal/mol]      -6.67271011 [kJ/mol]
      Exch-Disp20                   0.32299707 [mEh]       0.20268373 [kcal/mol]       0.84802880 [kJ/mol]

  Total HF                         10.03472216 [mEh]       6.29688349 [kcal/mol]      26.34616304 [kJ/mol]
  Total SAPT0                       7.81621852 [mEh]       4.90475138 [kcal/mol]      20.52148173 [kJ/mol]

  --------------------------------------------------------------------------------------------------------
    Han Solo: This is *not* gonna work.
    Luke Skywalker: Why didn't you say so before?
    Han Solo: I *did* say so before.

*** tstop() called on ThinkPad-P50 at Mon Jan 15 18:23:27 2018
Module time:
	user time   =     709.10 seconds =      11.82 minutes
	system time =       2.49 seconds =       0.04 minutes
	total time  =        206 seconds =       3.43 minutes
Total time:
	user time   =     909.49 seconds =      15.16 minutes
	system time =       3.40 seconds =       0.06 minutes
	total time  =        274 seconds =       4.57 minutes

*** Psi4 exiting successfully. Buy a developer a beer!
