
    -----------------------------------------------------------------------
          Psi4: An Open-Source Ab Initio Electronic Structure Package
                               Psi4 1.1 release

                         Git: Rev {HEAD} add49b9 


    R. M. Parrish, L. A. Burns, D. G. A. Smith, A. C. Simmonett,
    A. E. DePrince III, E. G. Hohenstein, U. Bozkaya, A. Yu. Sokolov,
    R. Di Remigio, R. M. Richard, J. F. Gonthier, A. M. James,
    H. R. McAlexander, A. Kumar, M. Saitow, X. Wang, B. P. Pritchard,
    P. Verma, H. F. Schaefer III, K. Patkowski, R. A. King, E. F. Valeev,
    F. A. Evangelista, J. M. Turney, T. D. Crawford, and C. D. Sherrill,
    J. Chem. Theory Comput. in press (2017).
    (doi: 10.1021/acs.jctc.7b00174)

    -----------------------------------------------------------------------


    Psi4 started on: Monday, 15 January 2018 06:13PM

    Process ID:  19886
    PSIDATADIR: /home/junteng/Softwares/psi4conda/share/psi4
    Memory:     500.0 MiB
    Threads:    4
    
  ==> Input File <==

--------------------------------------------------------------------------
memory 750000 mb

molecule mol {
0 1
C          0.72431        1.49546        0.49714
O          1.52376        1.94221        1.28832
O          0.75351        1.75805       -0.81571
C          1.84256        2.57228       -1.28378
H          1.68367        2.67415       -2.35456
H          1.83178        3.54699       -0.79344
H          2.79483        2.07826       -1.08605
--
0 1
C          1.27189       -1.19180       -0.03155
O          1.61954       -1.12417       -1.18361
O          2.12096       -1.46760        0.98508
C          3.51182       -1.58970        0.63643
H          3.88556       -0.64080        0.24803
H          4.02065       -1.84659        1.56264
H          3.65281       -2.36984       -0.11271
--
0 1
C         -2.19239        2.18641       -0.11287
H         -1.48932        2.65631       -0.79855
H         -3.18392        2.19253       -0.57065
H         -2.23637        2.77386        0.80870
C         -1.15007       -2.35633       -1.45793
H         -0.35913       -2.08295       -2.15394
H         -0.88929       -3.30945       -0.98842
H         -2.08298       -2.49195       -2.00991
C         -0.39824        0.55005        0.89674
C         -0.11835       -0.96151        0.53049
C         -1.78233        0.76264        0.19713
C         -2.83079       -0.04902        1.01422
C         -2.55151       -1.49776        0.54055
C         -1.33607       -1.28951       -0.40204
O         -1.64589       -0.01896       -0.99821
H         -0.47974        0.65973        1.97719
H         -0.17401       -1.55527        1.44239
H         -3.83801        0.27366        0.74483
H         -2.71306        0.08969        2.09096
H         -3.38808       -1.89373       -0.03795
H         -2.34057       -2.19651        1.35252

symmetry c1
no_reorient
no_com
}

set {
basis jun-cc-pvdz
scf_type df
guess sad
freeze_core true
}

energy('fisapt0')
--------------------------------------------------------------------------

  Memory set to 698.492 GiB by Python driver.

*** tstart() called on ThinkPad-P50
*** at Mon Jan 15 18:13:23 2018

   => Loading Basis Set <=

    Name: JUN-CC-PVDZ
    Role: ORBITAL
    Keyword: BASIS
    atoms 1, 4, 8, 11, 15, 19, 23-28      entry C          line   157 file /home/junteng/Softwares/psi4conda/share/psi4/basis/jun-cc-pvdz.gbs 
    atoms 2-3, 9-10, 29                   entry O          line   225 file /home/junteng/Softwares/psi4conda/share/psi4/basis/jun-cc-pvdz.gbs 
    atoms 5-7, 12-14, 16-18, 20-22, 30-35 entry H          line    35 file /home/junteng/Softwares/psi4conda/share/psi4/basis/jun-cc-pvdz.gbs 


         ---------------------------------------------------------
                                   SCF
            by Justin Turney, Rob Parrish, and Andy Simmonett
                              RHF Reference
                        4 Threads, 715255 MiB Core
         ---------------------------------------------------------

  ==> Geometry <==

    Molecular point group: c1
    Full point group: C1

    Geometry (in Angstrom), charge = 0, multiplicity = 1:

       Center              X                  Y                   Z               Mass       
    ------------   -----------------  -----------------  -----------------  -----------------
           C          0.724310000000     1.495460000000     0.497140000000    12.000000000000
           O          1.523760000000     1.942210000000     1.288320000000    15.994914619560
           O          0.753510000000     1.758050000000    -0.815710000000    15.994914619560
           C          1.842560000000     2.572280000000    -1.283780000000    12.000000000000
           H          1.683670000000     2.674150000000    -2.354560000000     1.007825032070
           H          1.831780000000     3.546990000000    -0.793440000000     1.007825032070
           H          2.794830000000     2.078260000000    -1.086050000000     1.007825032070
           C          1.271890000000    -1.191800000000    -0.031550000000    12.000000000000
           O          1.619540000000    -1.124170000000    -1.183610000000    15.994914619560
           O          2.120960000000    -1.467600000000     0.985080000000    15.994914619560
           C          3.511820000000    -1.589700000000     0.636430000000    12.000000000000
           H          3.885560000000    -0.640800000000     0.248030000000     1.007825032070
           H          4.020650000000    -1.846590000000     1.562640000000     1.007825032070
           H          3.652810000000    -2.369840000000    -0.112710000000     1.007825032070
           C         -2.192390000000     2.186410000000    -0.112870000000    12.000000000000
           H         -1.489320000000     2.656310000000    -0.798550000000     1.007825032070
           H         -3.183920000000     2.192530000000    -0.570650000000     1.007825032070
           H         -2.236370000000     2.773860000000     0.808700000000     1.007825032070
           C         -1.150070000000    -2.356330000000    -1.457930000000    12.000000000000
           H         -0.359130000000    -2.082950000000    -2.153940000000     1.007825032070
           H         -0.889290000000    -3.309450000000    -0.988420000000     1.007825032070
           H         -2.082980000000    -2.491950000000    -2.009910000000     1.007825032070
           C         -0.398240000000     0.550050000000     0.896740000000    12.000000000000
           C         -0.118350000000    -0.961510000000     0.530490000000    12.000000000000
           C         -1.782330000000     0.762640000000     0.197130000000    12.000000000000
           C         -2.830790000000    -0.049020000000     1.014220000000    12.000000000000
           C         -2.551510000000    -1.497760000000     0.540550000000    12.000000000000
           C         -1.336070000000    -1.289510000000    -0.402040000000    12.000000000000
           O         -1.645890000000    -0.018960000000    -0.998210000000    15.994914619560
           H         -0.479740000000     0.659730000000     1.977190000000     1.007825032070
           H         -0.174010000000    -1.555270000000     1.442390000000     1.007825032070
           H         -3.838010000000     0.273660000000     0.744830000000     1.007825032070
           H         -2.713060000000     0.089690000000     2.090960000000     1.007825032070
           H         -3.388080000000    -1.893730000000    -0.037950000000     1.007825032070
           H         -2.340570000000    -2.196510000000     1.352520000000     1.007825032070

  Running in c1 symmetry.

  Rotational constants: A =      0.02090  B =      0.01592  C =      0.01165 [cm^-1]
  Rotational constants: A =    626.52235  B =    477.41725  C =    349.40609 [MHz]
  Nuclear repulsion = 1402.929937938825788

  Charge       = 0
  Multiplicity = 1
  Electrons    = 130
  Nalpha       = 65
  Nbeta        = 65

  ==> Algorithm <==

  SCF Algorithm Type is DF.
  DIIS enabled.
  MOM disabled.
  Fractional occupation disabled.
  Guess Type is SAD.
  Energy threshold   = 1.00e-08
  Density threshold  = 1.00e-08
  Integral threshold = 0.00e+00

  ==> Primary Basis <==

  Basis Set: JUN-CC-PVDZ
    Blend: JUN-CC-PVDZ
    Number of shells: 190
    Number of basis function: 396
    Number of Cartesian functions: 413
    Spherical Harmonics?: true
    Max angular momentum: 2

   => Loading Basis Set <=

    Name: (JUN-CC-PVDZ AUX)
    Role: JKFIT
    Keyword: DF_BASIS_SCF
    atoms 1, 4, 8, 11, 15, 19, 23-28      entry C          line   145 file /home/junteng/Softwares/psi4conda/share/psi4/basis/jun-cc-pvdz-jkfit.gbs 
    atoms 2-3, 9-10, 29                   entry O          line   257 file /home/junteng/Softwares/psi4conda/share/psi4/basis/jun-cc-pvdz-jkfit.gbs 
    atoms 5-7, 12-14, 16-18, 20-22, 30-35 entry H          line    69 file /home/junteng/Softwares/psi4conda/share/psi4/basis/jun-cc-pvdz-jkfit.gbs 

  ==> Pre-Iterations <==

   -------------------------------------------------------
    Irrep   Nso     Nmo     Nalpha   Nbeta   Ndocc  Nsocc
   -------------------------------------------------------
     A        396     396       0       0       0       0
   -------------------------------------------------------
    Total     396     396      65      65      65       0
   -------------------------------------------------------

  ==> Integral Setup <==

  ==> DFJK: Density-Fitted J/K Matrices <==

    J tasked:                  Yes
    K tasked:                  Yes
    wK tasked:                  No
    OpenMP threads:              4
    Integrals threads:           4
    Memory (MB):            536441
    Algorithm:                Core
    Integral Cache:           NONE
    Schwarz Cutoff:          1E-12
    Fitting Condition:       1E-12

   => Auxiliary Basis Set <=

  Basis Set: (JUN-CC-PVDZ AUX)
    Blend: JUN-CC-PVDZ-JKFIT
    Number of shells: 621
    Number of basis function: 1757
    Number of Cartesian functions: 1997
    Spherical Harmonics?: true
    Max angular momentum: 3

  Minimum eigenvalue in the overlap matrix is 7.4582337404E-06.
  Using Symmetric Orthogonalization.

  SCF Guess: Superposition of Atomic Densities via on-the-fly atomic UHF.

  ==> Iterations <==

                           Total Energy        Delta E     RMS |[F,P]|

   @DF-RHF iter   0:  -847.56746223262417   -8.47567e+02   4.01206e-02 
   @DF-RHF iter   1:  -838.71380255622637    8.85366e+00   4.85287e-03 
   @DF-RHF iter   2:  -839.14391761176648   -4.30115e-01   3.02726e-03 DIIS
   @DF-RHF iter   3:  -839.28552741660110   -1.41610e-01   8.12212e-04 DIIS
   @DF-RHF iter   4:  -839.30351475215502   -1.79873e-02   2.58517e-04 DIIS
   @DF-RHF iter   5:  -839.30548462181093   -1.96987e-03   7.51636e-05 DIIS
   @DF-RHF iter   6:  -839.30571114042345   -2.26519e-04   3.29632e-05 DIIS
   @DF-RHF iter   7:  -839.30575387505360   -4.27346e-05   1.14778e-05 DIIS
   @DF-RHF iter   8:  -839.30576060282942   -6.72778e-06   4.22888e-06 DIIS
   @DF-RHF iter   9:  -839.30576157104394   -9.68215e-07   1.58196e-06 DIIS
   @DF-RHF iter  10:  -839.30576168738219   -1.16338e-07   5.34977e-07 DIIS
   @DF-RHF iter  11:  -839.30576170224435   -1.48622e-08   1.65012e-07 DIIS
   @DF-RHF iter  12:  -839.30576170371910   -1.47475e-09   6.31527e-08 DIIS
   @DF-RHF iter  13:  -839.30576170395341   -2.34309e-10   2.62710e-08 DIIS
   @DF-RHF iter  14:  -839.30576170400582   -5.24096e-11   1.21424e-08 DIIS
   @DF-RHF iter  15:  -839.30576170401378   -7.95808e-12   5.72870e-09 DIIS

  ==> Post-Iterations <==

    Orbital Energies (a.u.)
    -----------------------

    Doubly Occupied:                                                      

       1A    -20.610909     2A    -20.605218     3A    -20.560857  
       4A    -20.558173     5A    -20.555177     6A    -11.391865  
       7A    -11.388545     8A    -11.301938     9A    -11.299641  
      10A    -11.294525    11A    -11.290910    12A    -11.267108  
      13A    -11.266471    14A    -11.238164    15A    -11.236637  
      16A    -11.228044    17A    -11.221917    18A     -1.469016  
      19A     -1.463813    20A     -1.400083    21A     -1.367417  
      22A     -1.362689    23A     -1.114790    24A     -1.075913  
      25A     -1.050968    26A     -0.993886    27A     -0.976188  
      28A     -0.966106    29A     -0.910811    30A     -0.872953  
      31A     -0.818068    32A     -0.784779    33A     -0.767260  
      34A     -0.758806    35A     -0.710072    36A     -0.692432  
      37A     -0.690514    38A     -0.677800    39A     -0.673959  
      40A     -0.660015    41A     -0.656993    42A     -0.647841  
      43A     -0.623743    44A     -0.597713    45A     -0.589227  
      46A     -0.580560    47A     -0.574325    48A     -0.563690  
      49A     -0.558306    50A     -0.545026    51A     -0.541023  
      52A     -0.531772    53A     -0.526111    54A     -0.508243  
      55A     -0.506409    56A     -0.502935    57A     -0.495406  
      58A     -0.485024    59A     -0.475443    60A     -0.468146  
      61A     -0.466767    62A     -0.452771    63A     -0.446624  
      64A     -0.423859    65A     -0.422249  

    Virtual:                                                              

      66A      0.051109    67A      0.054668    68A      0.056769  
      69A      0.065894    70A      0.071756    71A      0.078269  
      72A      0.082776    73A      0.092684    74A      0.100425  
      75A      0.102250    76A      0.107218    77A      0.112871  
      78A      0.116953    79A      0.122607    80A      0.124436  
      81A      0.126542    82A      0.137311    83A      0.140098  
      84A      0.148090    85A      0.151227    86A      0.154563  
      87A      0.160485    88A      0.163109    89A      0.169772  
      90A      0.173826    91A      0.177638    92A      0.181964  
      93A      0.185825    94A      0.188476    95A      0.206833  
      96A      0.210404    97A      0.212200    98A      0.217581  
      99A      0.224071   100A      0.228230   101A      0.233756  
     102A      0.237196   103A      0.240752   104A      0.243296  
     105A      0.249829   106A      0.254330   107A      0.258409  
     108A      0.262115   109A      0.263946   110A      0.270826  
     111A      0.276048   112A      0.279156   113A      0.293523  
     114A      0.303889   115A      0.308909   116A      0.311550  
     117A      0.314849   118A      0.318211   119A      0.325047  
     120A      0.328469   121A      0.332977   122A      0.345032  
     123A      0.352176   124A      0.356317   125A      0.359421  
     126A      0.366354   127A      0.368955   128A      0.373434  
     129A      0.375887   130A      0.383398   131A      0.388381  
     132A      0.398173   133A      0.404826   134A      0.407530  
     135A      0.411121   136A      0.415399   137A      0.420039  
     138A      0.424292   139A      0.425953   140A      0.430757  
     141A      0.436084   142A      0.442312   143A      0.448332  
     144A      0.449834   145A      0.453995   146A      0.459225  
     147A      0.463343   148A      0.474910   149A      0.485710  
     150A      0.489339   151A      0.496717   152A      0.504706  
     153A      0.509880   154A      0.513782   155A      0.525940  
     156A      0.530653   157A      0.538980   158A      0.540358  
     159A      0.548709   160A      0.561534   161A      0.568420  
     162A      0.576153   163A      0.591496   164A      0.598565  
     165A      0.608982   166A      0.620179   167A      0.641039  
     168A      0.650246   169A      0.666563   170A      0.711879  
     171A      0.722848   172A      0.747848   173A      0.763435  
     174A      0.772941   175A      0.776444   176A      0.800928  
     177A      0.807379   178A      0.821230   179A      0.833837  
     180A      0.855891   181A      0.859293   182A      0.867527  
     183A      0.870119   184A      0.876772   185A      0.896661  
     186A      0.904163   187A      0.905540   188A      0.912178  
     189A      0.917411   190A      0.926304   191A      0.931300  
     192A      0.937012   193A      0.942967   194A      0.946972  
     195A      0.954389   196A      0.961758   197A      0.964341  
     198A      0.964729   199A      0.974807   200A      0.977279  
     201A      0.982622   202A      0.988126   203A      0.992327  
     204A      1.000871   205A      1.005102   206A      1.007629  
     207A      1.025105   208A      1.036403   209A      1.046035  
     210A      1.052863   211A      1.065377   212A      1.080237  
     213A      1.085589   214A      1.088309   215A      1.097893  
     216A      1.111950   217A      1.116824   218A      1.120800  
     219A      1.125029   220A      1.136633   221A      1.138187  
     222A      1.163824   223A      1.182549   224A      1.205500  
     225A      1.228251   226A      1.247012   227A      1.258836  
     228A      1.274491   229A      1.286057   230A      1.313907  
     231A      1.325961   232A      1.343413   233A      1.356372  
     234A      1.381374   235A      1.431731   236A      1.437012  
     237A      1.447839   238A      1.469906   239A      1.477303  
     240A      1.488213   241A      1.507824   242A      1.512123  
     243A      1.531657   244A      1.545579   245A      1.557206  
     246A      1.560658   247A      1.579819   248A      1.584746  
     249A      1.596354   250A      1.608217   251A      1.618868  
     252A      1.624658   253A      1.636716   254A      1.651429  
     255A      1.658377   256A      1.671054   257A      1.677156  
     258A      1.684700   259A      1.691933   260A      1.697169  
     261A      1.703952   262A      1.712856   263A      1.717004  
     264A      1.733665   265A      1.741749   266A      1.752113  
     267A      1.758175   268A      1.780604   269A      1.798992  
     270A      1.814632   271A      1.825387   272A      1.834739  
     273A      1.841504   274A      1.864440   275A      1.870260  
     276A      1.881583   277A      1.890662   278A      1.904284  
     279A      1.909363   280A      1.929703   281A      1.940977  
     282A      1.949467   283A      1.957127   284A      1.969344  
     285A      1.972297   286A      1.978257   287A      1.985006  
     288A      1.996535   289A      1.996964   290A      2.005429  
     291A      2.012730   292A      2.030573   293A      2.034406  
     294A      2.041313   295A      2.054152   296A      2.056941  
     297A      2.061656   298A      2.071551   299A      2.073449  
     300A      2.081335   301A      2.098972   302A      2.104984  
     303A      2.119490   304A      2.123572   305A      2.128446  
     306A      2.147517   307A      2.157865   308A      2.168444  
     309A      2.180876   310A      2.193889   311A      2.201654  
     312A      2.222293   313A      2.230407   314A      2.250282  
     315A      2.272017   316A      2.279577   317A      2.281257  
     318A      2.311132   319A      2.315172   320A      2.331423  
     321A      2.338391   322A      2.346026   323A      2.362542  
     324A      2.379218   325A      2.383794   326A      2.404884  
     327A      2.407639   328A      2.412254   329A      2.419986  
     330A      2.428784   331A      2.436444   332A      2.448308  
     333A      2.452873   334A      2.458459   335A      2.493983  
     336A      2.509141   337A      2.532661   338A      2.542307  
     339A      2.572038   340A      2.604886   341A      2.632119  
     342A      2.649384   343A      2.676874   344A      2.716240  
     345A      2.725305   346A      2.753608   347A      2.762651  
     348A      2.768491   349A      2.777924   350A      2.796652  
     351A      2.805578   352A      2.818477   353A      2.841106  
     354A      2.848766   355A      2.855815   356A      2.869225  
     357A      2.876936   358A      2.885469   359A      2.885707  
     360A      2.891872   361A      2.902799   362A      2.921915  
     363A      2.928222   364A      2.945134   365A      2.962501  
     366A      2.988445   367A      2.996397   368A      3.017480  
     369A      3.041154   370A      3.053106   371A      3.062458  
     372A      3.116287   373A      3.131067   374A      3.175308  
     375A      3.262345   376A      3.269428   377A      3.295582  
     378A      3.335266   379A      3.351289   380A      3.410834  
     381A      3.418712   382A      3.431034   383A      3.537370  
     384A      3.565819   385A      3.592699   386A      3.620111  
     387A      3.698978   388A      3.706259   389A      3.741833  
     390A      3.776313   391A      3.825809   392A      3.917230  
     393A      3.953813   394A      3.979140   395A      4.088323  
     396A      4.158952  

    Final Occupation by Irrep:
              A 
    DOCC [    65 ]

  Energy converged.

  @DF-RHF Final Energy:  -839.30576170401378

   => Energetics <=

    Nuclear Repulsion Energy =           1402.9299379388257876
    One-Electron Energy =               -3936.9421126815059324
    Two-Electron Energy =                1694.7064130386663692
    DFT Exchange-Correlation Energy =       0.0000000000000000
    Empirical Dispersion Energy =           0.0000000000000000
    PCM Polarization Energy =               0.0000000000000000
    EFP Energy =                            0.0000000000000000
    Total Energy =                       -839.3057617040137757



Properties will be evaluated at   0.000000,   0.000000,   0.000000 Bohr

Properties computed using the SCF density matrix

  Nuclear Dipole Moment: (a.u.)
     X:    -0.7278      Y:    -1.7733      Z:    -0.6137

  Electronic Dipole Moment: (a.u.)
     X:     0.3728      Y:     1.3953      Z:     1.0601

  Dipole Moment: (a.u.)
     X:    -0.3550      Y:    -0.3780      Z:     0.4464     Total:     0.6843

  Dipole Moment: (Debye)
     X:    -0.9024      Y:    -0.9609      Z:     1.1346     Total:     1.7392


*** tstop() called on ThinkPad-P50 at Mon Jan 15 18:14:27 2018
Module time:
	user time   =     191.18 seconds =       3.19 minutes
	system time =       0.86 seconds =       0.01 minutes
	total time  =         64 seconds =       1.07 minutes
Total time:
	user time   =     191.18 seconds =       3.19 minutes
	system time =       0.86 seconds =       0.01 minutes
	total time  =         64 seconds =       1.07 minutes
   => Loading Basis Set <=

    Name: (JUN-CC-PVDZ AUX)
    Role: JKFIT
    Keyword: DF_BASIS_SCF
    atoms 1, 4, 8, 11, 15, 19, 23-28      entry C          line   145 file /home/junteng/Softwares/psi4conda/share/psi4/basis/jun-cc-pvdz-jkfit.gbs 
    atoms 2-3, 9-10, 29                   entry O          line   257 file /home/junteng/Softwares/psi4conda/share/psi4/basis/jun-cc-pvdz-jkfit.gbs 
    atoms 5-7, 12-14, 16-18, 20-22, 30-35 entry H          line    69 file /home/junteng/Softwares/psi4conda/share/psi4/basis/jun-cc-pvdz-jkfit.gbs 

   => Loading Basis Set <=

    Name: (JUN-CC-PVDZ AUX)
    Role: RIFIT
    Keyword: DF_BASIS_SAPT
    atoms 1, 4, 8, 11, 15, 19, 23-28      entry C          line    99 file /home/junteng/Softwares/psi4conda/share/psi4/basis/jun-cc-pvdz-ri.gbs 
    atoms 2-3, 9-10, 29                   entry O          line   187 file /home/junteng/Softwares/psi4conda/share/psi4/basis/jun-cc-pvdz-ri.gbs 
    atoms 5-7, 12-14, 16-18, 20-22, 30-35 entry H          line    29 file /home/junteng/Softwares/psi4conda/share/psi4/basis/jun-cc-pvdz-ri.gbs 

   => Loading Basis Set <=

    Name: CC-PVTZ-MINAO
    Role: ORBITAL
    Keyword: BASIS
    atoms 1, 4, 8, 11, 15, 19, 23-28      entry C          line   130 file /home/junteng/Softwares/psi4conda/share/psi4/basis/cc-pvtz-minao.gbs 
    atoms 2-3, 9-10, 29                   entry O          line   190 file /home/junteng/Softwares/psi4conda/share/psi4/basis/cc-pvtz-minao.gbs 
    atoms 5-7, 12-14, 16-18, 20-22, 30-35 entry H          line    19 file /home/junteng/Softwares/psi4conda/share/psi4/basis/cc-pvtz-minao.gbs 


*** tstart() called on ThinkPad-P50
*** at Mon Jan 15 18:14:28 2018

	 --------------------------------------------
	                    FISAPT0                  
	                  Rob Parrish                
	 --------------------------------------------

    Do F-SAPT =         Yes
    Do Plot   =          No
    Memory    =      78.580 [GD]

  ==> Localization (IBO) <==

  ==> IBO Localizer 2 <==

    MinAO Basis = CC-PVTZ-MINAO
    Use Ghosts  =       FALSE
    Use Stars   =       FALSE
    Condition   =   1.000E-07
    Power       =           4
    Convergence =   1.000E-12
    Maxiter     =        1000

    @IBO Iter:                   Metric       Gradient
    @IBO    1:   1.9898125674579104E+00   2.863454E+00
    @IBO    2:   2.2527813851697434E+00   2.455280E+00
    @IBO    3:   2.3453483970844409E+00   1.088369E+00
    @IBO    4:   2.3579479243789381E+00   1.696011E-01
    @IBO    5:   2.3584455373934428E+00   6.096171E-03
    @IBO    6:   2.3584461724392107E+00   5.140062E-05
    @IBO    7:   2.3584461724719805E+00   1.342653E-06
    @IBO    8:   2.3584461724720045E+00   6.309988E-08
    @IBO    9:   2.3584461724720045E+00   2.991761E-09
    @IBO   10:   2.3584461724720045E+00   1.377566E-10
    @IBO   11:   2.3584461724720045E+00   6.267446E-12
    @IBO   12:   2.3584461724720045E+00   2.867125E-13

    IBO Localizer 2 converged.

  ==> Partitioning <==

   => Atomic Partitioning <= 

    Monomer A:   7 atoms
    Monomer B:   7 atoms
    Monomer C:  21 atoms

   => Link Bond Identification <=

    Link Bond Selection = AUTOMATIC

    Charge Completeness = 0.800

    Total Link Bonds = 2

    --------------------------
    N     Orb Type Aind1 Aind2
    --------------------------
    1      49   AC     1    23
    2      52   BC     8    24
    --------------------------

   => Link Bond Assignment <=

    Link Bond Assignment      = C

   => Partition Summary <=

    Monomer A:  0 charge,  30 protons,  30 electrons,  15 docc
    Monomer B:  0 charge,  30 protons,  30 electrons,  15 docc
    Monomer C:  0 charge,  70 protons,  70 electrons,  35 docc

  ==> Overlap Integrals <==

  ==> Kinetic Integrals <==

  ==> Nuclear Integrals <==

    Nuclear Repulsion Tot:   1.4029299379388242E+03 [Eh]

  ==> Coulomb Integrals <==

  ==> DFJK: Density-Fitted J/K Matrices <==

    J tasked:                  Yes
    K tasked:                  Yes
    wK tasked:                  No
    OpenMP threads:              4
    Integrals threads:           4
    Memory (MB):            643730
    Algorithm:                Core
    Integral Cache:           NONE
    Schwarz Cutoff:          1E-12
    Fitting Condition:       1E-12

   => Auxiliary Basis Set <=

  Basis Set: (JUN-CC-PVDZ AUX)
    Blend: JUN-CC-PVDZ-JKFIT
    Number of shells: 621
    Number of basis function: 1757
    Number of Cartesian functions: 1997
    Spherical Harmonics?: true
    Max angular momentum: 3

  ==> Relaxed SCF Equations <==

  ==> SCF A: <==

    Maxiter =          50
    E Tol   =   1.000E-06
    D Tol   =   1.000E-08

    Max DIIS Vectors = 5

    Iter   N:                        E          dE         |D|
    Iter   1:  -2.2407915591638610E+02  -2.241E+02   1.177E-03 
    Iter   2:  -2.2408628799111762E+02  -7.132E-03   8.403E-05 DIIS
    Iter   3:  -2.2408642915002264E+02  -1.412E-04   3.668E-05 DIIS
    Iter   4:  -2.2408644958020605E+02  -2.043E-05   1.268E-05 DIIS
    Iter   5:  -2.2408645287722268E+02  -3.297E-06   3.278E-06 DIIS
    Iter   6:  -2.2408645320630302E+02  -3.291E-07   1.503E-06 DIIS
    Iter   7:  -2.2408645327553742E+02  -6.923E-08   5.202E-07 DIIS
    Iter   8:  -2.2408645328429949E+02  -8.762E-09   2.334E-07 DIIS
    Iter   9:  -2.2408645328643999E+02  -2.140E-09   7.454E-08 DIIS
    Iter  10:  -2.2408645328671173E+02  -2.717E-10   4.177E-08 DIIS
    Iter  11:  -2.2408645328677213E+02  -6.040E-11   1.747E-08 DIIS
    Iter  12:  -2.2408645328678000E+02  -7.873E-12   6.568E-09 DIIS

    FISAPTSCF Converged.

    Final SCF Energy:  -2.2408645328678000E+02 [Eh]

   => Occupied Orbital Energies <=

       1  -20.602840     2  -20.544367     3  -11.382121  
       4  -11.293223     5   -1.437026     6   -1.352206  
       7   -0.961861     8   -0.764049     9   -0.665838  
      10   -0.661874    11   -0.618683    12   -0.539524  
      13   -0.532592    14   -0.469311    15   -0.456770  

   => Virtual Orbital Energies <=

      16    0.030378    17    0.054771    18    0.056214  
      19    0.060869    20    0.070676    21    0.076168  
      22    0.081136    23    0.085709    24    0.090669  
      25    0.097296    26    0.101182    27    0.106856  
      28    0.115156    29    0.118696    30    0.121078  
      31    0.124460    32    0.128808    33    0.141394  
      34    0.143317    35    0.146423    36    0.150892  
      37    0.156120    38    0.162701    39    0.168893  
      40    0.173889    41    0.178764    42    0.185992  
      43    0.186330    44    0.189991    45    0.192839  
      46    0.206503    47    0.211876    48    0.215054  
      49    0.220740    50    0.226633    51    0.229082  
      52    0.234950    53    0.239877    54    0.241698  
      55    0.246416    56    0.260503    57    0.262375  
      58    0.266128    59    0.269311    60    0.273669  
      61    0.276441    62    0.286563    63    0.289104  
      64    0.295723    65    0.299371    66    0.310576  
      67    0.317912    68    0.321557    69    0.325147  
      70    0.329825    71    0.331816    72    0.341094  
      73    0.345629    74    0.351279    75    0.352990  
      76    0.359624    77    0.363548    78    0.373578  
      79    0.373694    80    0.381123    81    0.385658  
      82    0.394992    83    0.401493    84    0.406249  
      85    0.413216    86    0.418179    87    0.424447  
      88    0.429004    89    0.435960    90    0.437710  
      91    0.443288    92    0.444965    93    0.453752  
      94    0.454987    95    0.464302    96    0.465702  
      97    0.477625    98    0.482674    99    0.493866  
     100    0.504459   101    0.505844   102    0.516938  
     103    0.524441   104    0.531186   105    0.535426  
     106    0.539286   107    0.546048   108    0.556197  
     109    0.562706   110    0.578767   111    0.594350  
     112    0.604304   113    0.610774   114    0.614983  
     115    0.627679   116    0.637444   117    0.638117  
     118    0.652648   119    0.659525   120    0.676511  
     121    0.690129   122    0.714799   123    0.722401  
     124    0.755101   125    0.772443   126    0.787365  
     127    0.793672   128    0.815672   129    0.830904  
     130    0.844891   131    0.865781   132    0.872203  
     133    0.876929   134    0.883491   135    0.899238  
     136    0.906642   137    0.919383   138    0.925892  
     139    0.932404   140    0.937055   141    0.942735  
     142    0.955988   143    0.958152   144    0.962015  
     145    0.966706   146    0.970150   147    0.972799  
     148    0.984313   149    0.988614   150    1.001456  
     151    1.002771   152    1.014569   153    1.015397  
     154    1.025782   155    1.026568   156    1.040060  
     157    1.048603   158    1.057030   159    1.079469  
     160    1.079804   161    1.091246   162    1.104174  
     163    1.106987   164    1.117941   165    1.123696  
     166    1.126458   167    1.137110   168    1.139280  
     169    1.150193   170    1.163120   171    1.170294  
     172    1.193035   173    1.199046   174    1.229602  
     175    1.263450   176    1.296194   177    1.305197  
     178    1.317776   179    1.353203   180    1.369006  
     181    1.381856   182    1.394766   183    1.412316  
     184    1.450197   185    1.460048   186    1.497511  
     187    1.512154   188    1.519148   189    1.522938  
     190    1.537350   191    1.559179   192    1.567738  
     193    1.578643   194    1.590670   195    1.594954  
     196    1.608747   197    1.617646   198    1.625434  
     199    1.639655   200    1.662243   201    1.670362  
     202    1.674890   203    1.683695   204    1.701107  
     205    1.708726   206    1.725708   207    1.740345  
     208    1.750554   209    1.759348   210    1.771287  
     211    1.791109   212    1.805784   213    1.809494  
     214    1.822602   215    1.829541   216    1.835351  
     217    1.846729   218    1.864484   219    1.885312  
     220    1.890978   221    1.904047   222    1.920251  
     223    1.924362   224    1.928527   225    1.944403  
     226    1.957751   227    1.967075   228    1.980743  
     229    1.986966   230    1.990529   231    2.001747  
     232    2.012809   233    2.022112   234    2.030484  
     235    2.035920   236    2.046506   237    2.053373  
     238    2.060808   239    2.068754   240    2.076634  
     241    2.084920   242    2.089997   243    2.098118  
     244    2.109271   245    2.122256   246    2.133014  
     247    2.136911   248    2.147384   249    2.150925  
     250    2.168220   251    2.168955   252    2.184649  
     253    2.201694   254    2.213333   255    2.221230  
     256    2.236782   257    2.247832   258    2.263166  
     259    2.287795   260    2.296172   261    2.305405  
     262    2.311753   263    2.320435   264    2.330994  
     265    2.343004   266    2.353991   267    2.374793  
     268    2.379660   269    2.384334   270    2.392074  
     271    2.401545   272    2.411305   273    2.429917  
     274    2.439061   275    2.449457   276    2.461766  
     277    2.464202   278    2.496797   279    2.508750  
     280    2.522483   281    2.536157   282    2.571011  
     283    2.579139   284    2.583112   285    2.606069  
     286    2.642649   287    2.654212   288    2.668245  
     289    2.676137   290    2.692127   291    2.709643  
     292    2.733342   293    2.751189   294    2.774915  
     295    2.779816   296    2.785866   297    2.803197  
     298    2.814771   299    2.837920   300    2.864182  
     301    2.865038   302    2.868977   303    2.871791  
     304    2.886784   305    2.890496   306    2.893868  
     307    2.906057   308    2.916330   309    2.926770  
     310    2.939861   311    2.952423   312    2.963640  
     313    2.995531   314    3.001444   315    3.023652  
     316    3.030141   317    3.045842   318    3.081725  
     319    3.120257   320    3.144804   321    3.194999  
     322    3.272777   323    3.329419   324    3.391962  
     325    3.419428   326    3.444465   327    3.451361  
     328    3.553353   329    3.587340   330    3.642299  
     331    3.689116   332    3.745275   333    3.774506  
     334    3.823363   335    3.840863   336    3.944154  
     337    3.966323   338    4.003894   339    4.122763  
     340    4.143456   341    4.204907   342    4.435994  
     343    4.515372   344    4.542132   345    4.759925  
     346    4.940737   347    5.042922   348    5.068041  
     349    5.216663   350    5.323218   351    5.540275  
     352    5.619129   353    5.730709   354    5.857323  
     355    6.081098   356    6.336872   357    6.716082  
     358   13.391304   359   18.427612   360   33.424666  
     361   33.476021  

  ==> SCF B: <==

    Maxiter =          50
    E Tol   =   1.000E-06
    D Tol   =   1.000E-08

    Max DIIS Vectors = 5

    Iter   N:                        E          dE         |D|
    Iter   1:  -2.2411850773718598E+02  -2.241E+02   1.040E-03 
    Iter   2:  -2.2412538929962858E+02  -6.882E-03   8.176E-05 DIIS
    Iter   3:  -2.2412552195845365E+02  -1.327E-04   3.861E-05 DIIS
    Iter   4:  -2.2412554399994605E+02  -2.204E-05   1.262E-05 DIIS
    Iter   5:  -2.2412554740380733E+02  -3.404E-06   3.312E-06 DIIS
    Iter   6:  -2.2412554775469488E+02  -3.509E-07   1.573E-06 DIIS
    Iter   7:  -2.2412554783708515E+02  -8.239E-08   5.356E-07 DIIS
    Iter   8:  -2.2412554784658499E+02  -9.500E-09   2.181E-07 DIIS
    Iter   9:  -2.2412554784835152E+02  -1.767E-09   6.789E-08 DIIS
    Iter  10:  -2.2412554784855084E+02  -1.993E-10   3.943E-08 DIIS
    Iter  11:  -2.2412554784860225E+02  -5.141E-11   1.651E-08 DIIS
    Iter  12:  -2.2412554784860799E+02  -5.741E-12   6.125E-09 DIIS

    FISAPTSCF Converged.

    Final SCF Energy:  -2.2412554784860799E+02 [Eh]

   => Occupied Orbital Energies <=

       1  -20.604823     2  -20.546524     3  -11.384045  
       4  -11.293806     5   -1.435198     6   -1.355457  
       7   -0.960322     8   -0.763974     9   -0.667308  
      10   -0.661191    11   -0.620285    12   -0.541244  
      13   -0.534589    14   -0.471117    15   -0.459508  

   => Virtual Orbital Energies <=

      16    0.032632    17    0.055527    18    0.056793  
      19    0.063823    20    0.067336    21    0.074521  
      22    0.082397    23    0.086470    24    0.096233  
      25    0.098880    26    0.102131    27    0.104304  
      28    0.115021    29    0.117629    30    0.121716  
      31    0.126036    32    0.128326    33    0.137053  
      34    0.142554    35    0.147423    36    0.151194  
      37    0.161632    38    0.166743    39    0.169256  
      40    0.175020    41    0.180118    42    0.184215  
      43    0.188988    44    0.195624    45    0.200814  
      46    0.206632    47    0.214176    48    0.217202  
      49    0.218908    50    0.225903    51    0.232583  
      52    0.236441    53    0.241056    54    0.247039  
      55    0.252563    56    0.255538    57    0.259042  
      58    0.264229    59    0.266477    60    0.272123  
      61    0.275828    62    0.284398    63    0.289447  
      64    0.295921    65    0.301299    66    0.308857  
      67    0.314934    68    0.319981    69    0.323369  
      70    0.329514    71    0.337901    72    0.347246  
      73    0.350626    74    0.351316    75    0.358891  
      76    0.368010    77    0.371768    78    0.380096  
      79    0.381764    80    0.385174    81    0.388448  
      82    0.394297    83    0.397271    84    0.398692  
      85    0.407754    86    0.414871    87    0.422983  
      88    0.425887    89    0.432856    90    0.435096  
      91    0.439868    92    0.448973    93    0.450605  
      94    0.457685    95    0.460450    96    0.465558  
      97    0.484011    98    0.487512    99    0.497153  
     100    0.501587   101    0.512102   102    0.523010  
     103    0.523943   104    0.529342   105    0.536349  
     106    0.543042   107    0.548259   108    0.556425  
     109    0.572327   110    0.575558   111    0.593857  
     112    0.606446   113    0.615324   114    0.620418  
     115    0.626124   116    0.637001   117    0.639755  
     118    0.656787   119    0.662618   120    0.689612  
     121    0.712057   122    0.719243   123    0.744588  
     124    0.762057   125    0.785590   126    0.792793  
     127    0.796041   128    0.803386   129    0.828265  
     130    0.838780   131    0.861033   132    0.869857  
     133    0.875282   134    0.895059   135    0.900916  
     136    0.912424   137    0.920329   138    0.922575  
     139    0.928815   140    0.935859   141    0.943739  
     142    0.948937   143    0.952589   144    0.957573  
     145    0.964090   146    0.971851   147    0.978603  
     148    0.980742   149    0.986829   150    0.997932  
     151    1.005976   152    1.007131   153    1.015707  
     154    1.020723   155    1.034656   156    1.046693  
     157    1.062250   158    1.065212   159    1.078002  
     160    1.080387   161    1.092512   162    1.101580  
     163    1.103563   164    1.114044   165    1.121405  
     166    1.129913   167    1.138919   168    1.143356  
     169    1.155616   170    1.177536   171    1.182753  
     172    1.197066   173    1.204884   174    1.244092  
     175    1.244833   176    1.264972   177    1.290853  
     178    1.301963   179    1.349719   180    1.369044  
     181    1.387613   182    1.413969   183    1.415971  
     184    1.456665   185    1.477651   186    1.489604  
     187    1.508535   188    1.520818   189    1.530274  
     190    1.548006   191    1.558838   192    1.567399  
     193    1.584571   194    1.589237   195    1.599469  
     196    1.611382   197    1.621390   198    1.636926  
     199    1.655924   200    1.660262   201    1.669468  
     202    1.673342   203    1.685537   204    1.699459  
     205    1.705518   206    1.727988   207    1.734391  
     208    1.736110   209    1.754390   210    1.769456  
     211    1.798205   212    1.806082   213    1.817193  
     214    1.824879   215    1.828836   216    1.847196  
     217    1.858409   218    1.864719   219    1.884897  
     220    1.888188   221    1.895469   222    1.914106  
     223    1.927430   224    1.953507   225    1.954667  
     226    1.966771   227    1.975721   228    1.983298  
     229    1.985532   230    1.993557   231    2.004450  
     232    2.007472   233    2.015570   234    2.024200  
     235    2.034675   236    2.042740   237    2.048432  
     238    2.057560   239    2.082951   240    2.086358  
     241    2.100035   242    2.107902   243    2.112861  
     244    2.116353   245    2.124621   246    2.131519  
     247    2.136880   248    2.148053   249    2.159055  
     250    2.169767   251    2.173020   252    2.185698  
     253    2.190631   254    2.205773   255    2.211490  
     256    2.228278   257    2.259236   258    2.271791  
     259    2.289843   260    2.293318   261    2.301122  
     262    2.319552   263    2.325324   264    2.337550  
     265    2.348593   266    2.360510   267    2.376942  
     268    2.383977   269    2.391746   270    2.402382  
     271    2.413560   272    2.418329   273    2.427030  
     274    2.434170   275    2.452378   276    2.456025  
     277    2.481815   278    2.492906   279    2.508235  
     280    2.526920   281    2.535397   282    2.564527  
     283    2.571360   284    2.584960   285    2.630362  
     286    2.656937   287    2.663630   288    2.670371  
     289    2.696104   290    2.705566   291    2.720308  
     292    2.748964   293    2.758783   294    2.764949  
     295    2.783464   296    2.792855   297    2.799856  
     298    2.810979   299    2.836159   300    2.858630  
     301    2.868291   302    2.874053   303    2.882324  
     304    2.891087   305    2.894593   306    2.898972  
     307    2.904288   308    2.919381   309    2.922898  
     310    2.944005   311    2.955858   312    2.965292  
     313    2.996470   314    3.004369   315    3.026821  
     316    3.034880   317    3.041977   318    3.083103  
     319    3.120856   320    3.126833   321    3.193228  
     322    3.267375   323    3.322026   324    3.379979  
     325    3.418945   326    3.439512   327    3.454351  
     328    3.556362   329    3.599774   330    3.641367  
     331    3.678619   332    3.760684   333    3.773722  
     334    3.793205   335    3.872760   336    3.939453  
     337    3.982767   338    4.003780   339    4.128272  
     340    4.144022   341    4.224321   342    4.452654  
     343    4.523516   344    4.553806   345    4.758306  
     346    4.942936   347    5.050740   348    5.078191  
     349    5.243770   350    5.346875   351    5.527520  
     352    5.627886   353    5.751925   354    5.835789  
     355    6.162164   356    6.378942   357    6.702370  
     358   13.389130   359   18.436786   360   33.423482  
     361   33.490497  

  ==> Frozen Core <==


    ------------------
    Range      A     B
    ------------------
    nbf      396   396
    nmo      361   361
    nocc      15    15
    nvir     346   346
    nfocc      4     4
    naocc     11    11
    navir    346   346
    nfvir      0     0
    ------------------

  ==> Unification <==

  ==> dHF <==

    E ABC(HF) =  -8.3930576170401378E+02 [Eh]
    E AC(0)   =  -6.1126857941891785E+02 [Eh]
    E BC(0)   =  -6.1127747085710462E+02 [Eh]
    E A(0)    =  -2.1266098057839639E+02 [Eh]
    E B(0)    =  -2.1266058687406991E+02 [Eh]
    E AC(HF)  =  -6.1126128204852489E+02 [Eh]
    E BC(HF)  =  -6.1127043074568223E+02 [Eh]
    E AB(HF)  =  -4.2527451253787456E+02 [Eh]
    E A(HF)   =  -2.1264054420875004E+02 [Eh]
    E B(HF)   =  -2.1264099843526020E+02 [Eh]
    E C       =  -3.8321892098405425E+02 [Eh]
    E HF      =   2.1367587954443934E-02 [Eh]

  ==> Electrostatics <==

    Elst10,r            =     0.019675876172 [Eh]

  ==> Exchange <==

    Exch10(S^2)         =     0.003640208398 [Eh]
    Exch10              =     0.003645264651 [Eh]

  ==> Induction <==

    Ind20,u (A<-B)      =    -0.001327357658 [Eh]
    Ind20,u (B<-A)      =    -0.001401777971 [Eh]
    Ind20,u             =    -0.002729135629 [Eh]
    Exch-Ind20,u (A<-B) =     0.000413789272 [Eh]
    Exch-Ind20,u (B<-A) =     0.000612479376 [Eh]
    Exch-Ind20,u        =     0.001026268647 [Eh]

  ==> CPHF Iterations <==

    Maxiter     =          50
    Convergence =   1.000E-08

    -----------------------------------------
    Iter   Monomer A    Monomer B    Time [s]
    -----------------------------------------
    1      2.492E-01    2.600E-01           8
    2      8.138E-02    8.981E-02          15
    3      2.737E-02    2.788E-02          22
    4      1.067E-02    1.223E-02          29
    5      3.682E-03    4.142E-03          35
    6      1.172E-03    1.504E-03          42
    7      3.996E-04    4.274E-04          48
    8      1.451E-04    1.687E-04          55
    9      3.379E-05    4.001E-05          61
    10     1.040E-05    1.407E-05          68
    11     2.734E-06    4.832E-06          75
    12     8.369E-07    1.270E-06          82
    13     2.566E-07    2.294E-07          89
    14     6.486E-08    6.052E-08          95
    15     1.294E-08    1.417E-08         102
    16     3.366E-09*   2.634E-09*        109
    -----------------------------------------

    Ind20,r (A<-B)      =    -0.001463920753 [Eh]
    Ind20,r (B<-A)      =    -0.001584957113 [Eh]
    Ind20,r             =    -0.003048877866 [Eh]
    Exch-Ind20,r (A<-B) =     0.000488086498 [Eh]
    Exch-Ind20,r (B<-A) =     0.000752306341 [Eh]
    Exch-Ind20,r        =     0.001240392839 [Eh]

  ==> F-SAPT Localization (IBO) <==

  Local Orbitals for Monomer A:

  ==> IBO Localizer 2 <==

    MinAO Basis = CC-PVTZ-MINAO
    Use Ghosts  =       FALSE
    Use Stars   =       FALSE
    Condition   =   1.000E-07
    Power       =           4
    Convergence =   1.000E-12
    Maxiter     =        1000

    @IBO Iter:                   Metric       Gradient
    @IBO    1:   1.4835009103976757E+00   1.587893E+00
    @IBO    2:   1.6750424518466533E+00   1.089488E+00
    @IBO    3:   1.7098124353241262E+00   3.158748E-01
    @IBO    4:   1.7112118336586790E+00   9.520731E-03
    @IBO    5:   1.7112150631615599E+00   4.757779E-04
    @IBO    6:   1.7112150659590788E+00   8.306693E-06
    @IBO    7:   1.7112150659604444E+00   2.918581E-07
    @IBO    8:   1.7112150659604464E+00   1.154960E-08
    @IBO    9:   1.7112150659604464E+00   4.778264E-10
    @IBO   10:   1.7112150659604464E+00   1.987016E-11
    @IBO   11:   1.7112150659604464E+00   8.253591E-13

    IBO Localizer 2 converged.

  Local Orbitals for Monomer B:

  ==> IBO Localizer 2 <==

    MinAO Basis = CC-PVTZ-MINAO
    Use Ghosts  =       FALSE
    Use Stars   =       FALSE
    Condition   =   1.000E-07
    Power       =           4
    Convergence =   1.000E-12
    Maxiter     =        1000

    @IBO Iter:                   Metric       Gradient
    @IBO    1:   1.4808597989774073E+00   1.682068E+00
    @IBO    2:   1.6784723802556791E+00   9.361249E-01
    @IBO    3:   1.7099526768082649E+00   3.294221E-01
    @IBO    4:   1.7113713099294028E+00   5.061838E-03
    @IBO    5:   1.7113723575409896E+00   2.528708E-04
    @IBO    6:   1.7113723583584457E+00   4.375811E-06
    @IBO    7:   1.7113723583588187E+00   1.374235E-07
    @IBO    8:   1.7113723583588192E+00   4.560552E-09
    @IBO    9:   1.7113723583588192E+00   1.751869E-10
    @IBO   10:   1.7113723583588192E+00   7.118528E-12
    @IBO   11:   1.7113723583588192E+00   2.945815E-13

    IBO Localizer 2 converged.

  ==> F-SAPT Electrostatics <==

  ==> DFERI: Density Fitted 3-Index Tensors <==

    Schwarz cutoff =   0.000E+00
    J cutoff       =   1.000E-12
    Mem (GB)       =         628

   => Auxiliary Basis <=

  Basis Set: (JUN-CC-PVDZ AUX)
    Blend: JUN-CC-PVDZ-JKFIT
    Number of shells: 621
    Number of basis function: 1757
    Number of Cartesian functions: 1997
    Spherical Harmonics?: true
    Max angular momentum: 3

    Elst10,r            =     0.019675876119 [Eh]

  ==> F-SAPT Exchange <==

  ==> DFERI: Density Fitted 3-Index Tensors <==

    Schwarz cutoff =   0.000E+00
    J cutoff       =   1.000E-12
    Mem (GB)       =         628

   => Auxiliary Basis <=

  Basis Set: (JUN-CC-PVDZ AUX)
    Blend: JUN-CC-PVDZ-JKFIT
    Number of shells: 621
    Number of basis function: 1757
    Number of Cartesian functions: 1997
    Spherical Harmonics?: true
    Max angular momentum: 3

    Exch10(S^2)         =     0.003640208398 [Eh]

    Scaling F-SAPT Exch10(S^2) by   1.001E+00 to match Exch10

  ==> F-SAPT Induction <==

  ==> DFERI: Density Fitted 3-Index Tensors <==

    Schwarz cutoff =   0.000E+00
    J cutoff       =   1.000E-12
    Mem (GB)       =         628

   => Auxiliary Basis <=

  Basis Set: (JUN-CC-PVDZ AUX)
    Blend: JUN-CC-PVDZ-JKFIT
    Number of shells: 621
    Number of basis function: 1757
    Number of Cartesian functions: 1997
    Spherical Harmonics?: true
    Max angular momentum: 3

    Ind20,u (A<-B)      =    -0.001327357658 [Eh]
    Ind20,u (B<-A)      =    -0.001401777970 [Eh]
    Ind20,u             =    -0.002729135629 [Eh]
    Exch-Ind20,u (A<-B) =     0.000413789271 [Eh]
    Exch-Ind20,u (B<-A) =     0.000612479376 [Eh]
    Exch-Ind20,u        =     0.001026268647 [Eh]

    Scaling for delta HF        =   1.080E+00
    Scaling for response (A<-B) =   1.068E+00
    Scaling for response (B<-A) =   1.055E+00
    Scaling for total (A<-B)    =   1.154E+00
    Scaling for total (B<-A)    =   1.140E+00

  ==> F-SAPT Dispersion <==

  ==> DFERI: Density Fitted 3-Index Tensors <==

    Schwarz cutoff =   0.000E+00
    J cutoff       =   1.000E-12
    Mem (GB)       =         628

   => Auxiliary Basis <=

  Basis Set: (JUN-CC-PVDZ AUX)
    Blend: JUN-CC-PVDZ-RI
    Number of shells: 465
    Number of basis function: 1357
    Number of Cartesian functions: 1562
    Spherical Harmonics?: true
    Max angular momentum: 3

    Disp20              =    -0.003708899492 [Eh]
    Exch-Disp20         =     0.000320817984 [Eh]

  ==> F-SAPT Output <==

    F-SAPT Data Filepath = fsapt/

  ==> Results <==


    SAPT Results  
  --------------------------------------------------------------------------------------------------------
    Electrostatics                 19.67587617 [mEh]      12.34679922 [kcal/mol]      51.65901289 [kJ/mol]
      Elst10,r                     19.67587617 [mEh]      12.34679922 [kcal/mol]      51.65901289 [kJ/mol]

    Exchange                        3.64526465 [mEh]       2.28743820 [kcal/mol]       9.57064234 [kJ/mol]
      Exch10                        3.64526465 [mEh]       2.28743820 [kcal/mol]       9.57064234 [kJ/mol]
      Exch10(S^2)                   3.64020840 [mEh]       2.28426535 [kcal/mol]       9.55736715 [kJ/mol]

    Induction                      -1.95355287 [mEh]      -1.22587298 [kcal/mol]      -5.12905306 [kJ/mol]
      Ind20,r                      -3.04887787 [mEh]      -1.91319983 [kcal/mol]      -8.00482884 [kJ/mol]
      Exch-Ind20,r                  1.24039284 [mEh]       0.77835829 [kcal/mol]       3.25665140 [kJ/mol]
      delta HF,r (2)               -0.14506784 [mEh]      -0.09103145 [kcal/mol]      -0.38087562 [kJ/mol]
      Induction (A<-B)             -1.05411092 [mEh]      -0.66146461 [kcal/mol]      -2.76756821 [kJ/mol]
      Induction (B<-A)             -0.89944195 [mEh]      -0.56440837 [kcal/mol]      -2.36148485 [kJ/mol]

    Dispersion                     -3.38808151 [mEh]      -2.12605333 [kcal/mol]      -8.89540800 [kJ/mol]
      Disp20                       -3.70889949 [mEh]      -2.32736967 [kcal/mol]      -9.73771562 [kJ/mol]
      Exch-Disp20                   0.32081798 [mEh]       0.20131633 [kcal/mol]       0.84230762 [kJ/mol]

  Total HF                         21.36758795 [mEh]      13.40836443 [kcal/mol]      56.10060217 [kJ/mol]
  Total SAPT0                      17.97950645 [mEh]      11.28231110 [kcal/mol]      47.20519417 [kJ/mol]

  --------------------------------------------------------------------------------------------------------
    Han Solo: This is *not* gonna work.
    Luke Skywalker: Why didn't you say so before?
    Han Solo: I *did* say so before.

*** tstop() called on ThinkPad-P50 at Mon Jan 15 18:18:53 2018
Module time:
	user time   =     919.43 seconds =      15.32 minutes
	system time =       3.48 seconds =       0.06 minutes
	total time  =        265 seconds =       4.42 minutes
Total time:
	user time   =    1111.80 seconds =      18.53 minutes
	system time =       4.34 seconds =       0.07 minutes
	total time  =        330 seconds =       5.50 minutes

*** Psi4 exiting successfully. Buy a developer a beer!
