
    -----------------------------------------------------------------------
          Psi4: An Open-Source Ab Initio Electronic Structure Package
                               Psi4 1.1 release

                         Git: Rev {HEAD} add49b9 


    R. M. Parrish, L. A. Burns, D. G. A. Smith, A. C. Simmonett,
    A. E. DePrince III, E. G. Hohenstein, U. Bozkaya, A. Yu. Sokolov,
    R. Di Remigio, R. M. Richard, J. F. Gonthier, A. M. James,
    H. R. McAlexander, A. Kumar, M. Saitow, X. Wang, B. P. Pritchard,
    P. Verma, H. F. Schaefer III, K. Patkowski, R. A. King, E. F. Valeev,
    F. A. Evangelista, J. M. Turney, T. D. Crawford, and C. D. Sherrill,
    J. Chem. Theory Comput. in press (2017).
    (doi: 10.1021/acs.jctc.7b00174)

    -----------------------------------------------------------------------


    Psi4 started on: Monday, 15 January 2018 06:23PM

    Process ID:  20528
    PSIDATADIR: /home/junteng/Softwares/psi4conda/share/psi4
    Memory:     500.0 MiB
    Threads:    4
    
  ==> Input File <==

--------------------------------------------------------------------------
memory 750000 mb

molecule mol {
0 1
C         -1.15007       -2.35633       -1.45793
H         -0.35913       -2.08295       -2.15394
H         -0.88929       -3.30945       -0.98842
H         -2.08298       -2.49195       -2.00991
--
0 1
C          1.27189       -1.19180       -0.03155
O          1.61954       -1.12417       -1.18361
O          2.12096       -1.46760        0.98508
C          3.51182       -1.58970        0.63643
H          3.88556       -0.64080        0.24803
H          4.02065       -1.84659        1.56264
H          3.65281       -2.36984       -0.11271
--
0 1
C         -2.19239        2.18641       -0.11287
H         -1.48932        2.65631       -0.79855
H         -3.18392        2.19253       -0.57065
H         -2.23637        2.77386        0.80870
C          0.72431        1.49546        0.49714
O          1.52376        1.94221        1.28832
O          0.75351        1.75805       -0.81571
C          1.84256        2.57228       -1.28378
H          1.68367        2.67415       -2.35456
H          1.83178        3.54699       -0.79344
H          2.79483        2.07826       -1.08605
C         -0.39824        0.55005        0.89674
C         -0.11835       -0.96151        0.53049
C         -1.78233        0.76264        0.19713
C         -2.83079       -0.04902        1.01422
C         -2.55151       -1.49776        0.54055
C         -1.33607       -1.28951       -0.40204
O         -1.64589       -0.01896       -0.99821
H         -0.47974        0.65973        1.97719
H         -0.17401       -1.55527        1.44239
H         -3.83801        0.27366        0.74483
H         -2.71306        0.08969        2.09096
H         -3.38808       -1.89373       -0.03795
H         -2.34057       -2.19651        1.35252

symmetry c1
no_reorient
no_com
}

set {
basis jun-cc-pvdz
scf_type df
guess sad
freeze_core true
}

energy('fisapt0')
--------------------------------------------------------------------------

  Memory set to 698.492 GiB by Python driver.

*** tstart() called on ThinkPad-P50
*** at Mon Jan 15 18:23:28 2018

   => Loading Basis Set <=

    Name: JUN-CC-PVDZ
    Role: ORBITAL
    Keyword: BASIS
    atoms 1, 5, 8, 12, 16, 19, 23-28     entry C          line   157 file /home/junteng/Softwares/psi4conda/share/psi4/basis/jun-cc-pvdz.gbs 
    atoms 2-4, 9-11, 13-15, 20-22, 30-35 entry H          line    35 file /home/junteng/Softwares/psi4conda/share/psi4/basis/jun-cc-pvdz.gbs 
    atoms 6-7, 17-18, 29                 entry O          line   225 file /home/junteng/Softwares/psi4conda/share/psi4/basis/jun-cc-pvdz.gbs 


         ---------------------------------------------------------
                                   SCF
            by Justin Turney, Rob Parrish, and Andy Simmonett
                              RHF Reference
                        4 Threads, 715255 MiB Core
         ---------------------------------------------------------

  ==> Geometry <==

    Molecular point group: c1
    Full point group: C1

    Geometry (in Angstrom), charge = 0, multiplicity = 1:

       Center              X                  Y                   Z               Mass       
    ------------   -----------------  -----------------  -----------------  -----------------
           C         -1.150070000000    -2.356330000000    -1.457930000000    12.000000000000
           H         -0.359130000000    -2.082950000000    -2.153940000000     1.007825032070
           H         -0.889290000000    -3.309450000000    -0.988420000000     1.007825032070
           H         -2.082980000000    -2.491950000000    -2.009910000000     1.007825032070
           C          1.271890000000    -1.191800000000    -0.031550000000    12.000000000000
           O          1.619540000000    -1.124170000000    -1.183610000000    15.994914619560
           O          2.120960000000    -1.467600000000     0.985080000000    15.994914619560
           C          3.511820000000    -1.589700000000     0.636430000000    12.000000000000
           H          3.885560000000    -0.640800000000     0.248030000000     1.007825032070
           H          4.020650000000    -1.846590000000     1.562640000000     1.007825032070
           H          3.652810000000    -2.369840000000    -0.112710000000     1.007825032070
           C         -2.192390000000     2.186410000000    -0.112870000000    12.000000000000
           H         -1.489320000000     2.656310000000    -0.798550000000     1.007825032070
           H         -3.183920000000     2.192530000000    -0.570650000000     1.007825032070
           H         -2.236370000000     2.773860000000     0.808700000000     1.007825032070
           C          0.724310000000     1.495460000000     0.497140000000    12.000000000000
           O          1.523760000000     1.942210000000     1.288320000000    15.994914619560
           O          0.753510000000     1.758050000000    -0.815710000000    15.994914619560
           C          1.842560000000     2.572280000000    -1.283780000000    12.000000000000
           H          1.683670000000     2.674150000000    -2.354560000000     1.007825032070
           H          1.831780000000     3.546990000000    -0.793440000000     1.007825032070
           H          2.794830000000     2.078260000000    -1.086050000000     1.007825032070
           C         -0.398240000000     0.550050000000     0.896740000000    12.000000000000
           C         -0.118350000000    -0.961510000000     0.530490000000    12.000000000000
           C         -1.782330000000     0.762640000000     0.197130000000    12.000000000000
           C         -2.830790000000    -0.049020000000     1.014220000000    12.000000000000
           C         -2.551510000000    -1.497760000000     0.540550000000    12.000000000000
           C         -1.336070000000    -1.289510000000    -0.402040000000    12.000000000000
           O         -1.645890000000    -0.018960000000    -0.998210000000    15.994914619560
           H         -0.479740000000     0.659730000000     1.977190000000     1.007825032070
           H         -0.174010000000    -1.555270000000     1.442390000000     1.007825032070
           H         -3.838010000000     0.273660000000     0.744830000000     1.007825032070
           H         -2.713060000000     0.089690000000     2.090960000000     1.007825032070
           H         -3.388080000000    -1.893730000000    -0.037950000000     1.007825032070
           H         -2.340570000000    -2.196510000000     1.352520000000     1.007825032070

  Running in c1 symmetry.

  Rotational constants: A =      0.02090  B =      0.01592  C =      0.01165 [cm^-1]
  Rotational constants: A =    626.52235  B =    477.41725  C =    349.40609 [MHz]
  Nuclear repulsion = 1402.929937938825560

  Charge       = 0
  Multiplicity = 1
  Electrons    = 130
  Nalpha       = 65
  Nbeta        = 65

  ==> Algorithm <==

  SCF Algorithm Type is DF.
  DIIS enabled.
  MOM disabled.
  Fractional occupation disabled.
  Guess Type is SAD.
  Energy threshold   = 1.00e-08
  Density threshold  = 1.00e-08
  Integral threshold = 0.00e+00

  ==> Primary Basis <==

  Basis Set: JUN-CC-PVDZ
    Blend: JUN-CC-PVDZ
    Number of shells: 190
    Number of basis function: 396
    Number of Cartesian functions: 413
    Spherical Harmonics?: true
    Max angular momentum: 2

   => Loading Basis Set <=

    Name: (JUN-CC-PVDZ AUX)
    Role: JKFIT
    Keyword: DF_BASIS_SCF
    atoms 1, 5, 8, 12, 16, 19, 23-28     entry C          line   145 file /home/junteng/Softwares/psi4conda/share/psi4/basis/jun-cc-pvdz-jkfit.gbs 
    atoms 2-4, 9-11, 13-15, 20-22, 30-35 entry H          line    69 file /home/junteng/Softwares/psi4conda/share/psi4/basis/jun-cc-pvdz-jkfit.gbs 
    atoms 6-7, 17-18, 29                 entry O          line   257 file /home/junteng/Softwares/psi4conda/share/psi4/basis/jun-cc-pvdz-jkfit.gbs 

  ==> Pre-Iterations <==

   -------------------------------------------------------
    Irrep   Nso     Nmo     Nalpha   Nbeta   Ndocc  Nsocc
   -------------------------------------------------------
     A        396     396       0       0       0       0
   -------------------------------------------------------
    Total     396     396      65      65      65       0
   -------------------------------------------------------

  ==> Integral Setup <==

  ==> DFJK: Density-Fitted J/K Matrices <==

    J tasked:                  Yes
    K tasked:                  Yes
    wK tasked:                  No
    OpenMP threads:              4
    Integrals threads:           4
    Memory (MB):            536441
    Algorithm:                Core
    Integral Cache:           NONE
    Schwarz Cutoff:          1E-12
    Fitting Condition:       1E-12

   => Auxiliary Basis Set <=

  Basis Set: (JUN-CC-PVDZ AUX)
    Blend: JUN-CC-PVDZ-JKFIT
    Number of shells: 621
    Number of basis function: 1757
    Number of Cartesian functions: 1997
    Spherical Harmonics?: true
    Max angular momentum: 3

  Minimum eigenvalue in the overlap matrix is 7.4582337405E-06.
  Using Symmetric Orthogonalization.

  SCF Guess: Superposition of Atomic Densities via on-the-fly atomic UHF.

  ==> Iterations <==

                           Total Energy        Delta E     RMS |[F,P]|

   @DF-RHF iter   0:  -847.48025125194658   -8.47480e+02   3.99296e-02 
   @DF-RHF iter   1:  -838.73784766800452    8.74240e+00   4.68914e-03 
   @DF-RHF iter   2:  -839.15681957394929   -4.18972e-01   2.87707e-03 DIIS
   @DF-RHF iter   3:  -839.28520252813848   -1.28383e-01   8.11012e-04 DIIS
   @DF-RHF iter   4:  -839.30345210134010   -1.82496e-02   2.48462e-04 DIIS
   @DF-RHF iter   5:  -839.30540331150382   -1.95121e-03   7.82557e-05 DIIS
   @DF-RHF iter   6:  -839.30568051693058   -2.77205e-04   3.61833e-05 DIIS
   @DF-RHF iter   7:  -839.30574463414519   -6.41172e-05   1.42727e-05 DIIS
   @DF-RHF iter   8:  -839.30575884024393   -1.42061e-05   5.59452e-06 DIIS
   @DF-RHF iter   9:  -839.30576133215982   -2.49192e-06   2.19041e-06 DIIS
   @DF-RHF iter  10:  -839.30576164518777   -3.13028e-07   8.58984e-07 DIIS
   @DF-RHF iter  11:  -839.30576169591393   -5.07262e-08   3.40069e-07 DIIS
   @DF-RHF iter  12:  -839.30576170251720   -6.60327e-09   1.59934e-07 DIIS
   @DF-RHF iter  13:  -839.30576170377071   -1.25351e-09   6.12138e-08 DIIS
   @DF-RHF iter  14:  -839.30576170398649   -2.15778e-10   2.35331e-08 DIIS
   @DF-RHF iter  15:  -839.30576170401753   -3.10365e-11   7.36306e-09 DIIS

  ==> Post-Iterations <==

    Orbital Energies (a.u.)
    -----------------------

    Doubly Occupied:                                                      

       1A    -20.610909     2A    -20.605218     3A    -20.560857  
       4A    -20.558173     5A    -20.555178     6A    -11.391865  
       7A    -11.388545     8A    -11.301938     9A    -11.299641  
      10A    -11.294525    11A    -11.290910    12A    -11.267108  
      13A    -11.266471    14A    -11.238164    15A    -11.236637  
      16A    -11.228044    17A    -11.221917    18A     -1.469015  
      19A     -1.463813    20A     -1.400083    21A     -1.367417  
      22A     -1.362689    23A     -1.114790    24A     -1.075913  
      25A     -1.050968    26A     -0.993886    27A     -0.976188  
      28A     -0.966106    29A     -0.910811    30A     -0.872953  
      31A     -0.818068    32A     -0.784779    33A     -0.767260  
      34A     -0.758806    35A     -0.710072    36A     -0.692432  
      37A     -0.690514    38A     -0.677800    39A     -0.673959  
      40A     -0.660015    41A     -0.656993    42A     -0.647841  
      43A     -0.623743    44A     -0.597713    45A     -0.589227  
      46A     -0.580560    47A     -0.574325    48A     -0.563690  
      49A     -0.558306    50A     -0.545026    51A     -0.541023  
      52A     -0.531772    53A     -0.526111    54A     -0.508243  
      55A     -0.506409    56A     -0.502935    57A     -0.495406  
      58A     -0.485024    59A     -0.475443    60A     -0.468146  
      61A     -0.466767    62A     -0.452771    63A     -0.446624  
      64A     -0.423859    65A     -0.422249  

    Virtual:                                                              

      66A      0.051109    67A      0.054668    68A      0.056769  
      69A      0.065894    70A      0.071756    71A      0.078269  
      72A      0.082776    73A      0.092684    74A      0.100425  
      75A      0.102250    76A      0.107218    77A      0.112871  
      78A      0.116953    79A      0.122607    80A      0.124436  
      81A      0.126542    82A      0.137311    83A      0.140098  
      84A      0.148090    85A      0.151227    86A      0.154563  
      87A      0.160485    88A      0.163109    89A      0.169772  
      90A      0.173826    91A      0.177638    92A      0.181964  
      93A      0.185825    94A      0.188476    95A      0.206833  
      96A      0.210404    97A      0.212200    98A      0.217581  
      99A      0.224071   100A      0.228229   101A      0.233756  
     102A      0.237196   103A      0.240752   104A      0.243296  
     105A      0.249829   106A      0.254331   107A      0.258409  
     108A      0.262115   109A      0.263946   110A      0.270826  
     111A      0.276048   112A      0.279156   113A      0.293523  
     114A      0.303889   115A      0.308909   116A      0.311550  
     117A      0.314849   118A      0.318211   119A      0.325047  
     120A      0.328469   121A      0.332977   122A      0.345032  
     123A      0.352176   124A      0.356317   125A      0.359421  
     126A      0.366354   127A      0.368955   128A      0.373434  
     129A      0.375887   130A      0.383398   131A      0.388381  
     132A      0.398173   133A      0.404826   134A      0.407530  
     135A      0.411121   136A      0.415400   137A      0.420039  
     138A      0.424292   139A      0.425953   140A      0.430757  
     141A      0.436084   142A      0.442312   143A      0.448332  
     144A      0.449834   145A      0.453995   146A      0.459225  
     147A      0.463343   148A      0.474910   149A      0.485710  
     150A      0.489339   151A      0.496717   152A      0.504706  
     153A      0.509880   154A      0.513782   155A      0.525940  
     156A      0.530653   157A      0.538980   158A      0.540358  
     159A      0.548709   160A      0.561533   161A      0.568420  
     162A      0.576153   163A      0.591496   164A      0.598565  
     165A      0.608982   166A      0.620179   167A      0.641039  
     168A      0.650246   169A      0.666563   170A      0.711879  
     171A      0.722848   172A      0.747848   173A      0.763435  
     174A      0.772941   175A      0.776444   176A      0.800928  
     177A      0.807379   178A      0.821230   179A      0.833837  
     180A      0.855891   181A      0.859293   182A      0.867527  
     183A      0.870119   184A      0.876772   185A      0.896661  
     186A      0.904163   187A      0.905540   188A      0.912178  
     189A      0.917411   190A      0.926304   191A      0.931300  
     192A      0.937012   193A      0.942967   194A      0.946972  
     195A      0.954389   196A      0.961758   197A      0.964341  
     198A      0.964729   199A      0.974807   200A      0.977279  
     201A      0.982622   202A      0.988126   203A      0.992327  
     204A      1.000871   205A      1.005102   206A      1.007629  
     207A      1.025105   208A      1.036403   209A      1.046035  
     210A      1.052863   211A      1.065377   212A      1.080237  
     213A      1.085589   214A      1.088309   215A      1.097893  
     216A      1.111950   217A      1.116824   218A      1.120800  
     219A      1.125029   220A      1.136633   221A      1.138187  
     222A      1.163824   223A      1.182549   224A      1.205500  
     225A      1.228251   226A      1.247012   227A      1.258836  
     228A      1.274491   229A      1.286057   230A      1.313908  
     231A      1.325961   232A      1.343413   233A      1.356372  
     234A      1.381374   235A      1.431731   236A      1.437012  
     237A      1.447839   238A      1.469906   239A      1.477303  
     240A      1.488213   241A      1.507824   242A      1.512123  
     243A      1.531657   244A      1.545579   245A      1.557206  
     246A      1.560658   247A      1.579819   248A      1.584746  
     249A      1.596354   250A      1.608217   251A      1.618868  
     252A      1.624658   253A      1.636716   254A      1.651429  
     255A      1.658377   256A      1.671054   257A      1.677156  
     258A      1.684700   259A      1.691933   260A      1.697169  
     261A      1.703952   262A      1.712856   263A      1.717004  
     264A      1.733665   265A      1.741749   266A      1.752113  
     267A      1.758175   268A      1.780604   269A      1.798992  
     270A      1.814632   271A      1.825387   272A      1.834739  
     273A      1.841504   274A      1.864440   275A      1.870260  
     276A      1.881583   277A      1.890662   278A      1.904284  
     279A      1.909363   280A      1.929703   281A      1.940977  
     282A      1.949467   283A      1.957127   284A      1.969344  
     285A      1.972297   286A      1.978257   287A      1.985006  
     288A      1.996535   289A      1.996964   290A      2.005429  
     291A      2.012730   292A      2.030573   293A      2.034406  
     294A      2.041313   295A      2.054152   296A      2.056941  
     297A      2.061656   298A      2.071551   299A      2.073449  
     300A      2.081335   301A      2.098972   302A      2.104984  
     303A      2.119490   304A      2.123572   305A      2.128446  
     306A      2.147517   307A      2.157866   308A      2.168444  
     309A      2.180876   310A      2.193889   311A      2.201654  
     312A      2.222293   313A      2.230407   314A      2.250282  
     315A      2.272017   316A      2.279577   317A      2.281257  
     318A      2.311132   319A      2.315172   320A      2.331423  
     321A      2.338391   322A      2.346026   323A      2.362542  
     324A      2.379218   325A      2.383794   326A      2.404884  
     327A      2.407639   328A      2.412254   329A      2.419986  
     330A      2.428784   331A      2.436444   332A      2.448308  
     333A      2.452873   334A      2.458460   335A      2.493983  
     336A      2.509141   337A      2.532661   338A      2.542307  
     339A      2.572038   340A      2.604886   341A      2.632119  
     342A      2.649384   343A      2.676875   344A      2.716240  
     345A      2.725305   346A      2.753608   347A      2.762651  
     348A      2.768491   349A      2.777924   350A      2.796652  
     351A      2.805578   352A      2.818477   353A      2.841106  
     354A      2.848766   355A      2.855815   356A      2.869225  
     357A      2.876936   358A      2.885469   359A      2.885707  
     360A      2.891872   361A      2.902799   362A      2.921915  
     363A      2.928222   364A      2.945134   365A      2.962501  
     366A      2.988445   367A      2.996397   368A      3.017480  
     369A      3.041153   370A      3.053106   371A      3.062458  
     372A      3.116287   373A      3.131067   374A      3.175308  
     375A      3.262345   376A      3.269428   377A      3.295582  
     378A      3.335266   379A      3.351289   380A      3.410834  
     381A      3.418712   382A      3.431034   383A      3.537370  
     384A      3.565819   385A      3.592699   386A      3.620111  
     387A      3.698978   388A      3.706259   389A      3.741833  
     390A      3.776313   391A      3.825809   392A      3.917230  
     393A      3.953813   394A      3.979140   395A      4.088323  
     396A      4.158952  

    Final Occupation by Irrep:
              A 
    DOCC [    65 ]

  Energy converged.

  @DF-RHF Final Energy:  -839.30576170401753

   => Energetics <=

    Nuclear Repulsion Energy =           1402.9299379388255602
    One-Electron Energy =               -3936.9421143350855345
    Two-Electron Energy =                1694.7064146922423333
    DFT Exchange-Correlation Energy =       0.0000000000000000
    Empirical Dispersion Energy =           0.0000000000000000
    PCM Polarization Energy =               0.0000000000000000
    EFP Energy =                            0.0000000000000000
    Total Energy =                       -839.3057617040174136



Properties will be evaluated at   0.000000,   0.000000,   0.000000 Bohr

Properties computed using the SCF density matrix

  Nuclear Dipole Moment: (a.u.)
     X:    -0.7278      Y:    -1.7733      Z:    -0.6137

  Electronic Dipole Moment: (a.u.)
     X:     0.3728      Y:     1.3953      Z:     1.0601

  Dipole Moment: (a.u.)
     X:    -0.3550      Y:    -0.3780      Z:     0.4464     Total:     0.6843

  Dipole Moment: (Debye)
     X:    -0.9024      Y:    -0.9609      Z:     1.1346     Total:     1.7392


*** tstop() called on ThinkPad-P50 at Mon Jan 15 18:24:33 2018
Module time:
	user time   =     195.12 seconds =       3.25 minutes
	system time =       0.96 seconds =       0.02 minutes
	total time  =         65 seconds =       1.08 minutes
Total time:
	user time   =     195.12 seconds =       3.25 minutes
	system time =       0.96 seconds =       0.02 minutes
	total time  =         65 seconds =       1.08 minutes
   => Loading Basis Set <=

    Name: (JUN-CC-PVDZ AUX)
    Role: JKFIT
    Keyword: DF_BASIS_SCF
    atoms 1, 5, 8, 12, 16, 19, 23-28     entry C          line   145 file /home/junteng/Softwares/psi4conda/share/psi4/basis/jun-cc-pvdz-jkfit.gbs 
    atoms 2-4, 9-11, 13-15, 20-22, 30-35 entry H          line    69 file /home/junteng/Softwares/psi4conda/share/psi4/basis/jun-cc-pvdz-jkfit.gbs 
    atoms 6-7, 17-18, 29                 entry O          line   257 file /home/junteng/Softwares/psi4conda/share/psi4/basis/jun-cc-pvdz-jkfit.gbs 

   => Loading Basis Set <=

    Name: (JUN-CC-PVDZ AUX)
    Role: RIFIT
    Keyword: DF_BASIS_SAPT
    atoms 1, 5, 8, 12, 16, 19, 23-28     entry C          line    99 file /home/junteng/Softwares/psi4conda/share/psi4/basis/jun-cc-pvdz-ri.gbs 
    atoms 2-4, 9-11, 13-15, 20-22, 30-35 entry H          line    29 file /home/junteng/Softwares/psi4conda/share/psi4/basis/jun-cc-pvdz-ri.gbs 
    atoms 6-7, 17-18, 29                 entry O          line   187 file /home/junteng/Softwares/psi4conda/share/psi4/basis/jun-cc-pvdz-ri.gbs 

   => Loading Basis Set <=

    Name: CC-PVTZ-MINAO
    Role: ORBITAL
    Keyword: BASIS
    atoms 1, 5, 8, 12, 16, 19, 23-28     entry C          line   130 file /home/junteng/Softwares/psi4conda/share/psi4/basis/cc-pvtz-minao.gbs 
    atoms 2-4, 9-11, 13-15, 20-22, 30-35 entry H          line    19 file /home/junteng/Softwares/psi4conda/share/psi4/basis/cc-pvtz-minao.gbs 
    atoms 6-7, 17-18, 29                 entry O          line   190 file /home/junteng/Softwares/psi4conda/share/psi4/basis/cc-pvtz-minao.gbs 


*** tstart() called on ThinkPad-P50
*** at Mon Jan 15 18:24:34 2018

	 --------------------------------------------
	                    FISAPT0                  
	                  Rob Parrish                
	 --------------------------------------------

    Do F-SAPT =         Yes
    Do Plot   =          No
    Memory    =      78.580 [GD]

  ==> Localization (IBO) <==

  ==> IBO Localizer 2 <==

    MinAO Basis = CC-PVTZ-MINAO
    Use Ghosts  =       FALSE
    Use Stars   =       FALSE
    Condition   =   1.000E-07
    Power       =           4
    Convergence =   1.000E-12
    Maxiter     =        1000

    @IBO Iter:                   Metric       Gradient
    @IBO    1:   1.9898161417314102E+00   2.863501E+00
    @IBO    2:   2.2527812799010802E+00   2.455286E+00
    @IBO    3:   2.3453483564928956E+00   1.088373E+00
    @IBO    4:   2.3579479328748594E+00   1.695998E-01
    @IBO    5:   2.3584455410428005E+00   6.096066E-03
    @IBO    6:   2.3584461760658764E+00   5.139650E-05
    @IBO    7:   2.3584461760986390E+00   1.342248E-06
    @IBO    8:   2.3584461760986635E+00   6.307477E-08
    @IBO    9:   2.3584461760986635E+00   2.990450E-09
    @IBO   10:   2.3584461760986635E+00   1.376923E-10
    @IBO   11:   2.3584461760986630E+00   6.264391E-12
    @IBO   12:   2.3584461760986630E+00   2.865865E-13

    IBO Localizer 2 converged.

  ==> Partitioning <==

   => Atomic Partitioning <= 

    Monomer A:   4 atoms
    Monomer B:   7 atoms
    Monomer C:  24 atoms

   => Link Bond Identification <=

    Link Bond Selection = AUTOMATIC

    Charge Completeness = 0.800

    Total Link Bonds = 2

    --------------------------
    N     Orb Type Aind1 Aind2
    --------------------------
    1      28   AC     1    28
    2      52   BC     5    24
    --------------------------

   => Link Bond Assignment <=

    Link Bond Assignment      = C

   => Partition Summary <=

    Monomer A:  0 charge,   8 protons,   8 electrons,   4 docc
    Monomer B:  0 charge,  30 protons,  30 electrons,  15 docc
    Monomer C:  0 charge,  92 protons,  92 electrons,  46 docc

  ==> Overlap Integrals <==

  ==> Kinetic Integrals <==

  ==> Nuclear Integrals <==

    Nuclear Repulsion Tot:   1.4029299379388240E+03 [Eh]

  ==> Coulomb Integrals <==

  ==> DFJK: Density-Fitted J/K Matrices <==

    J tasked:                  Yes
    K tasked:                  Yes
    wK tasked:                  No
    OpenMP threads:              4
    Integrals threads:           4
    Memory (MB):            643730
    Algorithm:                Core
    Integral Cache:           NONE
    Schwarz Cutoff:          1E-12
    Fitting Condition:       1E-12

   => Auxiliary Basis Set <=

  Basis Set: (JUN-CC-PVDZ AUX)
    Blend: JUN-CC-PVDZ-JKFIT
    Number of shells: 621
    Number of basis function: 1757
    Number of Cartesian functions: 1997
    Spherical Harmonics?: true
    Max angular momentum: 3

  ==> Relaxed SCF Equations <==

  ==> SCF A: <==

    Maxiter =          50
    E Tol   =   1.000E-06
    D Tol   =   1.000E-08

    Max DIIS Vectors = 5

    Iter   N:                        E          dE         |D|
    Iter   1:  -3.6233173715986062E+01  -3.623E+01   4.848E-04 
    Iter   2:  -3.6236086851068180E+01  -2.913E-03   5.625E-05 DIIS
    Iter   3:  -3.6236196262079922E+01  -1.094E-04   1.369E-05 DIIS
    Iter   4:  -3.6236205206804314E+01  -8.945E-06   3.492E-06 DIIS
    Iter   5:  -3.6236205733300999E+01  -5.265E-07   6.499E-07 DIIS
    Iter   6:  -3.6236205750108525E+01  -1.681E-08   7.887E-08 DIIS
    Iter   7:  -3.6236205750387143E+01  -2.786E-10   1.204E-08 DIIS
    Iter   8:  -3.6236205750393530E+01  -6.388E-12   1.704E-09 DIIS

    FISAPTSCF Converged.

    Final SCF Energy:  -3.6236205750393530E+01 [Eh]

   => Occupied Orbital Energies <=

       1  -11.223473     2   -0.839216     3   -0.550345  
       4   -0.548784  

   => Virtual Orbital Energies <=

       5    0.030754     6    0.054563     7    0.056169  
       8    0.061047     9    0.070602    10    0.076256  
      11    0.081192    12    0.086096    13    0.090820  
      14    0.097343    15    0.101089    16    0.106612  
      17    0.115420    18    0.118872    19    0.120985  
      20    0.124369    21    0.129196    22    0.141511  
      23    0.143282    24    0.146389    25    0.150862  
      26    0.156384    27    0.162959    28    0.169257  
      29    0.173673    30    0.180108    31    0.186495  
      32    0.186843    33    0.190414    34    0.193688  
      35    0.206883    36    0.212263    37    0.215295  
      38    0.220555    39    0.226937    40    0.229378  
      41    0.235008    42    0.239909    43    0.242129  
      44    0.246677    45    0.260970    46    0.262579  
      47    0.266322    48    0.269634    49    0.273542  
      50    0.276425    51    0.286900    52    0.289094  
      53    0.296157    54    0.299751    55    0.310779  
      56    0.318145    57    0.321746    58    0.324712  
      59    0.330166    60    0.331912    61    0.341107  
      62    0.345206    63    0.351567    64    0.353289  
      65    0.359577    66    0.363921    67    0.373558  
      68    0.373959    69    0.381047    70    0.386013  
      71    0.394942    72    0.401735    73    0.406585  
      74    0.413776    75    0.418321    76    0.424453  
      77    0.428693    78    0.435639    79    0.438443  
      80    0.443656    81    0.444967    82    0.453766  
      83    0.455302    84    0.464965    85    0.466023  
      86    0.477929    87    0.482589    88    0.494088  
      89    0.505327    90    0.506549    91    0.516918  
      92    0.524509    93    0.531284    94    0.535785  
      95    0.540576    96    0.546224    97    0.556646  
      98    0.563343    99    0.579231   100    0.596077  
     101    0.604651   102    0.611354   103    0.615596  
     104    0.628676   105    0.637836   106    0.638638  
     107    0.653347   108    0.660394   109    0.677972  
     110    0.690844   111    0.715611   112    0.724401  
     113    0.755470   114    0.772975   115    0.787346  
     116    0.793403   117    0.815334   118    0.830943  
     119    0.844851   120    0.866138   121    0.872979  
     122    0.876361   123    0.883175   124    0.899228  
     125    0.907097   126    0.919163   127    0.925978  
     128    0.932128   129    0.937138   130    0.943326  
     131    0.955614   132    0.959087   133    0.962310  
     134    0.966152   135    0.970802   136    0.972855  
     137    0.985072   138    0.990050   139    1.001707  
     140    1.004752   141    1.014661   142    1.016089  
     143    1.025901   144    1.027753   145    1.040458  
     146    1.049110   147    1.057669   148    1.079889  
     149    1.081037   150    1.091871   151    1.104599  
     152    1.106750   153    1.118366   154    1.123227  
     155    1.125907   156    1.137945   157    1.140573  
     158    1.150137   159    1.163827   160    1.171663  
     161    1.193345   162    1.199656   163    1.230404  
     164    1.262860   165    1.296859   166    1.306440  
     167    1.318095   168    1.354428   169    1.369303  
     170    1.382277   171    1.395581   172    1.413972  
     173    1.452148   174    1.459880   175    1.497767  
     176    1.513446   177    1.519808   178    1.524159  
     179    1.537845   180    1.560313   181    1.568293  
     182    1.578836   183    1.591463   184    1.595534  
     185    1.609417   186    1.618197   187    1.626426  
     188    1.639860   189    1.663057   190    1.668337  
     191    1.675397   192    1.684185   193    1.701413  
     194    1.709212   195    1.726603   196    1.740649  
     197    1.750681   198    1.760176   199    1.771420  
     200    1.791850   201    1.806183   202    1.809932  
     203    1.822609   204    1.829906   205    1.835694  
     206    1.846879   207    1.864974   208    1.885238  
     209    1.891301   210    1.904766   211    1.920958  
     212    1.924406   213    1.929581   214    1.944347  
     215    1.957829   216    1.967010   217    1.980673  
     218    1.986741   219    1.990884   220    2.001325  
     221    2.012898   222    2.022048   223    2.030556  
     224    2.036106   225    2.045403   226    2.053367  
     227    2.059790   228    2.068964   229    2.076991  
     230    2.085197   231    2.090656   232    2.098146  
     233    2.109124   234    2.122503   235    2.133103  
     236    2.137561   237    2.148104   238    2.151627  
     239    2.167894   240    2.168762   241    2.186055  
     242    2.201827   243    2.214182   244    2.221955  
     245    2.236545   246    2.248215   247    2.263126  
     248    2.288193   249    2.296694   250    2.306696  
     251    2.312498   252    2.321245   253    2.331803  
     254    2.344093   255    2.354118   256    2.374642  
     257    2.379158   258    2.384825   259    2.392260  
     260    2.400835   261    2.410698   262    2.429353  
     263    2.439562   264    2.450235   265    2.463107  
     266    2.464829   267    2.497178   268    2.508947  
     269    2.523369   270    2.536752   271    2.571633  
     272    2.580691   273    2.583832   274    2.607391  
     275    2.643056   276    2.654785   277    2.668624  
     278    2.676248   279    2.692729   280    2.709924  
     281    2.734012   282    2.751449   283    2.775478  
     284    2.779465   285    2.784837   286    2.802819  
     287    2.813961   288    2.838221   289    2.863755  
     290    2.865142   291    2.868120   292    2.871385  
     293    2.886797   294    2.890390   295    2.893356  
     296    2.905562   297    2.915681   298    2.927392  
     299    2.940073   300    2.952284   301    2.963667  
     302    2.997407   303    3.001995   304    3.024038  
     305    3.030717   306    3.047018   307    3.082457  
     308    3.120983   309    3.145187   310    3.194876  
     311    3.273532   312    3.330963   313    3.393334  
     314    3.420517   315    3.444645   316    3.451906  
     317    3.553315   318    3.589207   319    3.643871  
     320    3.690983   321    3.745853   322    3.775397  
     323    3.824724   324    3.842696   325    3.945144  
     326    3.967020   327    4.005447   328    4.124573  
     329    4.145704   330    4.207173   331    4.437047  
     332    4.516867   333    4.543626   334    4.761754  
     335    4.942527   336    5.043197   337    5.068445  
     338    5.217863   339    5.324034   340    5.542396  
     341    5.620309   342    5.732140   343    5.859668  
     344    6.082182   345    6.338064   346    6.718289  
     347   13.393188   348   18.427947   349   33.426963  
     350   33.477192  

  ==> SCF B: <==

    Maxiter =          50
    E Tol   =   1.000E-06
    D Tol   =   1.000E-08

    Max DIIS Vectors = 5

    Iter   N:                        E          dE         |D|
    Iter   1:  -2.2418775936563486E+02  -2.242E+02   1.020E-03 
    Iter   2:  -2.2419779818627606E+02  -1.004E-02   9.462E-05 DIIS
    Iter   3:  -2.2419814231588936E+02  -3.441E-04   2.653E-05 DIIS
    Iter   4:  -2.2419816577601105E+02  -2.346E-05   1.504E-05 DIIS
    Iter   5:  -2.2419816962611441E+02  -3.850E-06   2.534E-06 DIIS
    Iter   6:  -2.2419816988941531E+02  -2.633E-07   1.136E-06 DIIS
    Iter   7:  -2.2419816991773567E+02  -2.832E-08   3.901E-07 DIIS
    Iter   8:  -2.2419816992411853E+02  -6.383E-09   1.430E-07 DIIS
    Iter   9:  -2.2419816992529499E+02  -1.176E-09   6.522E-08 DIIS
    Iter  10:  -2.2419816992555829E+02  -2.633E-10   2.794E-08 DIIS
    Iter  11:  -2.2419816992560871E+02  -5.042E-11   1.133E-08 DIIS
    Iter  12:  -2.2419816992561087E+02  -2.160E-12   5.160E-09 DIIS

    FISAPTSCF Converged.

    Final SCF Energy:  -2.2419816992561087E+02 [Eh]

   => Occupied Orbital Energies <=

       1  -20.606720     2  -20.553132     3  -11.386911  
       4  -11.291960     5   -1.438037     6   -1.359204  
       7   -0.959579     8   -0.765186     9   -0.671216  
      10   -0.661915    11   -0.620604    12   -0.543478  
      13   -0.534989    14   -0.474811    15   -0.460840  

   => Virtual Orbital Energies <=

      16    0.014126    17    0.055363    18    0.057808  
      19    0.061262    20    0.069954    21    0.077324  
      22    0.080529    23    0.090292    24    0.095882  
      25    0.102522    26    0.106678    27    0.110737  
      28    0.113405    29    0.114783    30    0.119998  
      31    0.125400    32    0.129374    33    0.138226  
      34    0.142130    35    0.149614    36    0.154574  
      37    0.157757    38    0.162476    39    0.166870  
      40    0.172524    41    0.176706    42    0.181068  
      43    0.184279    44    0.188433    45    0.191853  
      46    0.207114    47    0.212420    48    0.214399  
      49    0.224358    50    0.227242    51    0.230698  
      52    0.232357    53    0.237975    54    0.241308  
      55    0.247461    56    0.248079    57    0.259427  
      58    0.261660    59    0.269426    60    0.275533  
      61    0.277938    62    0.279650    63    0.302068  
      64    0.304941    65    0.313490    66    0.315796  
      67    0.319550    68    0.324503    69    0.329270  
      70    0.332484    71    0.334360    72    0.340723  
      73    0.348120    74    0.353165    75    0.360865  
      76    0.367454    77    0.371822    78    0.381591  
      79    0.384338    80    0.386792    81    0.392468  
      82    0.402222    83    0.404689    84    0.409956  
      85    0.414442    86    0.418993    87    0.425452  
      88    0.430438    89    0.433089    90    0.438847  
      91    0.440058    92    0.443806    93    0.449603  
      94    0.453117    95    0.461837    96    0.464091  
      97    0.466593    98    0.481712    99    0.495771  
     100    0.499243   101    0.506656   102    0.512062  
     103    0.514790   104    0.521932   105    0.526060  
     106    0.544829   107    0.545741   108    0.551713  
     109    0.564101   110    0.575041   111    0.579268  
     112    0.581766   113    0.589501   114    0.604534  
     115    0.608721   116    0.612907   117    0.642153  
     118    0.649651   119    0.656297   120    0.672817  
     121    0.685228   122    0.706339   123    0.727103  
     124    0.745700   125    0.770350   126    0.783789  
     127    0.790871   128    0.812741   129    0.823729  
     130    0.832546   131    0.846822   132    0.863559  
     133    0.873981   134    0.881389   135    0.884513  
     136    0.906896   137    0.915943   138    0.919662  
     139    0.922862   140    0.931537   141    0.940525  
     142    0.944551   143    0.948903   144    0.961661  
     145    0.963515   146    0.967730   147    0.972689  
     148    0.981463   149    0.986323   150    0.995791  
     151    0.996240   152    1.005603   153    1.009443  
     154    1.018711   155    1.027556   156    1.038914  
     157    1.046603   158    1.056955   159    1.077016  
     160    1.079655   161    1.085458   162    1.096827  
     163    1.109213   164    1.126307   165    1.130167  
     166    1.131591   167    1.139491   168    1.150915  
     169    1.160721   170    1.181028   171    1.223131  
     172    1.241436   173    1.258621   174    1.268580  
     175    1.295880   176    1.298842   177    1.326353  
     178    1.344506   179    1.350588   180    1.386555  
     181    1.404228   182    1.411804   183    1.451553  
     184    1.462591   185    1.484699   186    1.490810  
     187    1.500903   188    1.505556   189    1.519725  
     190    1.526248   191    1.534025   192    1.553823  
     193    1.560399   194    1.569934   195    1.579850  
     196    1.589626   197    1.608345   198    1.621613  
     199    1.626402   200    1.636304   201    1.639849  
     202    1.653960   203    1.665215   204    1.669272  
     205    1.684398   206    1.687190   207    1.699573  
     208    1.706735   209    1.709072   210    1.716301  
     211    1.727880   212    1.740308   213    1.753497  
     214    1.760968   215    1.768826   216    1.787064  
     217    1.793389   218    1.815960   219    1.841565  
     220    1.849877   221    1.867669   222    1.879667  
     223    1.891601   224    1.895027   225    1.911649  
     226    1.918075   227    1.925530   228    1.938617  
     229    1.946651   230    1.948246   231    1.963760  
     232    1.977799   233    1.981522   234    1.985318  
     235    1.994804   236    1.999891   237    2.007426  
     238    2.008901   239    2.016726   240    2.029383  
     241    2.041504   242    2.044208   243    2.056419  
     244    2.062261   245    2.063602   246    2.067372  
     247    2.093016   248    2.096601   249    2.114792  
     250    2.120831   251    2.126166   252    2.140245  
     253    2.142388   254    2.156342   255    2.164252  
     256    2.172479   257    2.184938   258    2.202764  
     259    2.209825   260    2.232657   261    2.246213  
     262    2.265668   263    2.272364   264    2.283106  
     265    2.303782   266    2.308994   267    2.323235  
     268    2.346036   269    2.349356   270    2.356037  
     271    2.377983   272    2.384775   273    2.403511  
     274    2.409768   275    2.416386   276    2.424532  
     277    2.427873   278    2.439206   279    2.441897  
     280    2.446803   281    2.451276   282    2.475462  
     283    2.495728   284    2.515664   285    2.538239  
     286    2.560935   287    2.585804   288    2.603419  
     289    2.611168   290    2.623099   291    2.638581  
     292    2.659456   293    2.686429   294    2.714099  
     295    2.734527   296    2.755401   297    2.763620  
     298    2.775882   299    2.792615   300    2.797698  
     301    2.822295   302    2.835966   303    2.850311  
     304    2.859588   305    2.866817   306    2.872113  
     307    2.883514   308    2.888469   309    2.892199  
     310    2.918126   311    2.922503   312    2.942634  
     313    2.967338   314    2.977857   315    2.994438  
     316    3.013077   317    3.025736   318    3.038318  
     319    3.057260   320    3.094164   321    3.100062  
     322    3.125137   323    3.155612   324    3.189446  
     325    3.267390   326    3.275722   327    3.300872  
     328    3.340869   329    3.361450   330    3.419817  
     331    3.453328   332    3.455906   333    3.571654  
     334    3.576422   335    3.603964   336    3.633470  
     337    3.699535   338    3.714357   339    3.762127  
     340    3.780808   341    3.822732   342    3.924172  
     343    3.941568   344    3.961679   345    3.993353  
     346    4.094641   347    4.171359   348    4.534319  
     349    4.557192   350   13.293007  

  ==> Frozen Core <==


    ------------------
    Range      A     B
    ------------------
    nbf      396   396
    nmo      350   350
    nocc       4    15
    nvir     346   335
    nfocc      1     4
    naocc      3    11
    navir    346   335
    nfvir      0     0
    ------------------

  ==> Unification <==

  ==> dHF <==

    E ABC(HF) =  -8.3930576170401753E+02 [Eh]
    E AC(0)   =  -6.1126431414347917E+02 [Eh]
    E BC(0)   =  -7.9915421858651916E+02 [Eh]
    E A(0)    =  -2.5031894574094835E+01 [Eh]
    E B(0)    =  -2.1265787878157602E+02 [Eh]
    E AC(HF)  =  -6.1126128210907075E+02 [Eh]
    E BC(HF)  =  -7.9914380802654387E+02 [Eh]
    E AB(HF)  =  -2.3765985106479661E+02 [Eh]
    E A(HF)   =  -2.5016558555186172E+01 [Eh]
    E B(HF)   =  -2.1264099846004439E+02 [Eh]
    E C       =  -5.7110162248116058E+02 [Eh]
    E HF      =   1.1148544820230200E-02 [Eh]

  ==> Electrostatics <==

    Elst10,r            =     0.006655486200 [Eh]

  ==> Exchange <==

    Exch10(S^2)         =     0.005987140568 [Eh]
    Exch10              =     0.006013931971 [Eh]

  ==> Induction <==

    Ind20,u (A<-B)      =    -0.001450333221 [Eh]
    Ind20,u (B<-A)      =    -0.000594253746 [Eh]
    Ind20,u             =    -0.002044586967 [Eh]
    Exch-Ind20,u (A<-B) =     0.000708190993 [Eh]
    Exch-Ind20,u (B<-A) =     0.000402773106 [Eh]
    Exch-Ind20,u        =     0.001110964099 [Eh]

  ==> CPHF Iterations <==

    Maxiter     =          50
    Convergence =   1.000E-08

    -----------------------------------------
    Iter   Monomer A    Monomer B    Time [s]
    -----------------------------------------
    1      1.505E-01    2.417E-01           6
    2      2.535E-02    8.961E-02          12
    3      6.714E-03    2.073E-02          18
    4      9.325E-04    8.605E-03          25
    5      9.147E-05    3.261E-03          31
    6      1.356E-05    1.566E-03          37
    7      2.206E-06    4.741E-04          43
    8      3.435E-07    1.620E-04          49
    9      3.900E-08    3.137E-05          56
    10     3.314E-09*   9.250E-06          62
    11     3.314E-09*   2.682E-06          65
    12     3.314E-09*   4.564E-07          68
    13     3.314E-09*   1.456E-07          71
    14     3.314E-09*   4.005E-08          74
    15     3.314E-09*   8.231E-09*         78
    -----------------------------------------

    Ind20,r (A<-B)      =    -0.001709165679 [Eh]
    Ind20,r (B<-A)      =    -0.000721362103 [Eh]
    Ind20,r             =    -0.002430527782 [Eh]
    Exch-Ind20,r (A<-B) =     0.000841695242 [Eh]
    Exch-Ind20,r (B<-A) =     0.000539325925 [Eh]
    Exch-Ind20,r        =     0.001381021167 [Eh]

  ==> F-SAPT Localization (IBO) <==

  Local Orbitals for Monomer A:

  ==> IBO Localizer 2 <==

    MinAO Basis = CC-PVTZ-MINAO
    Use Ghosts  =       FALSE
    Use Stars   =       FALSE
    Condition   =   1.000E-07
    Power       =           4
    Convergence =   1.000E-12
    Maxiter     =        1000

    @IBO Iter:                   Metric       Gradient
    @IBO    1:   1.0649026963531814E+00   7.314918E-02
    @IBO    2:   1.0829202359355570E+00   3.088582E-02
    @IBO    3:   1.0836355607415875E+00   7.404956E-04
    @IBO    4:   1.0836359458816394E+00   1.120777E-07
    @IBO    5:   1.0836359458816482E+00   2.014352E-10
    @IBO    6:   1.0836359458816482E+00   7.884275E-15

    IBO Localizer 2 converged.

  Local Orbitals for Monomer B:

  ==> IBO Localizer 2 <==

    MinAO Basis = CC-PVTZ-MINAO
    Use Ghosts  =       FALSE
    Use Stars   =       FALSE
    Condition   =   1.000E-07
    Power       =           4
    Convergence =   1.000E-12
    Maxiter     =        1000

    @IBO Iter:                   Metric       Gradient
    @IBO    1:   1.4793531149376449E+00   1.674591E+00
    @IBO    2:   1.6769271139644100E+00   9.463174E-01
    @IBO    3:   1.7083294151912862E+00   3.696770E-01
    @IBO    4:   1.7100943000217681E+00   5.771915E-03
    @IBO    5:   1.7100958086089226E+00   1.980216E-04
    @IBO    6:   1.7100958090149063E+00   1.815588E-06
    @IBO    7:   1.7100958090149865E+00   7.854976E-08
    @IBO    8:   1.7100958090149865E+00   3.569027E-09
    @IBO    9:   1.7100958090149865E+00   1.573527E-10
    @IBO   10:   1.7100958090149869E+00   6.827045E-12
    @IBO   11:   1.7100958090149869E+00   2.939016E-13

    IBO Localizer 2 converged.

  ==> F-SAPT Electrostatics <==

  ==> DFERI: Density Fitted 3-Index Tensors <==

    Schwarz cutoff =   0.000E+00
    J cutoff       =   1.000E-12
    Mem (GB)       =         628

   => Auxiliary Basis <=

  Basis Set: (JUN-CC-PVDZ AUX)
    Blend: JUN-CC-PVDZ-JKFIT
    Number of shells: 621
    Number of basis function: 1757
    Number of Cartesian functions: 1997
    Spherical Harmonics?: true
    Max angular momentum: 3

    Elst10,r            =     0.006655485886 [Eh]

  ==> F-SAPT Exchange <==

  ==> DFERI: Density Fitted 3-Index Tensors <==

    Schwarz cutoff =   0.000E+00
    J cutoff       =   1.000E-12
    Mem (GB)       =         628

   => Auxiliary Basis <=

  Basis Set: (JUN-CC-PVDZ AUX)
    Blend: JUN-CC-PVDZ-JKFIT
    Number of shells: 621
    Number of basis function: 1757
    Number of Cartesian functions: 1997
    Spherical Harmonics?: true
    Max angular momentum: 3

    Exch10(S^2)         =     0.005987140568 [Eh]

    Scaling F-SAPT Exch10(S^2) by   1.004E+00 to match Exch10

  ==> F-SAPT Induction <==

  ==> DFERI: Density Fitted 3-Index Tensors <==

    Schwarz cutoff =   0.000E+00
    J cutoff       =   1.000E-12
    Mem (GB)       =         628

   => Auxiliary Basis <=

  Basis Set: (JUN-CC-PVDZ AUX)
    Blend: JUN-CC-PVDZ-JKFIT
    Number of shells: 621
    Number of basis function: 1757
    Number of Cartesian functions: 1997
    Spherical Harmonics?: true
    Max angular momentum: 3

    Ind20,u (A<-B)      =    -0.001450333221 [Eh]
    Ind20,u (B<-A)      =    -0.000594253746 [Eh]
    Ind20,u             =    -0.002044586967 [Eh]
    Exch-Ind20,u (A<-B) =     0.000708190993 [Eh]
    Exch-Ind20,u (B<-A) =     0.000402773106 [Eh]
    Exch-Ind20,u        =     0.001110964099 [Eh]

    Scaling for delta HF        =   1.449E+00
    Scaling for response (A<-B) =   1.169E+00
    Scaling for response (B<-A) =   9.507E-01
    Scaling for total (A<-B)    =   1.694E+00
    Scaling for total (B<-A)    =   1.378E+00

  ==> F-SAPT Dispersion <==

  ==> DFERI: Density Fitted 3-Index Tensors <==

    Schwarz cutoff =   0.000E+00
    J cutoff       =   1.000E-12
    Mem (GB)       =         628

   => Auxiliary Basis <=

  Basis Set: (JUN-CC-PVDZ AUX)
    Blend: JUN-CC-PVDZ-RI
    Number of shells: 465
    Number of basis function: 1357
    Number of Cartesian functions: 1562
    Spherical Harmonics?: true
    Max angular momentum: 3

    Disp20              =    -0.002480188694 [Eh]
    Exch-Disp20         =     0.000393350758 [Eh]

  ==> F-SAPT Output <==

    F-SAPT Data Filepath = fsapt/

  ==> Results <==


    SAPT Results  
  --------------------------------------------------------------------------------------------------------
    Electrostatics                  6.65548620 [mEh]       4.17638082 [kcal/mol]      17.47397902 [kJ/mol]
      Elst10,r                      6.65548620 [mEh]       4.17638082 [kcal/mol]      17.47397902 [kJ/mol]

    Exchange                        6.01393197 [mEh]       3.77379944 [kcal/mol]      15.78957839 [kJ/mol]
      Exch10                        6.01393197 [mEh]       3.77379944 [kcal/mol]      15.78957839 [kJ/mol]
      Exch10(S^2)                   5.98714057 [mEh]       3.75698758 [kcal/mol]      15.71923756 [kJ/mol]

    Induction                      -1.52087335 [mEh]      -0.95436248 [kcal/mol]      -3.99305298 [kJ/mol]
      Ind20,r                      -2.43052778 [mEh]      -1.52517927 [kcal/mol]      -6.38135069 [kJ/mol]
      Exch-Ind20,r                  1.38102117 [mEh]       0.86660390 [kcal/mol]       3.62587108 [kJ/mol]
      delta HF,r (2)               -0.47136674 [mEh]      -0.29578711 [kcal/mol]      -1.23757337 [kJ/mol]
      Induction (A<-B)             -1.25707895 [mEh]      -0.78882898 [kcal/mol]      -3.30046077 [kJ/mol]
      Induction (B<-A)             -0.26379440 [mEh]      -0.16553349 [kcal/mol]      -0.69259221 [kJ/mol]

    Dispersion                     -2.08683794 [mEh]      -1.30951063 [kcal/mol]      -5.47899300 [kJ/mol]
      Disp20                       -2.48018869 [mEh]      -1.55634197 [kcal/mol]      -6.51173542 [kJ/mol]
      Exch-Disp20                   0.39335076 [mEh]       0.24683134 [kcal/mol]       1.03274241 [kJ/mol]

  Total HF                         11.14854482 [mEh]       6.99581779 [kcal/mol]      29.27050443 [kJ/mol]
  Total SAPT0                       9.06170688 [mEh]       5.68630716 [kcal/mol]      23.79151142 [kJ/mol]

  --------------------------------------------------------------------------------------------------------
    Han Solo: This is *not* gonna work.
    Luke Skywalker: Why didn't you say so before?
    Han Solo: I *did* say so before.

*** tstop() called on ThinkPad-P50 at Mon Jan 15 18:27:59 2018
Module time:
	user time   =     703.06 seconds =      11.72 minutes
	system time =       2.57 seconds =       0.04 minutes
	total time  =        205 seconds =       3.42 minutes
Total time:
	user time   =     899.35 seconds =      14.99 minutes
	system time =       3.53 seconds =       0.06 minutes
	total time  =        271 seconds =       4.52 minutes

*** Psi4 exiting successfully. Buy a developer a beer!
