mFile = /opt/software/qchem/qchem-5.0.1//bin/mpi/machines
Process 0 of 1 is on vega03.cac.cornell.edu - thread support 0
initial socket setup ...start
initial socket setup ...done 
now start server 0 ... 
vega03 10.84.3
Q-Chem Developer Version! Running on 10.84.3.*
                  Welcome to Q-Chem
     A Quantum Leap Into The Future Of Chemistry


 Q-Chem 5.0, Q-Chem, Inc., Pleasanton, CA (2017)

 Yihan Shao,  Zhengting Gan,  E. Epifanovsky,  A. T. B. Gilbert,  M. Wormit,  
 J. Kussmann,  A. W. Lange,  A. Behn,  Jia Deng,  Xintian Feng,  D. Ghosh,  
 M. Goldey,  P. R. Horn,  L. D. Jacobson,  I. Kaliman,  T. Kus,  A. Landau,  
 Jie Liu,  E. I. Proynov,  R. M. Richard,  R. P. Steele,  E. J. Sundstrom,  
 H. L. Woodcock III,  P. M. Zimmerman,  D. Zuev,  B. Albrecht,  E. Alguire,  
 S. A. Baeppler,  Z. Benda,  Y. A. Bernard,  E. J. Berquist,  K. B. Bravaya,  
 D. Casanova,  Chun-Min Chang,  Yunqing Chen,  A. Chien,  K. D. Closser,  
 M. P. Coons,  S. Dasgupta,  M. Diedenhofen,  Hainam Do,  R. G. Edgar,  
 Po-Tung Fang,  S. Fatehi,  Qingguo Feng,  Qinghui Ge,  A. Ghysels,  
 J. Gomes,  J. Gonthier,  A. Gunina,  M. W. D. Hanson-Heine,  
 P. H. P. Harbach,  A. W. Hauser,  J. E. Herr,  E. G. Hohenstein,  
 Z. C. Holden,  Kerwin Hui,  T.-C. Jagau,  Hyunjun Ji,  B. Kaduk,  
 K. Khistyaev,  Jaehoon Kim,  P. Klunzinger,  K. Koh,  D. Kosenkov,  
 T. Kowalczyk,  C. M. Krauter,  A. Kunitsa,  Ka Un Lao,  A. Laurent,  
 K. V. Lawler,  Joonho Lee,  D. Lefrancois,  S. Lehtola,  D. S. Levine,  
 Yi-Pei Li,  You-Sheng Lin,  Fenglai Liu,  E. Livshits,  A. Luenser,  
 P. Manohar,  E. Mansoor,  S. F. Manzer,  Shan-Ping Mao,  Yuezhi Mao,  
 N. Mardirossian,  A. V. Marenich,  L. A. Martinez-Martinez,  S. A. Maurer,  
 N. J. Mayhall,  S. C. McKenzie,  J.-M. Mewes,  A. F. Morrison,  K. Nanda,  
 T. S. Nguyen-Beck,  R. Olivares-Amaya,  J. A. Parkhill,  T. M. Perrine,  
 F. Plasser,  S. Prager,  A. Prociuk,  D. R. Rehn,  F. Rob,  M. Schneider,  
 N. Sergueev,  S. M. Sharada,  S. Sharma,  D. W. Small,  T. Stauch,  
 T. Stein,  Yu-Chuan Su,  A. J. W. Thom,  T. Tsuchimochi,  L. Vogt,  
 O. Vydrov,  M. A. Watson,  J. Wenzel,  M. de Wergifosse,  T. A. Wesolowski,  
 A. White,  J. Witte,  A. Yamada,  Jun Yang,  K. Yao,  S. Yeganeh,  
 S. R. Yost,  Zhi-Qiang You,  A. Zech,  Igor Ying Zhang,  Xing Zhang,  
 Yan Zhao,  Ying Zhu,  B. R. Brooks,  G. K. L. Chan,  C. J. Cramer,  
 M. S. Gordon,  W. J. Hehre,  A. Klamt,  M. W. Schmidt,  C. D. Sherrill,  
 D. G. Truhlar,  A. Aspuru-Guzik,  R. Baer,  A. T. Bell,  N. A. Besley,  
 Jeng-Da Chai,  A. Dreuw,  B. D. Dunietz,  T. R. Furlani,  Chao-Ping Hsu,  
 Yousung Jung,  Jing Kong,  D. S. Lambrecht,  WanZhen Liang,  C. Ochsenfeld,  
 V. A. Rassolov,  L. V. Slipchenko,  J. E. Subotnik,  T. Van Voorhis,  
 J. M. Herbert,  A. I. Krylov,  P. M. W. Gill,  M. Head-Gordon

 Contributors to earlier versions of Q-Chem not listed above: 
 R. D. Adamson,  B. Austin,  J. Baker,  G. J. O. Beran,  K. Brandhorst,  
 S. T. Brown,  E. F. C. Byrd,  A. K. Chakraborty,  C.-L. Cheng,  
 Siu Hung Chien,  D. M. Chipman,  D. L. Crittenden,  H. Dachsel,  
 R. A. DiStasio Jr.,  R. J. Doerksen,  A. D. Dutoi,  L. Fusti-Molnar,  
 W. A. Goddard III,  A. Golubeva-Zadorozhnaya,  S. R. Gwaltney,  G. Hawkins,  
 A. Heyden,  S. Hirata,  G. Kedziora,  F. J. Keil,  C. Kelley,  Jihan Kim,  
 R. A. King,  R. Z. Khaliullin,  P. P. Korambath,  W. Kurlancheek,  
 A. M. Lee,  M. S. Lee,  S. V. Levchenko,  Ching Yeh Lin,  D. Liotard,  
 R. C. Lochan,  I. Lotan,  P. E. Maslen,  N. Nair,  D. P. O'Neill,  
 D. Neuhauser,  E. Neuscamman,  C. M. Oana,  R. Olson,  B. Peters,  
 R. Peverati,  P. A. Pieniazek,  Y. M. Rhee,  J. Ritchie,  M. A. Rohrdanz,  
 E. Rosta,  N. J. Russ,  H. F. Schaefer III,  N. E. Schultz,  N. Shenvi,  
 A. C. Simmonett,  A. Sodt,  D. Stuck,  K. S. Thanthiriwatte,  V. Vanovschi,  
 Tao Wang,  A. Warshel,  C. F. Williams,  Q. Wu,  X. Xu,  W. Zhang

 Please cite Q-Chem as follows:
 Y. Shao et al., Mol. Phys. 113, 184-215 (2015)
 DOI: 10.1080/00268976.2014.952696

 Q-Chem 5.0.1 for Intel X86 EM64T Linux

 Parts of Q-Chem use Armadillo 5.200.1 (Boston Tea Smuggler).
 http://arma.sourceforge.net/

 Q-Chem begins on Mon Apr 16 22:58:29 2018  

Host: vega03.cac.cornell.edu
0

     Scratch files written to /scratch/jj585/vdw/0000_distance_4.300_01.save//
 Parallel job on  1  processors

Checking the input file for inconsistencies... 	...done.

--------------------------------------------------------------
User input:
--------------------------------------------------------------
$molecule
0  1
C        +3.13486000        +2.74022000        +3.25711000
C        +3.53842000        +1.28181000        +3.66987000
C        +4.24224000        +3.09508000        +2.23625000
C        +5.54286000        +3.41234000        +2.99971000
C        +5.95552000        +1.98885000        +3.47416000
C        +4.85639000        +1.10235000        +2.82378000
O        +4.54056000        +1.83197000        +1.62740000
H        +6.28450000        +3.83316000        +2.31921000
H        +5.39452000        +4.12022000        +3.81767000
H        +6.93398000        +1.70528000        +3.08277000
H        +5.98575000        +1.88272000        +4.56044000
H        +3.94486000        +3.89477000        +1.59052000
H        +5.15555000        +0.08038000        +2.71902000
H        +3.72909000        +1.20629000        +4.72003000
H        +2.78692000        +0.54178000        +3.48959000
H        +2.16543000        +2.76345000        +2.80481000
H        +3.06768000        +3.42151000        +4.07944000
@C        +0.22270000        +1.04488000        +0.58595000
@C        +0.62626000        -0.41353000        +0.99871000
@C        +1.33008000        +1.39974000        -0.43491000
@C        +2.63070000        +1.71700000        +0.32855000
@C        +3.04336000        +0.29351000        +0.80300000
@C        +1.94423000        -0.59299000        +0.15262000
@O        +1.62840000        +0.13663000        -1.04376000
@H        +3.37234000        +2.13782000        -0.35195000
@H        +2.48236000        +2.42488000        +1.14651000
@H        +4.02182000        +0.00994000        +0.41161000
@H        +3.07359000        +0.18738000        +1.88928000
@H        +1.03270000        +2.19943000        -1.08064000
@H        +2.24339000        -1.61496000        +0.04786000
@H        +0.81693000        -0.48905000        +2.04887000
@H        -0.12524000        -1.15356000        +0.81843000
@H        -0.74673000        +1.06811000        +0.13365000
@H        +0.15552000        +1.72617000        +1.40828000
$end

$rem
JOBTYPE                   SP
METHOD                    B3LYP
DFT_D                     d3_op
BASIS                     6-311++G(d,p)
SYMMETRY                  False
THRESH                    12
SCF_CONVERGENCE           8
MAX_SUB_FILE_NUM          128
MEM_STATIC                400
MEM_TOTAL                 4000
$end
--------------------------------------------------------------
 Adding empirical dispersion correction 
 ----------------------------------------------------------------
 Doing -D3(op) with
 s6 =   1.00000
 s8 =   0.78311
 a1 =   0.30000
 a2 =   4.25000
 n  =  10.00000
 -D3 energy without 3body term =     -0.0133866839 hartrees
 ----------------------------------------------------------------
             Standard Nuclear Orientation (Angstroms)
    I     Atom           X                Y                Z
 ----------------------------------------------------------------
    1      C       3.1348600000     2.7402200000     3.2571100000
    2      C       3.5384200000     1.2818100000     3.6698700000
    3      C       4.2422400000     3.0950800000     2.2362500000
    4      C       5.5428600000     3.4123400000     2.9997100000
    5      C       5.9555200000     1.9888500000     3.4741600000
    6      C       4.8563900000     1.1023500000     2.8237800000
    7      O       4.5405600000     1.8319700000     1.6274000000
    8      H       6.2845000000     3.8331600000     2.3192100000
    9      H       5.3945200000     4.1202200000     3.8176700000
   10      H       6.9339800000     1.7052800000     3.0827700000
   11      H       5.9857500000     1.8827200000     4.5604400000
   12      H       3.9448600000     3.8947700000     1.5905200000
   13      H       5.1555500000     0.0803800000     2.7190200000
   14      H       3.7290900000     1.2062900000     4.7200300000
   15      H       2.7869200000     0.5417800000     3.4895900000
   16      H       2.1654300000     2.7634500000     2.8048100000
   17      H       3.0676800000     3.4215100000     4.0794400000
   18      GH      0.2227000000     1.0448800000     0.5859500000
   19      GH      0.6262600000    -0.4135300000     0.9987100000
   20      GH      1.3300800000     1.3997400000    -0.4349100000
   21      GH      2.6307000000     1.7170000000     0.3285500000
   22      GH      3.0433600000     0.2935100000     0.8030000000
   23      GH      1.9442300000    -0.5929900000     0.1526200000
   24      GH      1.6284000000     0.1366300000    -1.0437600000
   25      GH      3.3723400000     2.1378200000    -0.3519500000
   26      GH      2.4823600000     2.4248800000     1.1465100000
   27      GH      4.0218200000     0.0099400000     0.4116100000
   28      GH      3.0735900000     0.1873800000     1.8892800000
   29      GH      1.0327000000     2.1994300000    -1.0806400000
   30      GH      2.2433900000    -1.6149600000     0.0478600000
   31      GH      0.8169300000    -0.4890500000     2.0488700000
   32      GH     -0.1252400000    -1.1535600000     0.8184300000
   33      GH     -0.7467300000     1.0681100000     0.1336500000
   34      GH      0.1555200000     1.7261700000     1.4082800000
 ----------------------------------------------------------------
 Nuclear Repulsion Energy =   331.2533536408 hartrees
 There are       27 alpha and       27 beta electrons
 Requested basis set is 6-311++G(d,p)
 There are 184 shells and 448 basis functions

 Total QAlloc Memory Limit   4000 MB
 Mega-Array Size       392 MB
 MEM_STATIC part       400 MB
 A cutoff of  1.0D-12 yielded  14873 shell pairs
 There are     88116 function pairs (     93476 Cartesian)
 
 -------------------------------------------------------
 OpenMP Integral Computing Module                       
 Release: version 1.0, May 2013, Q-Chem Inc. Pittsburgh 
 -------------------------------------------------------
 Integral Job Info:
 Integral job number is                      11
 Integral operator is                         1
 short-range coefficients                     0
 long-range coefficients              100000000
 Omega coefficients                           0
 if combine SR and LR in K                    0
 Integral screening is                        0
 Integral computing path is                   2
 max size of driver memory is            800000
 size of driver memory is                593474
 size of scratch memory is              2361544
 max col of scratch BK array               1296
 max len of scratch array in speh3          155
 max len of scratch index in speh4           18
 max int batch size is                      520
 min int batch size is                       52
 fixed nKL is                                52
 max L of basis functions is                  2
 order of int derivative is                   0
 number of shells is                        184
 number of basis is                         462
 number of cartesian basis is               462
 number of contracted shell pairs         14873
 number of primitive shell pairs          32368
 maxK2 (contraction) of shell pair           36
 max number of K2 of shell pair               1
 max number of CS2 of shell pair           2633
 max number of PS2 of shell pair           4662
 mem total for path MDJ                  124794
 -------------------------------------------------------
 Smallest overlap matrix eigenvalue = 8.31E-07
 Linear dependence detected in AO basis
 Number of orthogonalized atomic orbitals = 447
 Maximum deviation from orthogonality = 8.586E-11

 Scale SEOQF with 1.000000e-02/1.000000e-01/1.000000e-01

 Standard Electronic Orientation quadrupole field applied
 Nucleus-field energy     =    -0.0000000257 hartrees
 Guess from superposition of atomic densities
 Warning:  Energy on first SCF cycle will be non-variational

 Q-Chem warning in module /opt/software/qchem/qchem-5.0.1/libgen/Atomic_PolEc.C, line 58:

 No atomic polarizability available.


 Q-Chem warning in module /opt/software/qchem/qchem-5.0.1/libgen/Atomic_PolEc.C, line 73:

 No atomic polarizability available.


 Q-Chem warning in module /opt/software/qchem/qchem-5.0.1/libgen/Atomic_PolEc.C, line 58:

 No atomic polarizability available.


 Q-Chem warning in module /opt/software/qchem/qchem-5.0.1/libgen/Atomic_PolEc.C, line 73:

 No atomic polarizability available.


 Q-Chem warning in module /opt/software/qchem/qchem-5.0.1/libgen/Atomic_PolEc.C, line 58:

 No atomic polarizability available.


 Q-Chem warning in module /opt/software/qchem/qchem-5.0.1/libgen/Atomic_PolEc.C, line 73:

 No atomic polarizability available.


 Q-Chem warning in module /opt/software/qchem/qchem-5.0.1/libgen/Atomic_PolEc.C, line 58:

 No atomic polarizability available.


 Q-Chem warning in module /opt/software/qchem/qchem-5.0.1/libgen/Atomic_PolEc.C, line 73:

 No atomic polarizability available.


 Q-Chem warning in module /opt/software/qchem/qchem-5.0.1/libgen/Atomic_PolEc.C, line 58:

 No atomic polarizability available.


 Q-Chem warning in module /opt/software/qchem/qchem-5.0.1/libgen/Atomic_PolEc.C, line 73:

 No atomic polarizability available.


 Q-Chem warning in module /opt/software/qchem/qchem-5.0.1/libgen/Atomic_PolEc.C, line 58:

 No atomic polarizability available.


 Q-Chem warning in module /opt/software/qchem/qchem-5.0.1/libgen/Atomic_PolEc.C, line 73:

 No atomic polarizability available.


 Q-Chem warning in module /opt/software/qchem/qchem-5.0.1/libgen/Atomic_PolEc.C, line 58:

 No atomic polarizability available.


 Q-Chem warning in module /opt/software/qchem/qchem-5.0.1/libgen/Atomic_PolEc.C, line 73:

 No atomic polarizability available.


 Q-Chem warning in module /opt/software/qchem/qchem-5.0.1/libgen/Atomic_PolEc.C, line 58:

 No atomic polarizability available.


 Q-Chem warning in module /opt/software/qchem/qchem-5.0.1/libgen/Atomic_PolEc.C, line 73:

 No atomic polarizability available.


 Q-Chem warning in module /opt/software/qchem/qchem-5.0.1/libgen/Atomic_PolEc.C, line 58:

 No atomic polarizability available.


 Q-Chem warning in module /opt/software/qchem/qchem-5.0.1/libgen/Atomic_PolEc.C, line 73:

 No atomic polarizability available.


 Q-Chem warning in module /opt/software/qchem/qchem-5.0.1/libgen/Atomic_PolEc.C, line 58:

 No atomic polarizability available.


 Q-Chem warning in module /opt/software/qchem/qchem-5.0.1/libgen/Atomic_PolEc.C, line 73:

 No atomic polarizability available.


 Q-Chem warning in module /opt/software/qchem/qchem-5.0.1/libgen/Atomic_PolEc.C, line 58:

 No atomic polarizability available.


 Q-Chem warning in module /opt/software/qchem/qchem-5.0.1/libgen/Atomic_PolEc.C, line 73:

 No atomic polarizability available.


 Q-Chem warning in module /opt/software/qchem/qchem-5.0.1/libgen/Atomic_PolEc.C, line 58:

 No atomic polarizability available.


 Q-Chem warning in module /opt/software/qchem/qchem-5.0.1/libgen/Atomic_PolEc.C, line 73:

 No atomic polarizability available.


 Q-Chem warning in module /opt/software/qchem/qchem-5.0.1/libgen/Atomic_PolEc.C, line 58:

 No atomic polarizability available.


 Q-Chem warning in module /opt/software/qchem/qchem-5.0.1/libgen/Atomic_PolEc.C, line 73:

 No atomic polarizability available.


 Q-Chem warning in module /opt/software/qchem/qchem-5.0.1/libgen/Atomic_PolEc.C, line 58:

 No atomic polarizability available.


 Q-Chem warning in module /opt/software/qchem/qchem-5.0.1/libgen/Atomic_PolEc.C, line 73:

 No atomic polarizability available.


 Q-Chem warning in module /opt/software/qchem/qchem-5.0.1/libgen/Atomic_PolEc.C, line 58:

 No atomic polarizability available.


 Q-Chem warning in module /opt/software/qchem/qchem-5.0.1/libgen/Atomic_PolEc.C, line 73:

 No atomic polarizability available.


 Q-Chem warning in module /opt/software/qchem/qchem-5.0.1/libgen/Atomic_PolEc.C, line 58:

 No atomic polarizability available.


 Q-Chem warning in module /opt/software/qchem/qchem-5.0.1/libgen/Atomic_PolEc.C, line 73:

 No atomic polarizability available.


 Q-Chem warning in module /opt/software/qchem/qchem-5.0.1/libgen/Atomic_PolEc.C, line 58:

 No atomic polarizability available.


 Q-Chem warning in module /opt/software/qchem/qchem-5.0.1/libgen/Atomic_PolEc.C, line 73:

 No atomic polarizability available.

 A restricted hybrid HF-DFT SCF calculation will be
 performed using Pulay DIIS extrapolation
 Exchange:     0.2000 Hartree-Fock + 0.0800 Slater + 0.7200 B88
 Correlation:  0.1900 VWN1RPA + 0.8100 LYP
 Using SG-1 standard quadrature grid
 Dispersion:   Grimme D3
 SCF converges when DIIS error is below 1.0E-08
 using 4 threads for integral computing
 -------------------------------------------------------
 OpenMP Integral computing Module                
 Release: version 1.0, May 2013, Q-Chem Inc. Pittsburgh 
 -------------------------------------------------------
 -------------------------------------------------------
 OpenMP BLAS3 based DFT computing Module                
 Release: version 1.0, May 2013, Q-Chem Inc. Pittsburgh 
 -------------------------------------------------------
 ---------------------------------------
  Cycle       Energy         DIIS Error
 ---------------------------------------
    1    -311.4033984045      2.06E-02
    2    -309.8173833097      2.37E-03
    3    -309.7371813397      3.03E-03
    4    -309.9579610365      3.74E-04
    5    -309.9601132372      1.66E-04
    6    -309.9605953769      4.84E-05
    7    -309.9606350079      1.35E-05
    8    -309.9606388814      1.59E-06
    9    -309.9606389426      4.03E-07
   10    -309.9606389468      7.44E-08
   11    -309.9606389469      2.73E-08
   12    -309.9606389470      6.36E-09 Convergence criterion met
 ---------------------------------------
 SCF time:  CPU 655.68 s  wall 164.59 s
 SCF   energy in the final basis set = -309.96063895
 Total energy in the final basis set = -309.96063895
 
 --------------------------------------------------------------
 
                    Orbital Energies (a.u.)
 --------------------------------------------------------------
 
 Alpha MOs
 -- Occupied --
-19.123 -10.221 -10.218 -10.168 -10.167 -10.165 -10.163  -1.050
 -0.798  -0.749  -0.747  -0.614  -0.578  -0.573  -0.526  -0.478
 -0.465  -0.430  -0.406  -0.395  -0.364  -0.360  -0.351  -0.339
 -0.317  -0.304  -0.264
 -- Virtual --
 -0.010   0.007   0.009   0.011   0.029   0.030   0.031   0.035
  0.038   0.052   0.054   0.057   0.063   0.071   0.074   0.083
  0.083   0.090   0.093   0.097   0.099   0.102   0.106   0.108
  0.116   0.119   0.123   0.125   0.127   0.133   0.135   0.138
  0.143   0.144   0.147   0.150   0.154   0.157   0.158   0.166
  0.168   0.173   0.176   0.179   0.182   0.183   0.189   0.191
  0.193   0.196   0.202   0.203   0.208   0.210   0.215   0.220
  0.222   0.229   0.231   0.237   0.240   0.241   0.247   0.250
  0.252   0.258   0.264   0.269   0.271   0.275   0.283   0.286
  0.290   0.314   0.317   0.318   0.321   0.327   0.334   0.346
  0.349   0.352   0.354   0.356   0.367   0.370   0.376   0.382
  0.384   0.388   0.395   0.404   0.414   0.419   0.421   0.425
  0.433   0.439   0.455   0.462   0.463   0.472   0.482   0.489
  0.494   0.513   0.518   0.523   0.529   0.542   0.562   0.568
  0.587   0.588   0.599   0.602   0.606   0.618   0.630   0.633
  0.650   0.653   0.663   0.665   0.678   0.681   0.683   0.693
  0.699   0.706   0.723   0.727   0.730   0.734   0.739   0.756
  0.764   0.767   0.771   0.777   0.781   0.788   0.790   0.803
  0.818   0.821   0.829   0.833   0.848   0.856   0.861   0.864
  0.905   0.936   0.943   0.957   0.971   0.984   0.986   1.017
  1.029   1.065   1.074   1.090   1.110   1.139   1.152   1.163
  1.168   1.174   1.182   1.218   1.233   1.242   1.256   1.260
  1.286   1.287   1.325   1.356   1.383   1.418   1.430   1.444
  1.448   1.466   1.482   1.499   1.503   1.512   1.523   1.536
  1.560   1.576   1.584   1.594   1.602   1.617   1.630   1.643
  1.655   1.670   1.676   1.686   1.708   1.717   1.721   1.722
  1.751   1.752   1.763   1.767   1.775   1.783   1.795   1.818
  1.829   1.832   1.846   1.853   1.857   1.863   1.881   1.886
  1.892   1.910   1.915   1.919   1.927   1.940   1.944   1.962
  1.971   1.977   1.982   1.992   1.999   2.006   2.042   2.043
  2.061   2.077   2.087   2.130   2.140   2.151   2.171   2.181
  2.186   2.193   2.203   2.221   2.236   2.259   2.266   2.299
  2.316   2.325   2.344   2.348   2.371   2.383   2.395   2.433
  2.446   2.450   2.460   2.463   2.473   2.477   2.482   2.497
  2.511   2.515   2.517   2.529   2.540   2.552   2.562   2.589
  2.593   2.613   2.631   2.636   2.660   2.683   2.725   2.733
  2.758   2.778   2.782   2.790   2.794   2.809   2.823   2.843
  2.850   2.858   2.869   2.872   2.903   2.904   2.910   2.934
  2.944   2.953   2.964   2.996   3.025   3.027   3.060   3.074
  3.090   3.096   3.125   3.147   3.156   3.168   3.201   3.209
  3.224   3.259   3.281   3.300   3.313   3.321   3.326   3.346
  3.392   3.408   3.440   3.491   3.536   3.548   3.573   3.587
  3.606   3.628   3.665   3.673   3.709   3.729   3.781   3.789
  3.808   3.868   3.921   3.929   3.949   3.984   3.999   4.004
  4.086   4.105   4.141   4.151   4.191   4.278   4.381   4.489
  4.592   4.710   4.776   4.802   4.849   4.878   4.883   4.926
  4.952   5.000   5.105   5.120   5.166   5.314   5.357   5.574
  5.662   5.703   7.331   7.459   7.482   7.534   7.593   7.616
  7.645   7.746   7.907   7.949   7.980   8.028   8.179   8.312
  8.382   8.400   8.673   8.725   9.895   9.953  10.000  10.025
 10.047  10.174  13.627  13.924  14.036  18.558  23.849  23.865
 23.954  24.002  24.061  24.094  50.023  69.699  69.770  69.906
 69.942  69.980  70.025 140.030
 --------------------------------------------------------------
 
          Ground-State Mulliken Net Atomic Charges

     Atom                 Charge (a.u.)
  ----------------------------------------
      1 C                    -0.414537
      2 C                    -0.371042
      3 C                     0.261084
      4 C                    -0.606137
      5 C                    -0.562754
      6 C                     0.231001
      7 O                    -0.043731
      8 H                     0.165994
      9 H                     0.125425
     10 H                     0.168732
     11 H                     0.122095
     12 H                     0.215631
     13 H                     0.220277
     14 H                     0.171458
     15 H                     0.140138
     16 H                     0.124997
     17 H                     0.179043
     18 GH                   -0.004826
     19 GH                   -0.005697
     20 GH                   -0.061950
     21 GH                   -0.006579
     22 GH                   -0.003443
     23 GH                   -0.082615
     24 GH                   -0.000613
     25 GH                    0.011547
     26 GH                    0.005144
     27 GH                    0.013658
     28 GH                    0.005545
     29 GH                   -0.001090
     30 GH                   -0.001672
     31 GH                    0.001757
     32 GH                   -0.000063
     33 GH                    0.000285
     34 GH                    0.002939
  ----------------------------------------
  Sum of atomic charges =     0.000000

 -----------------------------------------------------------------
                    Cartesian Multipole Moments
 -----------------------------------------------------------------
    Charge (ESU x 10^10)
                 0.0000
    Dipole Moment (Debye)
         X      -0.0216      Y       0.5071      Z       1.6944
       Tot       1.7688
    Quadrupole Moments (Debye-Ang)
        XX     -43.4048     XY       1.3777     YY     -38.9418
        XZ       7.6325     YZ       3.3907     ZZ     -37.1198
    Octopole Moments (Debye-Ang^2)
       XXX    -591.2273    XXY     -94.9862    XYY    -181.0714
       YYY    -270.7528    XXZ     -94.5156    XYZ      13.2159
       YYZ    -115.9262    XZZ    -169.2416    YZZ     -85.1678
       ZZZ    -364.0175
    Hexadecapole Moments (Debye-Ang^3)
      XXXX   -5723.1276   XXXY   -1344.6961   XXYY   -1163.6490
      XYYY   -1257.8275   YYYY   -1504.0865   XXXZ   -1602.0395
      XXYZ    -235.7939   XYYZ    -535.8225   YYYZ    -800.1190
      XXZZ   -1249.4103   XYZZ    -397.6014   YYZZ    -638.2591
      XZZZ   -1651.6451   YZZZ    -801.0138   ZZZZ   -2390.0001
 -----------------------------------------------------------------
Archival summary:
1\1\vega03.cac.cornell.edu\SP\ProcedureUnspecified\BasisUnspecified\1610h17\jj585\MonApr1623:01:152018MonApr1623:01:152018\0\\#,ProcedureUnspecified,BasisUnspecified,\\0,1\O\C,1,1.43358\H,2,1.07,1,117.389\C,1,1.43646,2,98.0224,3,-179.253,0\H,4,1.07,1,117.714,2,-178.733,0\C,2,1.54115,1,102.483,3,-123.548,0\H,6,1.09096,2,110.128,1,81.1589,0\H,6,1.09186,2,112.95,1,-157.962,0\C,2,1.54738,1,103.124,3,123.327,0\H,9,1.07,2,113.95,1,155.255,0\H,9,1.07,2,111.379,1,-86.5463,0\C,4,1.55466,1,102.371,2,-54.4128,0\H,12,1.09132,4,109.614,1,-87.4148,0\H,12,1.09187,4,112.355,1,152.676,0\C,9,1.5685,2,101.696,1,32.1918,0\H,15,1.07,9,111.7,2,120.458,0\H,15,1.07,9,114.71,2,-121.541,0\Gh,17,1.66396,15,100.856,9,84.2451,0\Gh,18,1.09187,17,158.646,15,-81.06,0\Gh,19,1.09132,18,107.862,17,140.927,0\Gh,19,1.55466,18,112.355,17,-98.1514,0\Gh,21,1.07,19,112.825,18,-79.816,0\Gh,21,1.43646,19,102.371,18,152.676,0\Gh,23,1.43358,21,98.0224,19,-54.4128,0\Gh,24,1.07,23,117.389,21,-179.253,0\Gh,24,1.54115,23,102.483,21,57.1986,0\Gh,26,1.09096,24,110.128,23,81.1589,0\Gh,26,1.09186,24,112.95,23,-157.962,0\Gh,24,1.54738,23,103.124,21,-55.9256,0\Gh,29,1.07,24,113.95,23,155.255,0\Gh,29,1.07,24,111.379,23,-86.5463,0\Gh,29,1.5685,24,101.696,23,32.1918,0\Gh,32,1.07,29,111.7,24,120.458,0\Gh,32,1.07,29,114.71,24,-121.541,0\\\@

 Total job time:  165.46s(wall), 658.36s(cpu) 
 Mon Apr 16 23:01:15 2018

        *************************************************************
        *                                                           *
        *  Thank you very much for using Q-Chem.  Have a nice day.  *
        *                                                           *
        *************************************************************


0 sent ACK to 0 
now end server 0 ... 
