mFile = /opt/software/qchem/qchem-5.0.1//bin/mpi/machines
Process 0 of 1 is on vega03.cac.cornell.edu - thread support 0
initial socket setup ...start
initial socket setup ...done 
now start server 0 ... 
vega03 10.84.3
Q-Chem Developer Version! Running on 10.84.3.*
                  Welcome to Q-Chem
     A Quantum Leap Into The Future Of Chemistry


 Q-Chem 5.0, Q-Chem, Inc., Pleasanton, CA (2017)

 Yihan Shao,  Zhengting Gan,  E. Epifanovsky,  A. T. B. Gilbert,  M. Wormit,  
 J. Kussmann,  A. W. Lange,  A. Behn,  Jia Deng,  Xintian Feng,  D. Ghosh,  
 M. Goldey,  P. R. Horn,  L. D. Jacobson,  I. Kaliman,  T. Kus,  A. Landau,  
 Jie Liu,  E. I. Proynov,  R. M. Richard,  R. P. Steele,  E. J. Sundstrom,  
 H. L. Woodcock III,  P. M. Zimmerman,  D. Zuev,  B. Albrecht,  E. Alguire,  
 S. A. Baeppler,  Z. Benda,  Y. A. Bernard,  E. J. Berquist,  K. B. Bravaya,  
 D. Casanova,  Chun-Min Chang,  Yunqing Chen,  A. Chien,  K. D. Closser,  
 M. P. Coons,  S. Dasgupta,  M. Diedenhofen,  Hainam Do,  R. G. Edgar,  
 Po-Tung Fang,  S. Fatehi,  Qingguo Feng,  Qinghui Ge,  A. Ghysels,  
 J. Gomes,  J. Gonthier,  A. Gunina,  M. W. D. Hanson-Heine,  
 P. H. P. Harbach,  A. W. Hauser,  J. E. Herr,  E. G. Hohenstein,  
 Z. C. Holden,  Kerwin Hui,  T.-C. Jagau,  Hyunjun Ji,  B. Kaduk,  
 K. Khistyaev,  Jaehoon Kim,  P. Klunzinger,  K. Koh,  D. Kosenkov,  
 T. Kowalczyk,  C. M. Krauter,  A. Kunitsa,  Ka Un Lao,  A. Laurent,  
 K. V. Lawler,  Joonho Lee,  D. Lefrancois,  S. Lehtola,  D. S. Levine,  
 Yi-Pei Li,  You-Sheng Lin,  Fenglai Liu,  E. Livshits,  A. Luenser,  
 P. Manohar,  E. Mansoor,  S. F. Manzer,  Shan-Ping Mao,  Yuezhi Mao,  
 N. Mardirossian,  A. V. Marenich,  L. A. Martinez-Martinez,  S. A. Maurer,  
 N. J. Mayhall,  S. C. McKenzie,  J.-M. Mewes,  A. F. Morrison,  K. Nanda,  
 T. S. Nguyen-Beck,  R. Olivares-Amaya,  J. A. Parkhill,  T. M. Perrine,  
 F. Plasser,  S. Prager,  A. Prociuk,  D. R. Rehn,  F. Rob,  M. Schneider,  
 N. Sergueev,  S. M. Sharada,  S. Sharma,  D. W. Small,  T. Stauch,  
 T. Stein,  Yu-Chuan Su,  A. J. W. Thom,  T. Tsuchimochi,  L. Vogt,  
 O. Vydrov,  M. A. Watson,  J. Wenzel,  M. de Wergifosse,  T. A. Wesolowski,  
 A. White,  J. Witte,  A. Yamada,  Jun Yang,  K. Yao,  S. Yeganeh,  
 S. R. Yost,  Zhi-Qiang You,  A. Zech,  Igor Ying Zhang,  Xing Zhang,  
 Yan Zhao,  Ying Zhu,  B. R. Brooks,  G. K. L. Chan,  C. J. Cramer,  
 M. S. Gordon,  W. J. Hehre,  A. Klamt,  M. W. Schmidt,  C. D. Sherrill,  
 D. G. Truhlar,  A. Aspuru-Guzik,  R. Baer,  A. T. Bell,  N. A. Besley,  
 Jeng-Da Chai,  A. Dreuw,  B. D. Dunietz,  T. R. Furlani,  Chao-Ping Hsu,  
 Yousung Jung,  Jing Kong,  D. S. Lambrecht,  WanZhen Liang,  C. Ochsenfeld,  
 V. A. Rassolov,  L. V. Slipchenko,  J. E. Subotnik,  T. Van Voorhis,  
 J. M. Herbert,  A. I. Krylov,  P. M. W. Gill,  M. Head-Gordon

 Contributors to earlier versions of Q-Chem not listed above: 
 R. D. Adamson,  B. Austin,  J. Baker,  G. J. O. Beran,  K. Brandhorst,  
 S. T. Brown,  E. F. C. Byrd,  A. K. Chakraborty,  C.-L. Cheng,  
 Siu Hung Chien,  D. M. Chipman,  D. L. Crittenden,  H. Dachsel,  
 R. A. DiStasio Jr.,  R. J. Doerksen,  A. D. Dutoi,  L. Fusti-Molnar,  
 W. A. Goddard III,  A. Golubeva-Zadorozhnaya,  S. R. Gwaltney,  G. Hawkins,  
 A. Heyden,  S. Hirata,  G. Kedziora,  F. J. Keil,  C. Kelley,  Jihan Kim,  
 R. A. King,  R. Z. Khaliullin,  P. P. Korambath,  W. Kurlancheek,  
 A. M. Lee,  M. S. Lee,  S. V. Levchenko,  Ching Yeh Lin,  D. Liotard,  
 R. C. Lochan,  I. Lotan,  P. E. Maslen,  N. Nair,  D. P. O'Neill,  
 D. Neuhauser,  E. Neuscamman,  C. M. Oana,  R. Olson,  B. Peters,  
 R. Peverati,  P. A. Pieniazek,  Y. M. Rhee,  J. Ritchie,  M. A. Rohrdanz,  
 E. Rosta,  N. J. Russ,  H. F. Schaefer III,  N. E. Schultz,  N. Shenvi,  
 A. C. Simmonett,  A. Sodt,  D. Stuck,  K. S. Thanthiriwatte,  V. Vanovschi,  
 Tao Wang,  A. Warshel,  C. F. Williams,  Q. Wu,  X. Xu,  W. Zhang

 Please cite Q-Chem as follows:
 Y. Shao et al., Mol. Phys. 113, 184-215 (2015)
 DOI: 10.1080/00268976.2014.952696

 Q-Chem 5.0.1 for Intel X86 EM64T Linux

 Parts of Q-Chem use Armadillo 5.200.1 (Boston Tea Smuggler).
 http://arma.sourceforge.net/

 Q-Chem begins on Mon Apr 16 22:55:41 2018  

Host: vega03.cac.cornell.edu
0

     Scratch files written to /scratch/jj585/vdw/0000_distance_4.300_10.save//
 Parallel job on  1  processors

Checking the input file for inconsistencies... 	...done.

--------------------------------------------------------------
User input:
--------------------------------------------------------------
$molecule
0  1
C        +0.22270000        +1.04488000        +0.58595000
C        +0.62626000        -0.41353000        +0.99871000
C        +1.33008000        +1.39974000        -0.43491000
C        +2.63070000        +1.71700000        +0.32855000
C        +3.04336000        +0.29351000        +0.80300000
C        +1.94423000        -0.59299000        +0.15262000
O        +1.62840000        +0.13663000        -1.04376000
H        +3.37234000        +2.13782000        -0.35195000
H        +2.48236000        +2.42488000        +1.14651000
H        +4.02182000        +0.00994000        +0.41161000
H        +3.07359000        +0.18738000        +1.88928000
H        +1.03270000        +2.19943000        -1.08064000
H        +2.24339000        -1.61496000        +0.04786000
H        +0.81693000        -0.48905000        +2.04887000
H        -0.12524000        -1.15356000        +0.81843000
H        -0.74673000        +1.06811000        +0.13365000
H        +0.15552000        +1.72617000        +1.40828000
@C        +3.13486000        +2.74022000        +3.25711000
@C        +3.53842000        +1.28181000        +3.66987000
@C        +4.24224000        +3.09508000        +2.23625000
@C        +5.54286000        +3.41234000        +2.99971000
@C        +5.95552000        +1.98885000        +3.47416000
@C        +4.85639000        +1.10235000        +2.82378000
@O        +4.54056000        +1.83197000        +1.62740000
@H        +6.28450000        +3.83316000        +2.31921000
@H        +5.39452000        +4.12022000        +3.81767000
@H        +6.93398000        +1.70528000        +3.08277000
@H        +5.98575000        +1.88272000        +4.56044000
@H        +3.94486000        +3.89477000        +1.59052000
@H        +5.15555000        +0.08038000        +2.71902000
@H        +3.72909000        +1.20629000        +4.72003000
@H        +2.78692000        +0.54178000        +3.48959000
@H        +2.16543000        +2.76345000        +2.80481000
@H        +3.06768000        +3.42151000        +4.07944000
$end

$rem
JOBTYPE                   SP
METHOD                    B3LYP
DFT_D                     d3_op
BASIS                     6-311++G(d,p)
SYMMETRY                  False
THRESH                    12
SCF_CONVERGENCE           8
MAX_SUB_FILE_NUM          128
MEM_STATIC                400
MEM_TOTAL                 4000
$end
--------------------------------------------------------------
 Adding empirical dispersion correction 
 ----------------------------------------------------------------
 Doing -D3(op) with
 s6 =   1.00000
 s8 =   0.78311
 a1 =   0.30000
 a2 =   4.25000
 n  =  10.00000
 -D3 energy without 3body term =     -0.0133866839 hartrees
 ----------------------------------------------------------------
             Standard Nuclear Orientation (Angstroms)
    I     Atom           X                Y                Z
 ----------------------------------------------------------------
    1      C       0.2227000000     1.0448800000     0.5859500000
    2      C       0.6262600000    -0.4135300000     0.9987100000
    3      C       1.3300800000     1.3997400000    -0.4349100000
    4      C       2.6307000000     1.7170000000     0.3285500000
    5      C       3.0433600000     0.2935100000     0.8030000000
    6      C       1.9442300000    -0.5929900000     0.1526200000
    7      O       1.6284000000     0.1366300000    -1.0437600000
    8      H       3.3723400000     2.1378200000    -0.3519500000
    9      H       2.4823600000     2.4248800000     1.1465100000
   10      H       4.0218200000     0.0099400000     0.4116100000
   11      H       3.0735900000     0.1873800000     1.8892800000
   12      H       1.0327000000     2.1994300000    -1.0806400000
   13      H       2.2433900000    -1.6149600000     0.0478600000
   14      H       0.8169300000    -0.4890500000     2.0488700000
   15      H      -0.1252400000    -1.1535600000     0.8184300000
   16      H      -0.7467300000     1.0681100000     0.1336500000
   17      H       0.1555200000     1.7261700000     1.4082800000
   18      GH      3.1348600000     2.7402200000     3.2571100000
   19      GH      3.5384200000     1.2818100000     3.6698700000
   20      GH      4.2422400000     3.0950800000     2.2362500000
   21      GH      5.5428600000     3.4123400000     2.9997100000
   22      GH      5.9555200000     1.9888500000     3.4741600000
   23      GH      4.8563900000     1.1023500000     2.8237800000
   24      GH      4.5405600000     1.8319700000     1.6274000000
   25      GH      6.2845000000     3.8331600000     2.3192100000
   26      GH      5.3945200000     4.1202200000     3.8176700000
   27      GH      6.9339800000     1.7052800000     3.0827700000
   28      GH      5.9857500000     1.8827200000     4.5604400000
   29      GH      3.9448600000     3.8947700000     1.5905200000
   30      GH      5.1555500000     0.0803800000     2.7190200000
   31      GH      3.7290900000     1.2062900000     4.7200300000
   32      GH      2.7869200000     0.5417800000     3.4895900000
   33      GH      2.1654300000     2.7634500000     2.8048100000
   34      GH      3.0676800000     3.4215100000     4.0794400000
 ----------------------------------------------------------------
 Nuclear Repulsion Energy =   331.2533536408 hartrees
 There are       27 alpha and       27 beta electrons
 Requested basis set is 6-311++G(d,p)
 There are 184 shells and 448 basis functions

 Total QAlloc Memory Limit   4000 MB
 Mega-Array Size       392 MB
 MEM_STATIC part       400 MB
 A cutoff of  1.0D-12 yielded  14873 shell pairs
 There are     88116 function pairs (     93476 Cartesian)
 
 -------------------------------------------------------
 OpenMP Integral Computing Module                       
 Release: version 1.0, May 2013, Q-Chem Inc. Pittsburgh 
 -------------------------------------------------------
 Integral Job Info:
 Integral job number is                      11
 Integral operator is                         1
 short-range coefficients                     0
 long-range coefficients              100000000
 Omega coefficients                           0
 if combine SR and LR in K                    0
 Integral screening is                        0
 Integral computing path is                   2
 max size of driver memory is            800000
 size of driver memory is                593474
 size of scratch memory is              2361544
 max col of scratch BK array               1296
 max len of scratch array in speh3          155
 max len of scratch index in speh4           18
 max int batch size is                      520
 min int batch size is                       52
 fixed nKL is                                52
 max L of basis functions is                  2
 order of int derivative is                   0
 number of shells is                        184
 number of basis is                         462
 number of cartesian basis is               462
 number of contracted shell pairs         14873
 number of primitive shell pairs          32368
 maxK2 (contraction) of shell pair           36
 max number of K2 of shell pair               1
 max number of CS2 of shell pair           2633
 max number of PS2 of shell pair           4662
 mem total for path MDJ                  124794
 -------------------------------------------------------
 Smallest overlap matrix eigenvalue = 8.31E-07
 Linear dependence detected in AO basis
 Number of orthogonalized atomic orbitals = 447
 Maximum deviation from orthogonality = 7.456E-11

 Scale SEOQF with 1.000000e-02/1.000000e-01/1.000000e-01

 Standard Electronic Orientation quadrupole field applied
 Nucleus-field energy     =     0.0000000014 hartrees
 Guess from superposition of atomic densities
 Warning:  Energy on first SCF cycle will be non-variational

 Q-Chem warning in module /opt/software/qchem/qchem-5.0.1/libgen/Atomic_PolEc.C, line 58:

 No atomic polarizability available.


 Q-Chem warning in module /opt/software/qchem/qchem-5.0.1/libgen/Atomic_PolEc.C, line 73:

 No atomic polarizability available.


 Q-Chem warning in module /opt/software/qchem/qchem-5.0.1/libgen/Atomic_PolEc.C, line 58:

 No atomic polarizability available.


 Q-Chem warning in module /opt/software/qchem/qchem-5.0.1/libgen/Atomic_PolEc.C, line 73:

 No atomic polarizability available.


 Q-Chem warning in module /opt/software/qchem/qchem-5.0.1/libgen/Atomic_PolEc.C, line 58:

 No atomic polarizability available.


 Q-Chem warning in module /opt/software/qchem/qchem-5.0.1/libgen/Atomic_PolEc.C, line 73:

 No atomic polarizability available.


 Q-Chem warning in module /opt/software/qchem/qchem-5.0.1/libgen/Atomic_PolEc.C, line 58:

 No atomic polarizability available.


 Q-Chem warning in module /opt/software/qchem/qchem-5.0.1/libgen/Atomic_PolEc.C, line 73:

 No atomic polarizability available.


 Q-Chem warning in module /opt/software/qchem/qchem-5.0.1/libgen/Atomic_PolEc.C, line 58:

 No atomic polarizability available.


 Q-Chem warning in module /opt/software/qchem/qchem-5.0.1/libgen/Atomic_PolEc.C, line 73:

 No atomic polarizability available.


 Q-Chem warning in module /opt/software/qchem/qchem-5.0.1/libgen/Atomic_PolEc.C, line 58:

 No atomic polarizability available.


 Q-Chem warning in module /opt/software/qchem/qchem-5.0.1/libgen/Atomic_PolEc.C, line 73:

 No atomic polarizability available.


 Q-Chem warning in module /opt/software/qchem/qchem-5.0.1/libgen/Atomic_PolEc.C, line 58:

 No atomic polarizability available.


 Q-Chem warning in module /opt/software/qchem/qchem-5.0.1/libgen/Atomic_PolEc.C, line 73:

 No atomic polarizability available.


 Q-Chem warning in module /opt/software/qchem/qchem-5.0.1/libgen/Atomic_PolEc.C, line 58:

 No atomic polarizability available.


 Q-Chem warning in module /opt/software/qchem/qchem-5.0.1/libgen/Atomic_PolEc.C, line 73:

 No atomic polarizability available.


 Q-Chem warning in module /opt/software/qchem/qchem-5.0.1/libgen/Atomic_PolEc.C, line 58:

 No atomic polarizability available.


 Q-Chem warning in module /opt/software/qchem/qchem-5.0.1/libgen/Atomic_PolEc.C, line 73:

 No atomic polarizability available.


 Q-Chem warning in module /opt/software/qchem/qchem-5.0.1/libgen/Atomic_PolEc.C, line 58:

 No atomic polarizability available.


 Q-Chem warning in module /opt/software/qchem/qchem-5.0.1/libgen/Atomic_PolEc.C, line 73:

 No atomic polarizability available.


 Q-Chem warning in module /opt/software/qchem/qchem-5.0.1/libgen/Atomic_PolEc.C, line 58:

 No atomic polarizability available.


 Q-Chem warning in module /opt/software/qchem/qchem-5.0.1/libgen/Atomic_PolEc.C, line 73:

 No atomic polarizability available.


 Q-Chem warning in module /opt/software/qchem/qchem-5.0.1/libgen/Atomic_PolEc.C, line 58:

 No atomic polarizability available.


 Q-Chem warning in module /opt/software/qchem/qchem-5.0.1/libgen/Atomic_PolEc.C, line 73:

 No atomic polarizability available.


 Q-Chem warning in module /opt/software/qchem/qchem-5.0.1/libgen/Atomic_PolEc.C, line 58:

 No atomic polarizability available.


 Q-Chem warning in module /opt/software/qchem/qchem-5.0.1/libgen/Atomic_PolEc.C, line 73:

 No atomic polarizability available.


 Q-Chem warning in module /opt/software/qchem/qchem-5.0.1/libgen/Atomic_PolEc.C, line 58:

 No atomic polarizability available.


 Q-Chem warning in module /opt/software/qchem/qchem-5.0.1/libgen/Atomic_PolEc.C, line 73:

 No atomic polarizability available.


 Q-Chem warning in module /opt/software/qchem/qchem-5.0.1/libgen/Atomic_PolEc.C, line 58:

 No atomic polarizability available.


 Q-Chem warning in module /opt/software/qchem/qchem-5.0.1/libgen/Atomic_PolEc.C, line 73:

 No atomic polarizability available.


 Q-Chem warning in module /opt/software/qchem/qchem-5.0.1/libgen/Atomic_PolEc.C, line 58:

 No atomic polarizability available.


 Q-Chem warning in module /opt/software/qchem/qchem-5.0.1/libgen/Atomic_PolEc.C, line 73:

 No atomic polarizability available.


 Q-Chem warning in module /opt/software/qchem/qchem-5.0.1/libgen/Atomic_PolEc.C, line 58:

 No atomic polarizability available.


 Q-Chem warning in module /opt/software/qchem/qchem-5.0.1/libgen/Atomic_PolEc.C, line 73:

 No atomic polarizability available.

 A restricted hybrid HF-DFT SCF calculation will be
 performed using Pulay DIIS extrapolation
 Exchange:     0.2000 Hartree-Fock + 0.0800 Slater + 0.7200 B88
 Correlation:  0.1900 VWN1RPA + 0.8100 LYP
 Using SG-1 standard quadrature grid
 Dispersion:   Grimme D3
 SCF converges when DIIS error is below 1.0E-08
 using 4 threads for integral computing
 -------------------------------------------------------
 OpenMP Integral computing Module                
 Release: version 1.0, May 2013, Q-Chem Inc. Pittsburgh 
 -------------------------------------------------------
 -------------------------------------------------------
 OpenMP BLAS3 based DFT computing Module                
 Release: version 1.0, May 2013, Q-Chem Inc. Pittsburgh 
 -------------------------------------------------------
 ---------------------------------------
  Cycle       Energy         DIIS Error
 ---------------------------------------
    1    -311.4034288761      2.06E-02
    2    -309.8167942104      2.37E-03
    3    -309.7369087159      3.03E-03
    4    -309.9572498266      3.73E-04
    5    -309.9593964368      1.66E-04
    6    -309.9598798330      4.83E-05
    7    -309.9599192499      1.35E-05
    8    -309.9599231084      1.60E-06
    9    -309.9599231702      4.04E-07
   10    -309.9599231745      7.43E-08
   11    -309.9599231746      2.73E-08
   12    -309.9599231746      6.37E-09 Convergence criterion met
 ---------------------------------------
 SCF time:  CPU 654.97 s  wall 164.43 s
 SCF   energy in the final basis set = -309.95992317
 Total energy in the final basis set = -309.95992317
 
 --------------------------------------------------------------
 
                    Orbital Energies (a.u.)
 --------------------------------------------------------------
 
 Alpha MOs
 -- Occupied --
-19.123 -10.221 -10.218 -10.168 -10.167 -10.165 -10.163  -1.050
 -0.798  -0.749  -0.747  -0.614  -0.578  -0.574  -0.527  -0.478
 -0.465  -0.431  -0.406  -0.395  -0.364  -0.360  -0.351  -0.339
 -0.317  -0.304  -0.264
 -- Virtual --
 -0.011   0.006   0.009   0.010   0.026   0.029   0.033   0.035
  0.041   0.050   0.054   0.056   0.061   0.071   0.074   0.075
  0.079   0.082   0.090   0.094   0.101   0.103   0.107   0.112
  0.116   0.120   0.122   0.123   0.125   0.128   0.132   0.138
  0.143   0.144   0.147   0.150   0.154   0.155   0.159   0.160
  0.164   0.168   0.170   0.175   0.178   0.186   0.187   0.190
  0.195   0.196   0.201   0.203   0.204   0.209   0.214   0.218
  0.226   0.227   0.228   0.232   0.237   0.244   0.245   0.250
  0.253   0.256   0.261   0.269   0.276   0.282   0.284   0.287
  0.293   0.299   0.302   0.311   0.319   0.323   0.330   0.335
  0.339   0.347   0.354   0.357   0.362   0.363   0.369   0.371
  0.378   0.390   0.393   0.402   0.406   0.408   0.418   0.420
  0.429   0.431   0.433   0.451   0.454   0.462   0.465   0.480
  0.492   0.495   0.507   0.517   0.526   0.534   0.541   0.554
  0.566   0.567   0.576   0.583   0.587   0.601   0.623   0.636
  0.646   0.657   0.660   0.669   0.672   0.678   0.689   0.701
  0.706   0.709   0.714   0.716   0.720   0.727   0.741   0.749
  0.754   0.758   0.760   0.769   0.773   0.777   0.789   0.793
  0.807   0.813   0.827   0.840   0.854   0.861   0.873   0.892
  0.912   0.918   0.923   0.932   0.951   0.956   0.999   1.036
  1.040   1.058   1.075   1.092   1.108   1.110   1.129   1.146
  1.174   1.192   1.199   1.209   1.217   1.228   1.244   1.255
  1.266   1.275   1.308   1.319   1.373   1.383   1.413   1.414
  1.457   1.465   1.474   1.492   1.501   1.520   1.524   1.541
  1.548   1.563   1.574   1.576   1.597   1.603   1.616   1.637
  1.638   1.648   1.653   1.662   1.671   1.675   1.700   1.703
  1.723   1.729   1.744   1.749   1.764   1.771   1.787   1.811
  1.819   1.825   1.835   1.836   1.847   1.854   1.862   1.874
  1.881   1.895   1.907   1.922   1.925   1.930   1.939   1.948
  1.956   1.975   1.986   1.999   2.004   2.008   2.027   2.030
  2.036   2.045   2.074   2.101   2.135   2.158   2.167   2.182
  2.196   2.209   2.218   2.223   2.232   2.249   2.256   2.294
  2.306   2.310   2.334   2.336   2.346   2.354   2.385   2.402
  2.408   2.427   2.435   2.446   2.452   2.466   2.475   2.497
  2.512   2.517   2.525   2.541   2.547   2.552   2.574   2.591
  2.606   2.615   2.625   2.637   2.653   2.701   2.709   2.723
  2.741   2.744   2.766   2.774   2.777   2.779   2.817   2.829
  2.846   2.857   2.874   2.880   2.884   2.888   2.908   2.917
  2.941   2.956   2.959   2.979   3.024   3.028   3.035   3.078
  3.081   3.092   3.105   3.121   3.152   3.164   3.180   3.201
  3.216   3.228   3.254   3.276   3.288   3.299   3.319   3.380
  3.401   3.416   3.442   3.473   3.509   3.524   3.548   3.579
  3.583   3.656   3.661   3.684   3.720   3.744   3.783   3.798
  3.814   3.838   3.865   3.908   3.944   3.966   3.976   4.016
  4.042   4.095   4.106   4.156   4.193   4.225   4.377   4.487
  4.558   4.619   4.727   4.791   4.818   4.838   4.876   4.892
  4.910   4.976   5.058   5.085   5.145   5.172   5.298   5.487
  5.633   5.661   7.322   7.364   7.495   7.539   7.578   7.596
  7.619   7.725   7.914   7.971   7.980   8.020   8.143   8.248
  8.357   8.404   8.643   8.699   9.885   9.906   9.990  10.027
 10.044  10.121  13.665  13.932  14.002  18.591  23.848  23.865
 23.989  24.001  24.014  24.089  49.956  69.732  69.787  69.866
 69.873  69.988  70.023 139.743
 --------------------------------------------------------------
 
          Ground-State Mulliken Net Atomic Charges

     Atom                 Charge (a.u.)
  ----------------------------------------
      1 C                    -0.355839
      2 C                    -0.358488
      3 C                    -0.192552
      4 C                    -0.188976
      5 C                    -0.205847
      6 C                    -0.176443
      7 O                    -0.114851
      8 H                     0.195802
      9 H                     0.056338
     10 H                     0.190514
     11 H                     0.053359
     12 H                     0.227835
     13 H                     0.226189
     14 H                     0.099191
     15 H                     0.188690
     16 H                     0.180215
     17 H                     0.110817
     18 GH                   -0.017596
     19 GH                   -0.012645
     20 GH                    0.011032
     21 GH                    0.002713
     22 GH                    0.001212
     23 GH                    0.011090
     24 GH                    0.035790
     25 GH                   -0.000231
     26 GH                    0.000481
     27 GH                    0.000098
     28 GH                    0.000324
     29 GH                    0.005884
     30 GH                    0.004986
     31 GH                   -0.000982
     32 GH                    0.016275
     33 GH                    0.005988
     34 GH                   -0.000376
  ----------------------------------------
  Sum of atomic charges =     0.000000

 -----------------------------------------------------------------
                    Cartesian Multipole Moments
 -----------------------------------------------------------------
    Charge (ESU x 10^10)
                 0.0000
    Dipole Moment (Debye)
         X      -0.0149      Y       0.5152      Z       1.7159
       Tot       1.7917
    Quadrupole Moments (Debye-Ang)
        XX     -43.2385     XY      -0.0535     YY     -40.6325
        XZ       2.7827     YZ      -0.8498     ZZ     -46.2141
    Octopole Moments (Debye-Ang^2)
       XXX    -212.4783    XXY     -25.2963    XYY     -67.3780
       YYY     -68.3796    XXZ      -8.9532    XYZ      -1.0370
       YYZ     -13.9714    XZZ     -75.7419    YZZ     -21.3564
       ZZZ     -30.2934
    Hexadecapole Moments (Debye-Ang^3)
      XXXX   -1042.3030   XXXY    -131.7211   XXYY    -228.8806
      XYYY    -126.1531   YYYY    -349.5039   XXXZ     -55.9508
      XXYZ      -4.8838   XYYZ     -21.7756   YYYZ      -7.2159
      XXZZ    -221.5886   XYZZ     -39.6272   YYZZ     -91.5307
      XZZZ     -43.4116   YZZZ      -4.2349   ZZZZ    -219.1207
 -----------------------------------------------------------------
Archival summary:
1\1\vega03.cac.cornell.edu\SP\ProcedureUnspecified\BasisUnspecified\1610h17\jj585\MonApr1622:58:272018MonApr1622:58:272018\0\\#,ProcedureUnspecified,BasisUnspecified,\\0,1\O\C,1,1.43358\H,2,1.07,1,117.389\C,1,1.43646,2,98.0224,3,-179.253,0\H,4,1.07,1,117.714,2,-178.733,0\C,2,1.54115,1,102.483,3,-123.548,0\H,6,1.09096,2,110.128,1,81.1589,0\H,6,1.09186,2,112.95,1,-157.962,0\C,2,1.54738,1,103.124,3,123.327,0\H,9,1.07,2,113.95,1,155.255,0\H,9,1.07,2,111.379,1,-86.5463,0\C,4,1.55466,1,102.371,2,-54.4128,0\H,12,1.09132,4,109.614,1,-87.4148,0\H,12,1.09187,4,112.355,1,152.676,0\C,9,1.5685,2,101.696,1,32.1918,0\H,15,1.07,9,111.7,2,120.458,0\H,15,1.07,9,114.71,2,-121.541,0\Gh,14,1.66396,12,158.646,4,-98.1514,0\Gh,18,1.07,14,100.856,12,-81.06,0\Gh,19,1.07,18,103.987,14,-153.473,0\Gh,19,1.5685,18,114.71,14,84.2451,0\Gh,21,1.07,19,113.95,18,115.396,0\Gh,21,1.07,19,111.379,18,-2.80271,0\Gh,21,1.54738,19,101.696,18,-121.541,0\Gh,24,1.07,21,111.755,19,159.179,0\Gh,24,1.43358,21,103.124,19,32.1918,0\Gh,26,1.43646,24,98.0224,21,-55.9256,0\Gh,27,1.07,26,117.714,24,-178.733,0\Gh,24,1.54115,21,108.926,19,-76.1436,0\Gh,29,1.09096,24,110.128,21,-170.072,0\Gh,29,1.09186,24,112.95,21,-49.1929,0\Gh,27,1.55466,26,102.371,24,-54.4128,0\Gh,32,1.09132,27,109.614,26,-87.4148,0\Gh,32,1.09187,27,112.355,26,152.676,0\\\@

 Total job time:  165.31s(wall), 657.48s(cpu) 
 Mon Apr 16 22:58:27 2018

        *************************************************************
        *                                                           *
        *  Thank you very much for using Q-Chem.  Have a nice day.  *
        *                                                           *
        *************************************************************


0 sent ACK to 0 
now end server 0 ... 
