mFile = /opt/software/qchem/qchem-5.0.1//bin/mpi/machines
Process 0 of 1 is on vega02.cac.cornell.edu - thread support 0
initial socket setup ...start
initial socket setup ...done 
now start server 0 ... 
vega02.cac.cornell.edu 10.84.3
Q-Chem Developer Version! Running on 10.84.3.*
                  Welcome to Q-Chem
     A Quantum Leap Into The Future Of Chemistry


 Q-Chem 5.0, Q-Chem, Inc., Pleasanton, CA (2017)

 Yihan Shao,  Zhengting Gan,  E. Epifanovsky,  A. T. B. Gilbert,  M. Wormit,  
 J. Kussmann,  A. W. Lange,  A. Behn,  Jia Deng,  Xintian Feng,  D. Ghosh,  
 M. Goldey,  P. R. Horn,  L. D. Jacobson,  I. Kaliman,  T. Kus,  A. Landau,  
 Jie Liu,  E. I. Proynov,  R. M. Richard,  R. P. Steele,  E. J. Sundstrom,  
 H. L. Woodcock III,  P. M. Zimmerman,  D. Zuev,  B. Albrecht,  E. Alguire,  
 S. A. Baeppler,  Z. Benda,  Y. A. Bernard,  E. J. Berquist,  K. B. Bravaya,  
 D. Casanova,  Chun-Min Chang,  Yunqing Chen,  A. Chien,  K. D. Closser,  
 M. P. Coons,  S. Dasgupta,  M. Diedenhofen,  Hainam Do,  R. G. Edgar,  
 Po-Tung Fang,  S. Fatehi,  Qingguo Feng,  Qinghui Ge,  A. Ghysels,  
 J. Gomes,  J. Gonthier,  A. Gunina,  M. W. D. Hanson-Heine,  
 P. H. P. Harbach,  A. W. Hauser,  J. E. Herr,  E. G. Hohenstein,  
 Z. C. Holden,  Kerwin Hui,  T.-C. Jagau,  Hyunjun Ji,  B. Kaduk,  
 K. Khistyaev,  Jaehoon Kim,  P. Klunzinger,  K. Koh,  D. Kosenkov,  
 T. Kowalczyk,  C. M. Krauter,  A. Kunitsa,  Ka Un Lao,  A. Laurent,  
 K. V. Lawler,  Joonho Lee,  D. Lefrancois,  S. Lehtola,  D. S. Levine,  
 Yi-Pei Li,  You-Sheng Lin,  Fenglai Liu,  E. Livshits,  A. Luenser,  
 P. Manohar,  E. Mansoor,  S. F. Manzer,  Shan-Ping Mao,  Yuezhi Mao,  
 N. Mardirossian,  A. V. Marenich,  L. A. Martinez-Martinez,  S. A. Maurer,  
 N. J. Mayhall,  S. C. McKenzie,  J.-M. Mewes,  A. F. Morrison,  K. Nanda,  
 T. S. Nguyen-Beck,  R. Olivares-Amaya,  J. A. Parkhill,  T. M. Perrine,  
 F. Plasser,  S. Prager,  A. Prociuk,  D. R. Rehn,  F. Rob,  M. Schneider,  
 N. Sergueev,  S. M. Sharada,  S. Sharma,  D. W. Small,  T. Stauch,  
 T. Stein,  Yu-Chuan Su,  A. J. W. Thom,  T. Tsuchimochi,  L. Vogt,  
 O. Vydrov,  M. A. Watson,  J. Wenzel,  M. de Wergifosse,  T. A. Wesolowski,  
 A. White,  J. Witte,  A. Yamada,  Jun Yang,  K. Yao,  S. Yeganeh,  
 S. R. Yost,  Zhi-Qiang You,  A. Zech,  Igor Ying Zhang,  Xing Zhang,  
 Yan Zhao,  Ying Zhu,  B. R. Brooks,  G. K. L. Chan,  C. J. Cramer,  
 M. S. Gordon,  W. J. Hehre,  A. Klamt,  M. W. Schmidt,  C. D. Sherrill,  
 D. G. Truhlar,  A. Aspuru-Guzik,  R. Baer,  A. T. Bell,  N. A. Besley,  
 Jeng-Da Chai,  A. Dreuw,  B. D. Dunietz,  T. R. Furlani,  Chao-Ping Hsu,  
 Yousung Jung,  Jing Kong,  D. S. Lambrecht,  WanZhen Liang,  C. Ochsenfeld,  
 V. A. Rassolov,  L. V. Slipchenko,  J. E. Subotnik,  T. Van Voorhis,  
 J. M. Herbert,  A. I. Krylov,  P. M. W. Gill,  M. Head-Gordon

 Contributors to earlier versions of Q-Chem not listed above: 
 R. D. Adamson,  B. Austin,  J. Baker,  G. J. O. Beran,  K. Brandhorst,  
 S. T. Brown,  E. F. C. Byrd,  A. K. Chakraborty,  C.-L. Cheng,  
 Siu Hung Chien,  D. M. Chipman,  D. L. Crittenden,  H. Dachsel,  
 R. A. DiStasio Jr.,  R. J. Doerksen,  A. D. Dutoi,  L. Fusti-Molnar,  
 W. A. Goddard III,  A. Golubeva-Zadorozhnaya,  S. R. Gwaltney,  G. Hawkins,  
 A. Heyden,  S. Hirata,  G. Kedziora,  F. J. Keil,  C. Kelley,  Jihan Kim,  
 R. A. King,  R. Z. Khaliullin,  P. P. Korambath,  W. Kurlancheek,  
 A. M. Lee,  M. S. Lee,  S. V. Levchenko,  Ching Yeh Lin,  D. Liotard,  
 R. C. Lochan,  I. Lotan,  P. E. Maslen,  N. Nair,  D. P. O'Neill,  
 D. Neuhauser,  E. Neuscamman,  C. M. Oana,  R. Olson,  B. Peters,  
 R. Peverati,  P. A. Pieniazek,  Y. M. Rhee,  J. Ritchie,  M. A. Rohrdanz,  
 E. Rosta,  N. J. Russ,  H. F. Schaefer III,  N. E. Schultz,  N. Shenvi,  
 A. C. Simmonett,  A. Sodt,  D. Stuck,  K. S. Thanthiriwatte,  V. Vanovschi,  
 Tao Wang,  A. Warshel,  C. F. Williams,  Q. Wu,  X. Xu,  W. Zhang

 Please cite Q-Chem as follows:
 Y. Shao et al., Mol. Phys. 113, 184-215 (2015)
 DOI: 10.1080/00268976.2014.952696

 Q-Chem 5.0.1 for Intel X86 EM64T Linux

 Parts of Q-Chem use Armadillo 5.200.1 (Boston Tea Smuggler).
 http://arma.sourceforge.net/

 Q-Chem begins on Tue Apr 17 22:55:18 2018  

Host: vega02.cac.cornell.edu
0

     Scratch files written to /scratch/jj585/vdw/0100_distance_4.300_11.save//
 Parallel job on  1  processors

Checking the input file for inconsistencies... 	...done.

--------------------------------------------------------------
User input:
--------------------------------------------------------------
$molecule
0  1
--
0  1
C        +0.20553000        +1.04146000        +0.58269000
C        +0.65000000        -0.38925000        +1.00740000
C        +1.32948000        +1.41743000        -0.40725000
C        +2.62919000        +1.72756000        +0.36622000
C        +3.06783000        +0.29650000        +0.79479000
C        +1.94651000        -0.57906000        +0.17708000
O        +1.63056000        +0.15702000        -1.03120000
H        +3.36767000        +2.18673000        -0.29348000
H        +2.46319000        +2.40269000        +1.20873000
H        +4.03298000        +0.02999000        +0.35944000
H        +3.13919000        +0.17160000        +1.87760000
H        +1.05575000        +2.14422000        -1.17046000
C        +2.32428000        -2.00466000        -0.15206000
H        +3.19961000        -2.02906000        -0.80581000
H        +1.50021000        -2.51513000        -0.65630000
H        +2.56254000        -2.55434000        +0.76296000
H        -0.76025000        +1.02051000        +0.07473000
H        +0.13481000        +1.74083000        +1.41846000
H        +0.82947000        -0.48542000        +2.08050000
H        -0.09122000        -1.13848000        +0.72072000
--
0  1
C        +0.22122000        +2.27455000        +4.70206000
C        +0.66569000        +0.84384000        +5.12677000
C        +1.34517000        +2.65052000        +3.71212000
C        +2.64488000        +2.96065000        +4.48559000
C        +3.08352000        +1.52959000        +4.91416000
C        +1.96220000        +0.65403000        +4.29645000
O        +1.64625000        +1.39011000        +3.08817000
H        +3.38336000        +3.41982000        +3.82589000
H        +2.47888000        +3.63578000        +5.32810000
H        +4.04867000        +1.26308000        +4.47881000
H        +3.15488000        +1.40469000        +5.99697000
H        +1.07144000        +3.37731000        +2.94891000
C        +2.33997000        -0.77157000        +3.96731000
H        +3.21530000        -0.79597000        +3.31356000
H        +1.51590000        -1.28204000        +3.46307000
H        +2.57823000        -1.32125000        +4.88233000
H        -0.74456000        +2.25360000        +4.19410000
H        +0.15050000        +2.97392000        +5.53783000
H        +0.84516000        +0.74767000        +6.19987000
H        -0.07553000        +0.09461000        +4.84009000
$end

$rem
JOBTYPE                   SP
METHOD                    B3LYP
DFT_D                     d3_op
BASIS                     6-311++G(d,p)
SYMMETRY                  False
THRESH                    12
SCF_CONVERGENCE           8
MAX_SUB_FILE_NUM          128
MEM_STATIC                400
MEM_TOTAL                 4000
$end
--------------------------------------------------------------
 Adding empirical dispersion correction 
 ----------------------------------------------------------------
 Doing -D3(op) with
 s6 =   1.00000
 s8 =   0.78311
 a1 =   0.30000
 a2 =   4.25000
 n  =  10.00000
 -D3 energy without 3body term =     -0.0478770327 hartrees
 ----------------------------------------------------------------
             Standard Nuclear Orientation (Angstroms)
    I     Atom           X                Y                Z
 ----------------------------------------------------------------
    1      C       1.4237227321     1.2482255168    -1.2627786306
    2      C       1.5641792660    -0.3026243243    -1.2628200059
    3      C       2.2305340664     1.6170871637     0.0011813385
    4      C       1.4257455965     1.2459573828     1.2654047152
    5      C       1.5626146062    -0.3049263181     1.2593517242
    6      C       2.4342130716    -0.5431556209    -0.0012403646
    7      O       3.2803400894     0.6339795877    -0.0005348055
    8      H       1.8865276732     1.6802812885     2.1544696803
    9      H       0.3907071133     1.5918960091     1.2184854009
   10      H       2.0863622108    -0.6607662311     2.1488111826
   11      H       0.6032616215    -0.8240212501     1.2014547647
   12      H       2.6671678377     2.6145798987     0.0018986251
   13      C       3.2722692000    -1.8005489006     0.0004144218
   14      H       3.9081727965    -1.8373242281     0.8883678117
   15      H       3.9107032026    -1.8393634184    -0.8854887450
   16      H       2.6286362198    -2.6848077667     0.0010266277
   17      H       1.8826696992     1.6863861807    -2.1507967534
   18      H       0.3881219318     1.5910115477    -1.2112041454
   19      H       0.6056554568    -0.8234677178    -1.2084506551
   20      H       2.0898555360    -0.6552396632    -2.1529126896
   21      C      -2.8591880178     0.8652871056    -1.2627290129
   22      C      -2.7187314839    -0.6855627355    -1.2627703882
   23      C      -2.0523766835     1.2341487525     0.0012309561
   24      C      -2.8571651534     0.8630189716     1.2654543329
   25      C      -2.7202961437    -0.6878647293     1.2594013419
   26      C      -1.8486976783    -0.9260940321    -0.0011907470
   27      O      -1.0025706605     0.2510411765    -0.0004851879
   28      H      -2.3963830768     1.2973428773     2.1545192980
   29      H      -3.8922036366     1.2089575979     1.2185350186
   30      H      -2.1965485392    -1.0437046423     2.1488608003
   31      H      -3.6796491284    -1.2069596613     1.2015043823
   32      H      -1.6157429123     2.2316414875     0.0019482428
   33      C      -1.0106415499    -2.1834873118     0.0004640395
   34      H      -0.3747379534    -2.2202626393     0.8884174294
   35      H      -0.3722075474    -2.2223018296    -0.8854391273
   36      H      -1.6542745301    -3.0677461779     0.0010762454
   37      H      -2.4002410507     1.3034477695    -2.1507471358
   38      H      -3.8947888182     1.2080731365    -1.2111545277
   39      H      -3.6772552931    -1.2064061290    -1.2084010374
   40      H      -2.1930552140    -1.0381780744    -2.1528630719
 ----------------------------------------------------------------
 Molecular Point Group                 C1    NOp =  1
 Largest Abelian Subgroup              C1    NOp =  1
 Nuclear Repulsion Energy =  1273.4767073755 hartrees
 There are       62 alpha and       62 beta electrons
 Requested basis set is 6-311++G(d,p)
 There are 216 shells and 520 basis functions

 Total QAlloc Memory Limit   4000 MB
 Mega-Array Size       392 MB
 MEM_STATIC part       400 MB
 A cutoff of  1.0D-12 yielded  20065 shell pairs
 There are    116344 function pairs (    123281 Cartesian)
 
 -------------------------------------------------------
 OpenMP Integral Computing Module                       
 Release: version 1.0, May 2013, Q-Chem Inc. Pittsburgh 
 -------------------------------------------------------
 Integral Job Info:
 Integral job number is                      11
 Integral operator is                         1
 short-range coefficients                     0
 long-range coefficients              100000000
 Omega coefficients                           0
 if combine SR and LR in K                    0
 Integral screening is                        0
 Integral computing path is                   2
 max size of driver memory is            800000
 size of driver memory is                593474
 size of scratch memory is              2361544
 max col of scratch BK array               1296
 max len of scratch array in speh3          155
 max len of scratch index in speh4           18
 max int batch size is                      520
 min int batch size is                       52
 fixed nKL is                                52
 max L of basis functions is                  2
 order of int derivative is                   0
 number of shells is                        216
 number of basis is                         536
 number of cartesian basis is               536
 number of contracted shell pairs         20065
 number of primitive shell pairs          42354
 maxK2 (contraction) of shell pair           36
 max number of K2 of shell pair               1
 max number of CS2 of shell pair           3603
 max number of PS2 of shell pair           6264
 mem total for path MDJ                  161400
 -------------------------------------------------------
 Smallest overlap matrix eigenvalue = 7.56E-07
 Linear dependence detected in AO basis
 Number of orthogonalized atomic orbitals = 519
 Maximum deviation from orthogonality = 1.134E-10

 Scale SEOQF with 1.000000e-01/1.000000e-01/1.000000e-01

 Standard Electronic Orientation quadrupole field applied
 Nucleus-field energy     =     0.0000000233 hartrees
 Guess from superposition of atomic densities
 Warning:  Energy on first SCF cycle will be non-variational
 A restricted hybrid HF-DFT SCF calculation will be
 performed using Pulay DIIS extrapolation
 Exchange:     0.2000 Hartree-Fock + 0.0800 Slater + 0.7200 B88
 Correlation:  0.1900 VWN1RPA + 0.8100 LYP
 Using SG-1 standard quadrature grid
 Dispersion:   Grimme D3
 SCF converges when DIIS error is below 1.0E-08
 using 4 threads for integral computing
 -------------------------------------------------------
 OpenMP Integral computing Module                
 Release: version 1.0, May 2013, Q-Chem Inc. Pittsburgh 
 -------------------------------------------------------
 -------------------------------------------------------
 OpenMP BLAS3 based DFT computing Module                
 Release: version 1.0, May 2013, Q-Chem Inc. Pittsburgh 
 -------------------------------------------------------
 ---------------------------------------
  Cycle       Energy         DIIS Error
 ---------------------------------------
    1    -701.9374295736      2.69E-02
    2    -698.2427996505      3.22E-03
    3    -698.0627925705      4.01E-03
    4    -698.5872373344      6.03E-04
    5    -698.5958384070      2.29E-04
    6    -698.5970817288      6.71E-05
    7    -698.5971751457      2.51E-05
    8    -698.5971924530      3.00E-06
    9    -698.5971926490      1.71E-06
   10    -698.5971927219      4.28E-07
   11    -698.5971927261      1.24E-07
   12    -698.5971927265      2.43E-08
   13    -698.5971927266      6.56E-09 Convergence criterion met
 ---------------------------------------
 SCF time:  CPU 1058.58 s  wall 268.18 s
 SCF   energy in the final basis set = -698.59719273
 Total energy in the final basis set = -698.59719273
 
 --------------------------------------------------------------
 
                    Orbital Energies (a.u.)
 --------------------------------------------------------------
 
 Alpha MOs
 -- Occupied --
-19.124 -19.101 -10.234 -10.227 -10.210 -10.202 -10.177 -10.177
-10.176 -10.176 -10.170 -10.152 -10.149 -10.149 -10.148 -10.148
 -1.058  -1.030  -0.810  -0.787  -0.780  -0.759  -0.759  -0.733
 -0.690  -0.666  -0.622  -0.597  -0.585  -0.567  -0.556  -0.538
 -0.510  -0.496  -0.485  -0.478  -0.464  -0.457  -0.439  -0.427
 -0.421  -0.414  -0.401  -0.401  -0.389  -0.382  -0.377  -0.371
 -0.359  -0.358  -0.354  -0.349  -0.339  -0.333  -0.328  -0.326
 -0.316  -0.311  -0.301  -0.286  -0.274  -0.245
 -- Virtual --
 -0.015  -0.003   0.002   0.006   0.014   0.018   0.021   0.023
  0.025   0.037   0.040   0.041   0.045   0.046   0.052   0.056
  0.065   0.069   0.070   0.075   0.078   0.082   0.086   0.088
  0.093   0.096   0.102   0.106   0.107   0.108   0.113   0.116
  0.118   0.121   0.123   0.125   0.129   0.131   0.133   0.136
  0.136   0.138   0.138   0.142   0.145   0.150   0.151   0.152
  0.157   0.158   0.158   0.162   0.164   0.164   0.168   0.169
  0.174   0.175   0.176   0.181   0.183   0.184   0.187   0.189
  0.192   0.197   0.201   0.205   0.211   0.213   0.216   0.216
  0.217   0.224   0.225   0.230   0.232   0.238   0.242   0.244
  0.246   0.248   0.250   0.256   0.263   0.266   0.268   0.269
  0.274   0.275   0.282   0.283   0.291   0.296   0.302   0.308
  0.310   0.314   0.317   0.321   0.331   0.332   0.336   0.342
  0.343   0.347   0.348   0.350   0.357   0.360   0.364   0.364
  0.376   0.379   0.380   0.383   0.387   0.394   0.398   0.403
  0.414   0.416   0.418   0.429   0.439   0.454   0.469   0.474
  0.481   0.495   0.520   0.524   0.529   0.542   0.543   0.550
  0.557   0.558   0.563   0.565   0.568   0.580   0.595   0.597
  0.607   0.618   0.620   0.629   0.641   0.646   0.651   0.656
  0.664   0.667   0.673   0.674   0.678   0.684   0.689   0.699
  0.701   0.704   0.711   0.716   0.718   0.729   0.731   0.733
  0.737   0.753   0.754   0.756   0.761   0.765   0.769   0.778
  0.786   0.788   0.794   0.795   0.801   0.803   0.818   0.819
  0.830   0.840   0.855   0.860   0.870   0.881   0.886   0.916
  0.921   0.934   0.938   0.959   0.967   0.972   0.973   1.024
  1.033   1.042   1.062   1.069   1.088   1.133   1.142   1.166
  1.169   1.196   1.210   1.225   1.235   1.243   1.254   1.255
  1.282   1.292   1.311   1.313   1.315   1.335   1.355   1.367
  1.386   1.403   1.428   1.449   1.452   1.466   1.486   1.489
  1.500   1.516   1.521   1.522   1.524   1.538   1.538   1.544
  1.569   1.573   1.577   1.578   1.587   1.594   1.598   1.601
  1.609   1.612   1.616   1.624   1.644   1.658   1.667   1.668
  1.678   1.681   1.688   1.692   1.700   1.707   1.711   1.725
  1.731   1.736   1.747   1.753   1.764   1.771   1.774   1.775
  1.795   1.817   1.831   1.834   1.837   1.842   1.849   1.856
  1.875   1.877   1.883   1.896   1.900   1.911   1.915   1.921
  1.933   1.948   1.953   1.981   1.989   1.990   1.995   2.010
  2.015   2.018   2.021   2.045   2.065   2.069   2.080   2.112
  2.114   2.133   2.142   2.150   2.153   2.158   2.160   2.178
  2.198   2.202   2.216   2.219   2.242   2.243   2.273   2.290
  2.300   2.309   2.318   2.342   2.364   2.392   2.410   2.426
  2.455   2.468   2.478   2.485   2.485   2.499   2.512   2.521
  2.522   2.526   2.533   2.541   2.546   2.577   2.594   2.610
  2.614   2.616   2.628   2.638   2.642   2.645   2.663   2.671
  2.675   2.696   2.704   2.719   2.721   2.743   2.765   2.781
  2.801   2.807   2.822   2.828   2.833   2.839   2.844   2.849
  2.858   2.886   2.899   2.901   2.924   2.937   2.961   2.972
  2.977   2.978   2.993   3.013   3.019   3.026   3.035   3.061
  3.078   3.089   3.112   3.127   3.138   3.138   3.145   3.159
  3.166   3.182   3.206   3.258   3.276   3.289   3.297   3.323
  3.334   3.337   3.342   3.422   3.481   3.596   3.606   3.632
  3.677   3.694   3.773   3.837   3.843   3.852   3.860   3.952
  3.965   3.989   3.999   4.066   4.098   4.119   4.126   4.135
  4.155   4.170   4.199   4.202   4.206   4.286   4.322   4.423
  4.448   4.449   4.482   5.209   5.246   5.527   5.612   5.642
  5.661  23.810  23.834  23.839  23.878  23.943  23.961  23.974
 23.978  23.989  23.991  24.009  24.053  24.100  24.128  49.992
 50.000
 --------------------------------------------------------------
 
          Ground-State Mulliken Net Atomic Charges

     Atom                 Charge (a.u.)
  ----------------------------------------
      1 C                    -0.350353
      2 C                     0.005673
      3 C                    -0.141816
      4 C                    -0.352131
      5 C                     0.008388
      6 C                    -0.273831
      7 O                    -0.067593
      8 H                     0.177931
      9 H                     0.079086
     10 H                     0.202615
     11 H                     0.010503
     12 H                     0.225436
     13 C                    -0.546945
     14 H                     0.148931
     15 H                     0.148767
     16 H                     0.139250
     17 H                     0.178128
     18 H                     0.077912
     19 H                     0.011259
     20 H                     0.202611
     21 C                    -0.598420
     22 C                    -0.321421
     23 C                     0.266065
     24 C                    -0.601101
     25 C                    -0.317313
     26 C                    -0.029188
     27 O                     0.152948
     28 H                     0.155394
     29 H                     0.147893
     30 H                     0.166655
     31 H                     0.149869
     32 H                     0.228225
     33 C                    -0.444709
     34 H                     0.184809
     35 H                     0.184686
     36 H                     0.171795
     37 H                     0.155874
     38 H                     0.147545
     39 H                     0.149792
     40 H                     0.166781
  ----------------------------------------
  Sum of atomic charges =    -0.000000

 -----------------------------------------------------------------
                    Cartesian Multipole Moments
 -----------------------------------------------------------------
    Charge (ESU x 10^10)
                -0.0000
    Dipole Moment (Debye)
         X      -4.2757      Y      -0.6511      Z       0.0046
       Tot       4.3250
    Quadrupole Moments (Debye-Ang)
        XX    -107.5915     XY      -2.2818     YY     -96.9566
        XZ      -0.0025     YZ       0.0051     ZZ    -101.0455
    Octopole Moments (Debye-Ang^2)
       XXX     -62.5847    XXY      -8.4221    XYY       1.1950
       YYY       9.5444    XXZ       0.0264    XYZ      -0.0080
       YYZ       0.0168    XZZ       4.2759    YZZ       0.8699
       ZZZ       0.0161
    Hexadecapole Moments (Debye-Ang^3)
      XXXX   -3494.3796   XXXY     -38.0282   XXYY    -711.8884
      XYYY      29.1940   YYYY   -1027.5066   XXXZ      -0.0673
      XXYZ       0.0950   XYYZ      -0.0209   YYYZ       0.0003
      XXZZ    -685.9376   XYZZ      -0.2696   YYZZ    -301.6372
      XZZZ      -0.0324   YZZZ      -0.0059   ZZZZ    -748.6807
 -----------------------------------------------------------------
Archival summary:
1\1\vega02.cac.cornell.edu\SP\ProcedureUnspecified\BasisUnspecified\21424\jj585\TueApr1722:59:482018TueApr1722:59:482018\0\\#,ProcedureUnspecified,BasisUnspecified,\\0,1\O\C,1,1.43826\H,2,1.08887,1,109.48\C,1,1.44968,2,97.4122,3,-179.997,0\C,4,1.51109,1,110.608,2,-179.857,0\H,5,1.09267,4,110.654,1,-60.1503,0\H,5,1.09279,4,110.587,1,60.1246,0\H,5,1.0937,4,110.266,1,179.936,0\C,2,1.54392,1,102.541,3,-122.992,0\H,9,1.09151,2,110.565,1,82.9957,0\H,9,1.09233,2,112.496,1,-156.17,0\C,2,1.54421,1,102.539,3,123.004,0\H,12,1.09142,2,110.51,1,-83.1176,0\H,12,1.09208,2,112.447,1,155.951,0\C,4,1.55098,1,101.706,2,-56.0474,0\H,15,1.09182,4,110.029,1,-84.6846,0\H,15,1.09232,4,112.178,1,155.019,0\C,4,1.55126,1,101.645,2,56.1901,0\H,18,1.09222,4,110.045,1,84.5395,0\H,18,1.09225,4,112.196,1,-155.189,0\H,7,1.7332,5,116.616,4,-52.0478,0\C,21,1.09232,7,152.622,5,-109.957,0\H,22,1.09182,21,108.035,7,-74.1184,0\C,22,1.55098,21,112.178,7,47.328,0\O,24,1.44968,22,101.706,21,155.019,0\C,25,1.43826,24,97.4122,22,-56.0474,0\H,26,1.08887,25,109.48,24,-179.997,0\C,24,1.51109,22,116.014,21,-84.9089,0\H,28,1.09267,24,110.654,22,-175.282,0\H,28,1.09279,24,110.587,22,-55.0073,0\H,28,1.0937,24,110.266,22,64.8037,0\C,26,1.54392,25,102.541,24,57.0109,0\H,32,1.09151,26,110.565,25,82.9957,0\H,32,1.09233,26,112.496,25,-156.17,0\C,26,1.54421,25,102.539,24,-56.9923,0\H,35,1.09142,26,110.51,25,-83.1176,0\H,35,1.09208,26,112.447,25,155.951,0\C,24,1.55126,22,108.784,21,48.2696,0\H,38,1.09222,24,110.045,22,-168.669,0\H,38,1.09225,24,112.196,22,-48.3972,0\\\@

 Total job time:  269.14s(wall), 1061.30s(cpu) 
 Tue Apr 17 22:59:48 2018

        *************************************************************
        *                                                           *
        *  Thank you very much for using Q-Chem.  Have a nice day.  *
        *                                                           *
        *************************************************************


0 sent ACK to 0 
now end server 0 ... 
