mFile = /opt/software/qchem/qchem-5.0.1//bin/mpi/machines
Process 0 of 1 is on vega03.cac.cornell.edu - thread support 0
initial socket setup ...start
initial socket setup ...done 
now start server 0 ... 
vega03 10.84.3
Q-Chem Developer Version! Running on 10.84.3.*
                  Welcome to Q-Chem
     A Quantum Leap Into The Future Of Chemistry


 Q-Chem 5.0, Q-Chem, Inc., Pleasanton, CA (2017)

 Yihan Shao,  Zhengting Gan,  E. Epifanovsky,  A. T. B. Gilbert,  M. Wormit,  
 J. Kussmann,  A. W. Lange,  A. Behn,  Jia Deng,  Xintian Feng,  D. Ghosh,  
 M. Goldey,  P. R. Horn,  L. D. Jacobson,  I. Kaliman,  T. Kus,  A. Landau,  
 Jie Liu,  E. I. Proynov,  R. M. Richard,  R. P. Steele,  E. J. Sundstrom,  
 H. L. Woodcock III,  P. M. Zimmerman,  D. Zuev,  B. Albrecht,  E. Alguire,  
 S. A. Baeppler,  Z. Benda,  Y. A. Bernard,  E. J. Berquist,  K. B. Bravaya,  
 D. Casanova,  Chun-Min Chang,  Yunqing Chen,  A. Chien,  K. D. Closser,  
 M. P. Coons,  S. Dasgupta,  M. Diedenhofen,  Hainam Do,  R. G. Edgar,  
 Po-Tung Fang,  S. Fatehi,  Qingguo Feng,  Qinghui Ge,  A. Ghysels,  
 J. Gomes,  J. Gonthier,  A. Gunina,  M. W. D. Hanson-Heine,  
 P. H. P. Harbach,  A. W. Hauser,  J. E. Herr,  E. G. Hohenstein,  
 Z. C. Holden,  Kerwin Hui,  T.-C. Jagau,  Hyunjun Ji,  B. Kaduk,  
 K. Khistyaev,  Jaehoon Kim,  P. Klunzinger,  K. Koh,  D. Kosenkov,  
 T. Kowalczyk,  C. M. Krauter,  A. Kunitsa,  Ka Un Lao,  A. Laurent,  
 K. V. Lawler,  Joonho Lee,  D. Lefrancois,  S. Lehtola,  D. S. Levine,  
 Yi-Pei Li,  You-Sheng Lin,  Fenglai Liu,  E. Livshits,  A. Luenser,  
 P. Manohar,  E. Mansoor,  S. F. Manzer,  Shan-Ping Mao,  Yuezhi Mao,  
 N. Mardirossian,  A. V. Marenich,  L. A. Martinez-Martinez,  S. A. Maurer,  
 N. J. Mayhall,  S. C. McKenzie,  J.-M. Mewes,  A. F. Morrison,  K. Nanda,  
 T. S. Nguyen-Beck,  R. Olivares-Amaya,  J. A. Parkhill,  T. M. Perrine,  
 F. Plasser,  S. Prager,  A. Prociuk,  D. R. Rehn,  F. Rob,  M. Schneider,  
 N. Sergueev,  S. M. Sharada,  S. Sharma,  D. W. Small,  T. Stauch,  
 T. Stein,  Yu-Chuan Su,  A. J. W. Thom,  T. Tsuchimochi,  L. Vogt,  
 O. Vydrov,  M. A. Watson,  J. Wenzel,  M. de Wergifosse,  T. A. Wesolowski,  
 A. White,  J. Witte,  A. Yamada,  Jun Yang,  K. Yao,  S. Yeganeh,  
 S. R. Yost,  Zhi-Qiang You,  A. Zech,  Igor Ying Zhang,  Xing Zhang,  
 Yan Zhao,  Ying Zhu,  B. R. Brooks,  G. K. L. Chan,  C. J. Cramer,  
 M. S. Gordon,  W. J. Hehre,  A. Klamt,  M. W. Schmidt,  C. D. Sherrill,  
 D. G. Truhlar,  A. Aspuru-Guzik,  R. Baer,  A. T. Bell,  N. A. Besley,  
 Jeng-Da Chai,  A. Dreuw,  B. D. Dunietz,  T. R. Furlani,  Chao-Ping Hsu,  
 Yousung Jung,  Jing Kong,  D. S. Lambrecht,  WanZhen Liang,  C. Ochsenfeld,  
 V. A. Rassolov,  L. V. Slipchenko,  J. E. Subotnik,  T. Van Voorhis,  
 J. M. Herbert,  A. I. Krylov,  P. M. W. Gill,  M. Head-Gordon

 Contributors to earlier versions of Q-Chem not listed above: 
 R. D. Adamson,  B. Austin,  J. Baker,  G. J. O. Beran,  K. Brandhorst,  
 S. T. Brown,  E. F. C. Byrd,  A. K. Chakraborty,  C.-L. Cheng,  
 Siu Hung Chien,  D. M. Chipman,  D. L. Crittenden,  H. Dachsel,  
 R. A. DiStasio Jr.,  R. J. Doerksen,  A. D. Dutoi,  L. Fusti-Molnar,  
 W. A. Goddard III,  A. Golubeva-Zadorozhnaya,  S. R. Gwaltney,  G. Hawkins,  
 A. Heyden,  S. Hirata,  G. Kedziora,  F. J. Keil,  C. Kelley,  Jihan Kim,  
 R. A. King,  R. Z. Khaliullin,  P. P. Korambath,  W. Kurlancheek,  
 A. M. Lee,  M. S. Lee,  S. V. Levchenko,  Ching Yeh Lin,  D. Liotard,  
 R. C. Lochan,  I. Lotan,  P. E. Maslen,  N. Nair,  D. P. O'Neill,  
 D. Neuhauser,  E. Neuscamman,  C. M. Oana,  R. Olson,  B. Peters,  
 R. Peverati,  P. A. Pieniazek,  Y. M. Rhee,  J. Ritchie,  M. A. Rohrdanz,  
 E. Rosta,  N. J. Russ,  H. F. Schaefer III,  N. E. Schultz,  N. Shenvi,  
 A. C. Simmonett,  A. Sodt,  D. Stuck,  K. S. Thanthiriwatte,  V. Vanovschi,  
 Tao Wang,  A. Warshel,  C. F. Williams,  Q. Wu,  X. Xu,  W. Zhang

 Please cite Q-Chem as follows:
 Y. Shao et al., Mol. Phys. 113, 184-215 (2015)
 DOI: 10.1080/00268976.2014.952696

 Q-Chem 5.0.1 for Intel X86 EM64T Linux

 Parts of Q-Chem use Armadillo 5.200.1 (Boston Tea Smuggler).
 http://arma.sourceforge.net/

 Q-Chem begins on Tue Apr 17 00:20:54 2018  

Host: vega03.cac.cornell.edu
0

     Scratch files written to /scratch/jj585/vdw/0110_distance_5.600_01.save//
 Parallel job on  1  processors

Checking the input file for inconsistencies... 	...done.

--------------------------------------------------------------
User input:
--------------------------------------------------------------
$molecule
0  1
C        +4.42590000        +3.29148000        +3.52634000
C        +4.82946000        +1.83307000        +3.93910000
C        +5.53328000        +3.64634000        +2.50548000
C        +6.83390000        +3.96360000        +3.26894000
C        +7.24656000        +2.54011000        +3.74339000
C        +6.14743000        +1.65361000        +3.09301000
O        +5.83160000        +2.38323000        +1.89663000
H        +7.57554000        +4.38442000        +2.58844000
H        +6.68556000        +4.67148000        +4.08690000
H        +8.22502000        +2.25654000        +3.35200000
H        +7.27679000        +2.43398000        +4.82967000
C        +5.10348000        +4.63737000        +1.44609000
C        +6.55770000        +0.23393000        +2.77227000
H        +7.46631000        +0.23982000        +2.16673000
H        +6.75310000        -0.32399000        +3.69118000
H        +5.77655000        -0.28236000        +2.21167000
H        +5.92165000        +4.82846000        +0.78353000
H        +4.80239000        +5.55138000        +1.91389000
H        +4.28245000        +4.23313000        +0.89165000
H        +5.02013000        +1.75755000        +4.98926000
H        +4.07796000        +1.09304000        +3.75882000
H        +3.45647000        +3.31471000        +3.07404000
H        +4.35872000        +3.97277000        +4.34867000
@C        +0.22270000        +1.04488000        +0.58595000
@C        +0.62626000        -0.41353000        +0.99871000
@C        +1.33008000        +1.39974000        -0.43491000
@C        +2.63070000        +1.71700000        +0.32855000
@C        +3.04336000        +0.29351000        +0.80300000
@C        +1.94423000        -0.59299000        +0.15262000
@O        +1.62840000        +0.13663000        -1.04376000
@H        +3.37234000        +2.13782000        -0.35195000
@H        +2.48236000        +2.42488000        +1.14651000
@H        +4.02182000        +0.00994000        +0.41161000
@H        +3.07359000        +0.18738000        +1.88928000
@C        +0.90028000        +2.39077000        -1.49430000
@C        +2.35450000        -2.01267000        -0.16812000
@H        +3.26311000        -2.00678000        -0.77366000
@H        +2.54990000        -2.57059000        +0.75079000
@H        +1.57335000        -2.52896000        -0.72872000
@H        +1.71845000        +2.58186000        -2.15686000
@H        +0.59919000        +3.30478000        -1.02650000
@H        +0.07925000        +1.98653000        -2.04874000
@H        +0.81693000        -0.48905000        +2.04887000
@H        -0.12524000        -1.15356000        +0.81843000
@H        -0.74673000        +1.06811000        +0.13365000
@H        +0.15552000        +1.72617000        +1.40828000
$end

$rem
JOBTYPE                   SP
METHOD                    B3LYP
DFT_D                     d3_op
BASIS                     6-311++G(d,p)
SYMMETRY                  False
THRESH                    12
SCF_CONVERGENCE           8
MAX_SUB_FILE_NUM          128
MEM_STATIC                400
MEM_TOTAL                 4000
$end
--------------------------------------------------------------
 Adding empirical dispersion correction 
 ----------------------------------------------------------------
 Doing -D3(op) with
 s6 =   1.00000
 s8 =   0.78311
 a1 =   0.30000
 a2 =   4.25000
 n  =  10.00000
 -D3 energy without 3body term =     -0.0216033054 hartrees
 ----------------------------------------------------------------
             Standard Nuclear Orientation (Angstroms)
    I     Atom           X                Y                Z
 ----------------------------------------------------------------
    1      C       4.4259000000     3.2914800000     3.5263400000
    2      C       4.8294600000     1.8330700000     3.9391000000
    3      C       5.5332800000     3.6463400000     2.5054800000
    4      C       6.8339000000     3.9636000000     3.2689400000
    5      C       7.2465600000     2.5401100000     3.7433900000
    6      C       6.1474300000     1.6536100000     3.0930100000
    7      O       5.8316000000     2.3832300000     1.8966300000
    8      H       7.5755400000     4.3844200000     2.5884400000
    9      H       6.6855600000     4.6714800000     4.0869000000
   10      H       8.2250200000     2.2565400000     3.3520000000
   11      H       7.2767900000     2.4339800000     4.8296700000
   12      C       5.1034800000     4.6373700000     1.4460900000
   13      C       6.5577000000     0.2339300000     2.7722700000
   14      H       7.4663100000     0.2398200000     2.1667300000
   15      H       6.7531000000    -0.3239900000     3.6911800000
   16      H       5.7765500000    -0.2823600000     2.2116700000
   17      H       5.9216500000     4.8284600000     0.7835300000
   18      H       4.8023900000     5.5513800000     1.9138900000
   19      H       4.2824500000     4.2331300000     0.8916500000
   20      H       5.0201300000     1.7575500000     4.9892600000
   21      H       4.0779600000     1.0930400000     3.7588200000
   22      H       3.4564700000     3.3147100000     3.0740400000
   23      H       4.3587200000     3.9727700000     4.3486700000
   24      GH      0.2227000000     1.0448800000     0.5859500000
   25      GH      0.6262600000    -0.4135300000     0.9987100000
   26      GH      1.3300800000     1.3997400000    -0.4349100000
   27      GH      2.6307000000     1.7170000000     0.3285500000
   28      GH      3.0433600000     0.2935100000     0.8030000000
   29      GH      1.9442300000    -0.5929900000     0.1526200000
   30      GH      1.6284000000     0.1366300000    -1.0437600000
   31      GH      3.3723400000     2.1378200000    -0.3519500000
   32      GH      2.4823600000     2.4248800000     1.1465100000
   33      GH      4.0218200000     0.0099400000     0.4116100000
   34      GH      3.0735900000     0.1873800000     1.8892800000
   35      GH      0.9002800000     2.3907700000    -1.4943000000
   36      GH      2.3545000000    -2.0126700000    -0.1681200000
   37      GH      3.2631100000    -2.0067800000    -0.7736600000
   38      GH      2.5499000000    -2.5705900000     0.7507900000
   39      GH      1.5733500000    -2.5289600000    -0.7287200000
   40      GH      1.7184500000     2.5818600000    -2.1568600000
   41      GH      0.5991900000     3.3047800000    -1.0265000000
   42      GH      0.0792500000     1.9865300000    -2.0487400000
   43      GH      0.8169300000    -0.4890500000     2.0488700000
   44      GH     -0.1252400000    -1.1535600000     0.8184300000
   45      GH     -0.7467300000     1.0681100000     0.1336500000
   46      GH      0.1555200000     1.7261700000     1.4082800000
 ----------------------------------------------------------------
 Nuclear Repulsion Energy =   506.2703564319 hartrees
 There are       35 alpha and       35 beta electrons
 Requested basis set is 6-311++G(d,p)
 There are 248 shells and 592 basis functions

 Total QAlloc Memory Limit   4000 MB
 Mega-Array Size       392 MB
 MEM_STATIC part       400 MB
 A cutoff of  1.0D-12 yielded  24566 shell pairs
 There are    137650 function pairs (    145355 Cartesian)
 
 -------------------------------------------------------
 OpenMP Integral Computing Module                       
 Release: version 1.0, May 2013, Q-Chem Inc. Pittsburgh 
 -------------------------------------------------------
 Integral Job Info:
 Integral job number is                      11
 Integral operator is                         1
 short-range coefficients                     0
 long-range coefficients              100000000
 Omega coefficients                           0
 if combine SR and LR in K                    0
 Integral screening is                        0
 Integral computing path is                   2
 max size of driver memory is            800000
 size of driver memory is                593474
 size of scratch memory is              2361544
 max col of scratch BK array               1296
 max len of scratch array in speh3          155
 max len of scratch index in speh4           18
 max int batch size is                      520
 min int batch size is                       52
 fixed nKL is                                52
 max L of basis functions is                  2
 order of int derivative is                   0
 number of shells is                        248
 number of basis is                         610
 number of cartesian basis is               610
 number of contracted shell pairs         24566
 number of primitive shell pairs          50861
 maxK2 (contraction) of shell pair           36
 max number of K2 of shell pair               1
 max number of CS2 of shell pair           4582
 max number of PS2 of shell pair           7638
 mem total for path MDJ                  187722
 -------------------------------------------------------
 Smallest overlap matrix eigenvalue = 4.19E-07
 Linear dependence detected in AO basis
 Number of orthogonalized atomic orbitals = 590
 Maximum deviation from orthogonality = 1.379E-10

 Scale SEOQF with 1.000000e-02/1.000000e-02/1.000000e-01

 Standard Electronic Orientation quadrupole field applied
 Nucleus-field energy     =    -0.0000000565 hartrees
 Guess from superposition of atomic densities
 Warning:  Energy on first SCF cycle will be non-variational

 Q-Chem warning in module /opt/software/qchem/qchem-5.0.1/libgen/Atomic_PolEc.C, line 58:

 No atomic polarizability available.


 Q-Chem warning in module /opt/software/qchem/qchem-5.0.1/libgen/Atomic_PolEc.C, line 73:

 No atomic polarizability available.


 Q-Chem warning in module /opt/software/qchem/qchem-5.0.1/libgen/Atomic_PolEc.C, line 58:

 No atomic polarizability available.


 Q-Chem warning in module /opt/software/qchem/qchem-5.0.1/libgen/Atomic_PolEc.C, line 73:

 No atomic polarizability available.


 Q-Chem warning in module /opt/software/qchem/qchem-5.0.1/libgen/Atomic_PolEc.C, line 58:

 No atomic polarizability available.


 Q-Chem warning in module /opt/software/qchem/qchem-5.0.1/libgen/Atomic_PolEc.C, line 73:

 No atomic polarizability available.


 Q-Chem warning in module /opt/software/qchem/qchem-5.0.1/libgen/Atomic_PolEc.C, line 58:

 No atomic polarizability available.


 Q-Chem warning in module /opt/software/qchem/qchem-5.0.1/libgen/Atomic_PolEc.C, line 73:

 No atomic polarizability available.


 Q-Chem warning in module /opt/software/qchem/qchem-5.0.1/libgen/Atomic_PolEc.C, line 58:

 No atomic polarizability available.


 Q-Chem warning in module /opt/software/qchem/qchem-5.0.1/libgen/Atomic_PolEc.C, line 73:

 No atomic polarizability available.


 Q-Chem warning in module /opt/software/qchem/qchem-5.0.1/libgen/Atomic_PolEc.C, line 58:

 No atomic polarizability available.


 Q-Chem warning in module /opt/software/qchem/qchem-5.0.1/libgen/Atomic_PolEc.C, line 73:

 No atomic polarizability available.


 Q-Chem warning in module /opt/software/qchem/qchem-5.0.1/libgen/Atomic_PolEc.C, line 58:

 No atomic polarizability available.


 Q-Chem warning in module /opt/software/qchem/qchem-5.0.1/libgen/Atomic_PolEc.C, line 73:

 No atomic polarizability available.


 Q-Chem warning in module /opt/software/qchem/qchem-5.0.1/libgen/Atomic_PolEc.C, line 58:

 No atomic polarizability available.


 Q-Chem warning in module /opt/software/qchem/qchem-5.0.1/libgen/Atomic_PolEc.C, line 73:

 No atomic polarizability available.


 Q-Chem warning in module /opt/software/qchem/qchem-5.0.1/libgen/Atomic_PolEc.C, line 58:

 No atomic polarizability available.


 Q-Chem warning in module /opt/software/qchem/qchem-5.0.1/libgen/Atomic_PolEc.C, line 73:

 No atomic polarizability available.


 Q-Chem warning in module /opt/software/qchem/qchem-5.0.1/libgen/Atomic_PolEc.C, line 58:

 No atomic polarizability available.


 Q-Chem warning in module /opt/software/qchem/qchem-5.0.1/libgen/Atomic_PolEc.C, line 73:

 No atomic polarizability available.


 Q-Chem warning in module /opt/software/qchem/qchem-5.0.1/libgen/Atomic_PolEc.C, line 58:

 No atomic polarizability available.


 Q-Chem warning in module /opt/software/qchem/qchem-5.0.1/libgen/Atomic_PolEc.C, line 73:

 No atomic polarizability available.


 Q-Chem warning in module /opt/software/qchem/qchem-5.0.1/libgen/Atomic_PolEc.C, line 58:

 No atomic polarizability available.


 Q-Chem warning in module /opt/software/qchem/qchem-5.0.1/libgen/Atomic_PolEc.C, line 73:

 No atomic polarizability available.


 Q-Chem warning in module /opt/software/qchem/qchem-5.0.1/libgen/Atomic_PolEc.C, line 58:

 No atomic polarizability available.


 Q-Chem warning in module /opt/software/qchem/qchem-5.0.1/libgen/Atomic_PolEc.C, line 73:

 No atomic polarizability available.


 Q-Chem warning in module /opt/software/qchem/qchem-5.0.1/libgen/Atomic_PolEc.C, line 58:

 No atomic polarizability available.


 Q-Chem warning in module /opt/software/qchem/qchem-5.0.1/libgen/Atomic_PolEc.C, line 73:

 No atomic polarizability available.


 Q-Chem warning in module /opt/software/qchem/qchem-5.0.1/libgen/Atomic_PolEc.C, line 58:

 No atomic polarizability available.


 Q-Chem warning in module /opt/software/qchem/qchem-5.0.1/libgen/Atomic_PolEc.C, line 73:

 No atomic polarizability available.


 Q-Chem warning in module /opt/software/qchem/qchem-5.0.1/libgen/Atomic_PolEc.C, line 58:

 No atomic polarizability available.


 Q-Chem warning in module /opt/software/qchem/qchem-5.0.1/libgen/Atomic_PolEc.C, line 73:

 No atomic polarizability available.


 Q-Chem warning in module /opt/software/qchem/qchem-5.0.1/libgen/Atomic_PolEc.C, line 58:

 No atomic polarizability available.


 Q-Chem warning in module /opt/software/qchem/qchem-5.0.1/libgen/Atomic_PolEc.C, line 73:

 No atomic polarizability available.


 Q-Chem warning in module /opt/software/qchem/qchem-5.0.1/libgen/Atomic_PolEc.C, line 58:

 No atomic polarizability available.


 Q-Chem warning in module /opt/software/qchem/qchem-5.0.1/libgen/Atomic_PolEc.C, line 73:

 No atomic polarizability available.


 Q-Chem warning in module /opt/software/qchem/qchem-5.0.1/libgen/Atomic_PolEc.C, line 58:

 No atomic polarizability available.


 Q-Chem warning in module /opt/software/qchem/qchem-5.0.1/libgen/Atomic_PolEc.C, line 73:

 No atomic polarizability available.


 Q-Chem warning in module /opt/software/qchem/qchem-5.0.1/libgen/Atomic_PolEc.C, line 58:

 No atomic polarizability available.


 Q-Chem warning in module /opt/software/qchem/qchem-5.0.1/libgen/Atomic_PolEc.C, line 73:

 No atomic polarizability available.


 Q-Chem warning in module /opt/software/qchem/qchem-5.0.1/libgen/Atomic_PolEc.C, line 58:

 No atomic polarizability available.


 Q-Chem warning in module /opt/software/qchem/qchem-5.0.1/libgen/Atomic_PolEc.C, line 73:

 No atomic polarizability available.


 Q-Chem warning in module /opt/software/qchem/qchem-5.0.1/libgen/Atomic_PolEc.C, line 58:

 No atomic polarizability available.


 Q-Chem warning in module /opt/software/qchem/qchem-5.0.1/libgen/Atomic_PolEc.C, line 73:

 No atomic polarizability available.


 Q-Chem warning in module /opt/software/qchem/qchem-5.0.1/libgen/Atomic_PolEc.C, line 58:

 No atomic polarizability available.


 Q-Chem warning in module /opt/software/qchem/qchem-5.0.1/libgen/Atomic_PolEc.C, line 73:

 No atomic polarizability available.

 A restricted hybrid HF-DFT SCF calculation will be
 performed using Pulay DIIS extrapolation
 Exchange:     0.2000 Hartree-Fock + 0.0800 Slater + 0.7200 B88
 Correlation:  0.1900 VWN1RPA + 0.8100 LYP
 Using SG-1 standard quadrature grid
 Dispersion:   Grimme D3
 SCF converges when DIIS error is below 1.0E-08
 using 4 threads for integral computing
 -------------------------------------------------------
 OpenMP Integral computing Module                
 Release: version 1.0, May 2013, Q-Chem Inc. Pittsburgh 
 -------------------------------------------------------
 -------------------------------------------------------
 OpenMP BLAS3 based DFT computing Module                
 Release: version 1.0, May 2013, Q-Chem Inc. Pittsburgh 
 -------------------------------------------------------
 ---------------------------------------
  Cycle       Energy         DIIS Error
 ---------------------------------------
    1    -390.4761306288      1.79E-02
    2    -388.4107154332      2.25E-03
    3    -388.3324013164      2.63E-03
    4    -388.6275921628      4.07E-04
    5    -388.6325560396      1.46E-04
    6    -388.6332036353      3.94E-05
    7    -388.6332482464      1.44E-05
    8    -388.6332559096      1.34E-06
    9    -388.6332559782      5.55E-07
   10    -388.6332559901      1.47E-07
   11    -388.6332559910      1.59E-08
   12    -388.6332559910      6.95E-09 Convergence criterion met
 ---------------------------------------
 SCF time:  CPU 1084.45 s  wall 274.07 s
 SCF   energy in the final basis set = -388.63325599
 Total energy in the final basis set = -388.63325599
 
 --------------------------------------------------------------
 
                    Orbital Energies (a.u.)
 --------------------------------------------------------------
 
 Alpha MOs
 -- Occupied --
-19.115 -10.224 -10.221 -10.166 -10.165 -10.162 -10.161 -10.160
-10.151  -1.049  -0.799  -0.789  -0.749  -0.717  -0.652  -0.616
 -0.562  -0.556  -0.486  -0.474  -0.464  -0.444  -0.420  -0.410
 -0.406  -0.402  -0.384  -0.360  -0.346  -0.343  -0.340  -0.333
 -0.316  -0.299  -0.261
 -- Virtual --
 -0.010   0.001   0.007   0.011   0.023   0.027   0.027   0.032
  0.037   0.040   0.046   0.051   0.054   0.055   0.061   0.061
  0.065   0.073   0.075   0.078   0.080   0.082   0.089   0.092
  0.094   0.100   0.102   0.103   0.107   0.108   0.114   0.115
  0.118   0.120   0.122   0.128   0.130   0.131   0.134   0.136
  0.140   0.147   0.148   0.149   0.151   0.156   0.157   0.161
  0.162   0.164   0.165   0.166   0.169   0.172   0.175   0.177
  0.181   0.183   0.188   0.189   0.189   0.194   0.196   0.199
  0.200   0.201   0.204   0.206   0.211   0.214   0.217   0.218
  0.220   0.223   0.226   0.228   0.234   0.237   0.238   0.240
  0.245   0.249   0.252   0.254   0.257   0.263   0.266   0.268
  0.272   0.276   0.277   0.282   0.288   0.296   0.298   0.299
  0.302   0.307   0.312   0.319   0.322   0.326   0.332   0.336
  0.342   0.352   0.354   0.356   0.361   0.366   0.372   0.373
  0.377   0.379   0.381   0.384   0.389   0.394   0.397   0.405
  0.409   0.416   0.418   0.423   0.433   0.437   0.441   0.447
  0.450   0.461   0.471   0.476   0.477   0.484   0.492   0.500
  0.502   0.503   0.515   0.527   0.532   0.535   0.545   0.551
  0.556   0.559   0.569   0.574   0.575   0.589   0.593   0.601
  0.609   0.612   0.620   0.624   0.631   0.635   0.636   0.640
  0.651   0.657   0.659   0.665   0.670   0.673   0.675   0.680
  0.682   0.693   0.696   0.701   0.707   0.710   0.717   0.719
  0.732   0.737   0.740   0.746   0.749   0.752   0.761   0.769
  0.772   0.778   0.787   0.791   0.795   0.803   0.808   0.811
  0.826   0.831   0.833   0.845   0.850   0.861   0.863   0.881
  0.890   0.901   0.925   0.933   0.943   0.963   0.969   0.986
  1.000   1.017   1.033   1.042   1.054   1.060   1.071   1.077
  1.084   1.096   1.101   1.132   1.143   1.161   1.170   1.178
  1.181   1.194   1.195   1.209   1.235   1.243   1.251   1.261
  1.277   1.288   1.292   1.305   1.312   1.317   1.366   1.371
  1.373   1.435   1.440   1.461   1.467   1.472   1.488   1.493
  1.506   1.522   1.527   1.531   1.536   1.554   1.558   1.563
  1.589   1.592   1.596   1.607   1.612   1.616   1.623   1.634
  1.639   1.647   1.651   1.658   1.669   1.680   1.693   1.704
  1.713   1.718   1.720   1.730   1.732   1.741   1.745   1.755
  1.763   1.770   1.775   1.783   1.789   1.796   1.798   1.806
  1.812   1.820   1.827   1.833   1.841   1.856   1.861   1.865
  1.871   1.881   1.893   1.899   1.906   1.916   1.920   1.926
  1.936   1.942   1.953   1.963   1.970   1.982   1.989   2.000
  2.014   2.021   2.033   2.034   2.039   2.058   2.065   2.069
  2.079   2.095   2.100   2.119   2.122   2.130   2.134   2.143
  2.161   2.182   2.187   2.193   2.217   2.218   2.230   2.252
  2.255   2.266   2.280   2.300   2.313   2.319   2.332   2.343
  2.365   2.372   2.378   2.381   2.386   2.393   2.406   2.414
  2.417   2.431   2.458   2.461   2.471   2.476   2.479   2.490
  2.500   2.512   2.517   2.523   2.530   2.540   2.549   2.557
  2.565   2.568   2.571   2.582   2.592   2.603   2.618   2.625
  2.625   2.643   2.656   2.664   2.669   2.678   2.699   2.704
  2.719   2.727   2.735   2.755   2.776   2.781   2.786   2.788
  2.802   2.816   2.823   2.828   2.832   2.852   2.870   2.885
  2.897   2.898   2.911   2.925   2.933   2.947   2.954   2.974
  2.979   2.984   2.999   3.013   3.027   3.028   3.042   3.061
  3.081   3.085   3.118   3.121   3.127   3.154   3.157   3.162
  3.177   3.245   3.250   3.260   3.262   3.278   3.306   3.319
  3.328   3.336   3.344   3.350   3.355   3.391   3.476   3.494
  3.515   3.534   3.549   3.564   3.577   3.582   3.588   3.616
  3.619   3.623   3.644   3.675   3.693   3.695   3.707   3.741
  3.793   3.806   3.829   3.838   3.880   3.895   3.905   3.911
  3.948   3.955   3.973   3.985   4.030   4.099   4.106   4.116
  4.145   4.187   4.202   4.286   4.294   4.473   4.503   4.584
  4.669   4.689   4.733   4.842   4.849   4.862   4.884   4.909
  4.920   4.931   4.941   5.008   5.025   5.079   5.098   5.171
  5.255   5.393   5.548   5.694   5.769   7.395   7.448   7.501
  7.535   7.591   7.608   7.680   7.713   7.735   7.762   7.797
  7.824   7.838   7.860   7.954   7.998   8.145   8.200   8.333
  8.420   8.464   8.473   8.711   8.813   9.901   9.922   9.977
 10.030  10.047  10.056  10.073  10.141  13.655  13.950  14.116
 18.637  23.772  23.853  23.958  23.977  24.002  24.017  24.026
 24.068  49.993  69.804  69.840  69.955  69.960  69.998  70.043
 70.053  70.103 139.741
 --------------------------------------------------------------
 
          Ground-State Mulliken Net Atomic Charges

     Atom                 Charge (a.u.)
  ----------------------------------------
      1 C                    -0.311014
      2 C                    -0.341441
      3 C                     0.151833
      4 C                    -0.608834
      5 C                    -0.517527
      6 C                     0.146423
      7 O                     0.017290
      8 H                     0.155615
      9 H                     0.138194
     10 H                     0.158478
     11 H                     0.136953
     12 C                    -0.238400
     13 C                    -0.332374
     14 H                     0.155461
     15 H                     0.147606
     16 H                     0.146565
     17 H                     0.150578
     18 H                     0.144585
     19 H                     0.137996
     20 H                     0.160187
     21 H                     0.155821
     22 H                     0.133459
     23 H                     0.175424
     24 GH                   -0.001611
     25 GH                    0.000190
     26 GH                   -0.022466
     27 GH                   -0.014505
     28 GH                   -0.005974
     29 GH                   -0.025108
     30 GH                    0.000491
     31 GH                    0.006474
     32 GH                   -0.008634
     33 GH                    0.008843
     34 GH                   -0.007996
     35 GH                    0.002842
     36 GH                    0.000534
     37 GH                   -0.000626
     38 GH                    0.000763
     39 GH                    0.000113
     40 GH                   -0.000420
     41 GH                    0.000741
     42 GH                    0.000122
     43 GH                    0.001383
     44 GH                    0.000003
     45 GH                   -0.000153
     46 GH                    0.002117
  ----------------------------------------
  Sum of atomic charges =     0.000000

 -----------------------------------------------------------------
                    Cartesian Multipole Moments
 -----------------------------------------------------------------
    Charge (ESU x 10^10)
                 0.0000
    Dipole Moment (Debye)
         X      -0.0331      Y       0.4296      Z       1.5049
       Tot       1.5654
    Quadrupole Moments (Debye-Ang)
        XX     -56.7451     XY       1.8719     YY     -52.8729
        XZ       8.6047     YZ       4.1495     ZZ     -50.2504
    Octopole Moments (Debye-Ang^2)
       XXX    -990.7333    XXY    -145.1389    XYY    -312.5201
       YYY    -437.4626    XXZ    -118.6708    XYZ      21.6415
       YYZ    -150.0969    XZZ    -293.9187    YZZ    -136.4088
       ZZZ    -475.6991
    Hexadecapole Moments (Debye-Ang^3)
      XXXX  -11982.4086   XXXY   -2586.2032   XXYY   -2456.4967
      XYYY   -2508.8185   YYYY   -3138.5267   XXXZ   -2679.1721
      XXYZ    -320.7560   XYYZ    -898.4466   YYYZ   -1205.3369
      XXZZ   -2349.7646   XYZZ    -785.0534   YYZZ   -1026.3891
      XZZZ   -2794.1208   YZZZ   -1218.0795   ZZZZ   -3188.3135
 -----------------------------------------------------------------
Archival summary:
1\1\vega03.cac.cornell.edu\SP\ProcedureUnspecified\BasisUnspecified\1814h23\jj585\TueApr1700:25:302018TueApr1700:25:302018\0\\#,ProcedureUnspecified,BasisUnspecified,\\0,1\O\C,1,1.43358\C,1,1.43646,2,98.0224\C,3,1.51218,1,111.091,2,-178.393,0\H,4,1.09134,3,111.033,1,-57.0184,0\H,4,1.09192,3,109.775,1,62.6469,0\H,4,1.09264,3,110.458,1,-177.522,0\C,2,1.513,1,109.807,3,-177.944,0\H,8,1.07,2,109.471,1,-64.7983,0\H,8,1.07,2,109.471,1,55.2018,0\H,8,1.07,2,109.471,1,175.202,0\C,2,1.54115,1,102.483,3,57.1986,0\H,12,1.09096,2,110.128,1,81.1589,0\H,12,1.09186,2,112.95,1,-157.962,0\C,2,1.54738,1,103.124,3,-55.9256,0\H,15,1.07,2,113.95,1,155.255,0\H,15,1.07,2,111.379,1,-86.5463,0\C,3,1.55466,1,102.371,2,-54.4128,0\H,18,1.09132,3,109.614,1,-87.4148,0\H,18,1.09187,3,112.355,1,152.676,0\C,15,1.5685,2,101.696,1,32.1918,0\H,21,1.07,15,111.7,2,120.458,0\H,21,1.07,15,114.71,2,-121.541,0\Gh,23,2.30741,21,135.536,15,66.0212,0\Gh,24,1.09187,23,141.259,21,-4.79181,0\Gh,25,1.09132,24,107.862,23,66.5603,0\Gh,25,1.55466,24,112.355,23,-172.518,0\Gh,27,1.43646,25,102.371,24,152.676,0\Gh,28,1.43358,27,98.0224,25,-54.4128,0\Gh,27,1.51218,25,115.611,24,-86.4144,0\Gh,30,1.09134,27,111.033,25,-173.092,0\Gh,30,1.09192,27,109.775,25,-53.4265,0\Gh,30,1.09264,27,110.458,25,66.4047,0\Gh,29,1.513,28,109.807,27,-177.944,0\Gh,34,1.07,29,109.471,28,-64.7983,0\Gh,34,1.07,29,109.471,28,55.2018,0\Gh,34,1.07,29,109.471,28,175.202,0\Gh,29,1.54115,28,102.483,27,57.1986,0\Gh,38,1.09096,29,110.128,28,81.1589,0\Gh,38,1.09186,29,112.95,28,-157.962,0\Gh,29,1.54738,28,103.124,27,-55.9256,0\Gh,41,1.07,29,113.95,28,155.255,0\Gh,41,1.07,29,111.379,28,-86.5463,0\Gh,41,1.5685,29,101.696,28,32.1918,0\Gh,44,1.07,41,111.7,29,120.458,0\Gh,44,1.07,41,114.71,29,-121.541,0\\\@

 Total job time:  275.35s(wall), 1087.48s(cpu) 
 Tue Apr 17 00:25:30 2018

        *************************************************************
        *                                                           *
        *  Thank you very much for using Q-Chem.  Have a nice day.  *
        *                                                           *
        *************************************************************


0 sent ACK to 0 
now end server 0 ... 
