mFile = /opt/software/qchem/qchem-5.0.1//bin/mpi/machines
Process 0 of 1 is on vega01.cac.cornell.edu - thread support 0
initial socket setup ...start
initial socket setup ...done 
now start server 0 ... 
localhost 127.0.0
Q-Chem Developer Version! Running on 127.0.0.*
                  Welcome to Q-Chem
     A Quantum Leap Into The Future Of Chemistry


 Q-Chem 5.0, Q-Chem, Inc., Pleasanton, CA (2017)

 Yihan Shao,  Zhengting Gan,  E. Epifanovsky,  A. T. B. Gilbert,  M. Wormit,  
 J. Kussmann,  A. W. Lange,  A. Behn,  Jia Deng,  Xintian Feng,  D. Ghosh,  
 M. Goldey,  P. R. Horn,  L. D. Jacobson,  I. Kaliman,  T. Kus,  A. Landau,  
 Jie Liu,  E. I. Proynov,  R. M. Richard,  R. P. Steele,  E. J. Sundstrom,  
 H. L. Woodcock III,  P. M. Zimmerman,  D. Zuev,  B. Albrecht,  E. Alguire,  
 S. A. Baeppler,  Z. Benda,  Y. A. Bernard,  E. J. Berquist,  K. B. Bravaya,  
 D. Casanova,  Chun-Min Chang,  Yunqing Chen,  A. Chien,  K. D. Closser,  
 M. P. Coons,  S. Dasgupta,  M. Diedenhofen,  Hainam Do,  R. G. Edgar,  
 Po-Tung Fang,  S. Fatehi,  Qingguo Feng,  Qinghui Ge,  A. Ghysels,  
 J. Gomes,  J. Gonthier,  A. Gunina,  M. W. D. Hanson-Heine,  
 P. H. P. Harbach,  A. W. Hauser,  J. E. Herr,  E. G. Hohenstein,  
 Z. C. Holden,  Kerwin Hui,  T.-C. Jagau,  Hyunjun Ji,  B. Kaduk,  
 K. Khistyaev,  Jaehoon Kim,  P. Klunzinger,  K. Koh,  D. Kosenkov,  
 T. Kowalczyk,  C. M. Krauter,  A. Kunitsa,  Ka Un Lao,  A. Laurent,  
 K. V. Lawler,  Joonho Lee,  D. Lefrancois,  S. Lehtola,  D. S. Levine,  
 Yi-Pei Li,  You-Sheng Lin,  Fenglai Liu,  E. Livshits,  A. Luenser,  
 P. Manohar,  E. Mansoor,  S. F. Manzer,  Shan-Ping Mao,  Yuezhi Mao,  
 N. Mardirossian,  A. V. Marenich,  L. A. Martinez-Martinez,  S. A. Maurer,  
 N. J. Mayhall,  S. C. McKenzie,  J.-M. Mewes,  A. F. Morrison,  K. Nanda,  
 T. S. Nguyen-Beck,  R. Olivares-Amaya,  J. A. Parkhill,  T. M. Perrine,  
 F. Plasser,  S. Prager,  A. Prociuk,  D. R. Rehn,  F. Rob,  M. Schneider,  
 N. Sergueev,  S. M. Sharada,  S. Sharma,  D. W. Small,  T. Stauch,  
 T. Stein,  Yu-Chuan Su,  A. J. W. Thom,  T. Tsuchimochi,  L. Vogt,  
 O. Vydrov,  M. A. Watson,  J. Wenzel,  M. de Wergifosse,  T. A. Wesolowski,  
 A. White,  J. Witte,  A. Yamada,  Jun Yang,  K. Yao,  S. Yeganeh,  
 S. R. Yost,  Zhi-Qiang You,  A. Zech,  Igor Ying Zhang,  Xing Zhang,  
 Yan Zhao,  Ying Zhu,  B. R. Brooks,  G. K. L. Chan,  C. J. Cramer,  
 M. S. Gordon,  W. J. Hehre,  A. Klamt,  M. W. Schmidt,  C. D. Sherrill,  
 D. G. Truhlar,  A. Aspuru-Guzik,  R. Baer,  A. T. Bell,  N. A. Besley,  
 Jeng-Da Chai,  A. Dreuw,  B. D. Dunietz,  T. R. Furlani,  Chao-Ping Hsu,  
 Yousung Jung,  Jing Kong,  D. S. Lambrecht,  WanZhen Liang,  C. Ochsenfeld,  
 V. A. Rassolov,  L. V. Slipchenko,  J. E. Subotnik,  T. Van Voorhis,  
 J. M. Herbert,  A. I. Krylov,  P. M. W. Gill,  M. Head-Gordon

 Contributors to earlier versions of Q-Chem not listed above: 
 R. D. Adamson,  B. Austin,  J. Baker,  G. J. O. Beran,  K. Brandhorst,  
 S. T. Brown,  E. F. C. Byrd,  A. K. Chakraborty,  C.-L. Cheng,  
 Siu Hung Chien,  D. M. Chipman,  D. L. Crittenden,  H. Dachsel,  
 R. A. DiStasio Jr.,  R. J. Doerksen,  A. D. Dutoi,  L. Fusti-Molnar,  
 W. A. Goddard III,  A. Golubeva-Zadorozhnaya,  S. R. Gwaltney,  G. Hawkins,  
 A. Heyden,  S. Hirata,  G. Kedziora,  F. J. Keil,  C. Kelley,  Jihan Kim,  
 R. A. King,  R. Z. Khaliullin,  P. P. Korambath,  W. Kurlancheek,  
 A. M. Lee,  M. S. Lee,  S. V. Levchenko,  Ching Yeh Lin,  D. Liotard,  
 R. C. Lochan,  I. Lotan,  P. E. Maslen,  N. Nair,  D. P. O'Neill,  
 D. Neuhauser,  E. Neuscamman,  C. M. Oana,  R. Olson,  B. Peters,  
 R. Peverati,  P. A. Pieniazek,  Y. M. Rhee,  J. Ritchie,  M. A. Rohrdanz,  
 E. Rosta,  N. J. Russ,  H. F. Schaefer III,  N. E. Schultz,  N. Shenvi,  
 A. C. Simmonett,  A. Sodt,  D. Stuck,  K. S. Thanthiriwatte,  V. Vanovschi,  
 Tao Wang,  A. Warshel,  C. F. Williams,  Q. Wu,  X. Xu,  W. Zhang

 Please cite Q-Chem as follows:
 Y. Shao et al., Mol. Phys. 113, 184-215 (2015)
 DOI: 10.1080/00268976.2014.952696

 Q-Chem 5.0.1 for Intel X86 EM64T Linux

 Parts of Q-Chem use Armadillo 5.200.1 (Boston Tea Smuggler).
 http://arma.sourceforge.net/

 Q-Chem begins on Tue Apr 17 15:47:18 2018  

Host: vega01.cac.cornell.edu
0

     Scratch files written to /scratch/jj585/vdw/01n00_distance_4.300_11.save//
 Parallel job on  1  processors

Checking the input file for inconsistencies... 	...done.

--------------------------------------------------------------
User input:
--------------------------------------------------------------
$molecule
0  1
--
0  1
C        -0.54444000        -0.68370000        -0.06689000
C        -0.55709000        +0.71878000        +0.05493000
C        -1.74320000        -1.41616000        -0.12552000
C        -2.93952000        -0.70056000        -0.05285000
C        -2.95313000        +0.68255000        +0.06934000
C        -1.77161000        +1.42404000        +0.12810000
H        -3.90354000        +1.20325000        +0.11710000
H        -3.87892000        -1.24211000        -0.08988000
C        -1.83960000        +2.92746000        +0.24839000
H        -1.24214000        +3.42352000        -0.52065000
H        -1.45503000        +3.26427000        +1.21284000
H        -2.87211000        +3.26623000        +0.14638000
H        -1.73878000        -2.44393000        -0.21875000
H        +0.35825000        -1.18166000        -0.11386000
H        +0.33551000        +1.23549000        +0.09097000
--
0  1
C        -0.51485000        -1.05862000        +4.21663000
C        -0.52750000        +0.34386000        +4.33845000
C        -1.71361000        -1.79108000        +4.15800000
C        -2.90993000        -1.07548000        +4.23067000
C        -2.92354000        +0.30763000        +4.35286000
C        -1.74202000        +1.04912000        +4.41162000
H        -3.87395000        +0.82833000        +4.40062000
H        -3.84933000        -1.61703000        +4.19364000
C        -1.81001000        +2.55254000        +4.53191000
H        -1.21255000        +3.04860000        +3.76287000
H        -1.42544000        +2.88935000        +5.49636000
H        -2.84252000        +2.89131000        +4.42990000
H        -1.70919000        -2.81885000        +4.06477000
H        +0.38784000        -1.55658000        +4.16966000
H        +0.36510000        +0.86057000        +4.37449000
$end

$rem
JOBTYPE                   SP
METHOD                    B3LYP
DFT_D                     d3_op
BASIS                     6-311++G(d,p)
SYMMETRY                  False
THRESH                    12
SCF_CONVERGENCE           8
MAX_SUB_FILE_NUM          128
MEM_STATIC                400
MEM_TOTAL                 4000
$end
--------------------------------------------------------------
 Adding empirical dispersion correction 
 ----------------------------------------------------------------
 Doing -D3(op) with
 s6 =   1.00000
 s8 =   0.78311
 a1 =   0.30000
 a2 =   4.25000
 n  =  10.00000
 -D3 energy without 3body term =     -0.0277491483 hartrees
 ----------------------------------------------------------------
             Standard Nuclear Orientation (Angstroms)
    I     Atom           X                Y                Z
 ----------------------------------------------------------------
    1      C       2.1453606410    -1.2324382344     1.1901859506
    2      C       2.1487933704     0.1750891110     1.2185632961
    3      C       2.1470307427    -1.9319864799    -0.0294820899
    4      C       2.1466377568    -1.1782230470    -1.2043805384
    5      C       2.1479867070     0.2100804412    -1.1775383083
    6      C       2.1471105201     0.9191326024     0.0251644534
    7      H       2.1533572910     0.7604213271    -2.1123028464
    8      H       2.1419506749    -1.6933306804    -2.1592429058
    9      C       2.1614278579     2.4286311602     0.0012241420
   10      H       2.9673223971     2.8366133814     0.6164809954
   11      H       1.2280710820     2.8386595587     0.3913788611
   12      H       2.3003729081     2.7868940508    -1.0203384001
   13      H       2.1484908002    -2.9636665192    -0.0551083825
   14      H       2.1415586942    -1.7586790956     2.0779222176
   15      H       2.1525857521     0.6667407972     2.1259149937
   16      C      -2.1546311660    -1.2250528800     1.1899009119
   17      C      -2.1511984366     0.1824744653     1.2182782575
   18      C      -2.1529610643    -1.9246011255    -0.0297671286
   19      C      -2.1533540501    -1.1708376927    -1.2046655770
   20      C      -2.1520051000     0.2174657955    -1.1778233469
   21      C      -2.1528812869     0.9265179568     0.0248794148
   22      H      -2.1466345160     0.7678066815    -2.1125878851
   23      H      -2.1580411321    -1.6859453260    -2.1595279444
   24      C      -2.1385639491     2.4360165145     0.0009391033
   25      H      -1.3326694099     2.8439987358     0.6161959567
   26      H      -3.0719207250     2.8460449130     0.3910938224
   27      H      -1.9996188989     2.7942794052    -1.0206234387
   28      H      -2.1515010068    -2.9562811649    -0.0553934211
   29      H      -2.1584331128    -1.7512937413     2.0776371789
   30      H      -2.1474060549     0.6741261515     2.1256299550
 ----------------------------------------------------------------
 Molecular Point Group                 C1    NOp =  1
 Largest Abelian Subgroup              C1    NOp =  1
 Nuclear Repulsion Energy =   806.0539336526 hartrees
 There are       50 alpha and       50 beta electrons
 Requested basis set is 6-311++G(d,p)
 There are 164 shells and 420 basis functions

 Total QAlloc Memory Limit   4000 MB
 Mega-Array Size       392 MB
 MEM_STATIC part       400 MB
 A cutoff of  1.0D-12 yielded  11211 shell pairs
 There are     74467 function pairs (     79212 Cartesian)
 
 -------------------------------------------------------
 OpenMP Integral Computing Module                       
 Release: version 1.0, May 2013, Q-Chem Inc. Pittsburgh 
 -------------------------------------------------------
 Integral Job Info:
 Integral job number is                      11
 Integral operator is                         1
 short-range coefficients                     0
 long-range coefficients              100000000
 Omega coefficients                           0
 if combine SR and LR in K                    0
 Integral screening is                        0
 Integral computing path is                   2
 max size of driver memory is            800000
 size of driver memory is                593474
 size of scratch memory is              2361544
 max col of scratch BK array               1296
 max len of scratch array in speh3          155
 max len of scratch index in speh4           18
 max int batch size is                      520
 min int batch size is                       52
 fixed nKL is                                52
 max L of basis functions is                  2
 order of int derivative is                   0
 number of shells is                        164
 number of basis is                         434
 number of cartesian basis is               434
 number of contracted shell pairs         11211
 number of primitive shell pairs          24558
 maxK2 (contraction) of shell pair           36
 max number of K2 of shell pair               1
 max number of CS2 of shell pair           2102
 max number of PS2 of shell pair           3438
 mem total for path MDJ                  127704
 -------------------------------------------------------
 Smallest overlap matrix eigenvalue = 2.85E-07
 Linear dependence detected in AO basis
 Number of orthogonalized atomic orbitals = 418
 Maximum deviation from orthogonality = 9.305E-11

 Scale SEOQF with 1.000000e-01/1.000000e-01/1.000000e-01

 Standard Electronic Orientation quadrupole field applied
 Nucleus-field energy     =     0.0000000222 hartrees
 Guess from superposition of atomic densities
 Warning:  Energy on first SCF cycle will be non-variational
 A restricted hybrid HF-DFT SCF calculation will be
 performed using Pulay DIIS extrapolation
 Exchange:     0.2000 Hartree-Fock + 0.0800 Slater + 0.7200 B88
 Correlation:  0.1900 VWN1RPA + 0.8100 LYP
 Using SG-1 standard quadrature grid
 Dispersion:   Grimme D3
 SCF converges when DIIS error is below 1.0E-08
 using 4 threads for integral computing
 -------------------------------------------------------
 OpenMP Integral computing Module                
 Release: version 1.0, May 2013, Q-Chem Inc. Pittsburgh 
 -------------------------------------------------------
 -------------------------------------------------------
 OpenMP BLAS3 based DFT computing Module                
 Release: version 1.0, May 2013, Q-Chem Inc. Pittsburgh 
 -------------------------------------------------------
 ---------------------------------------
  Cycle       Energy         DIIS Error
 ---------------------------------------
    1    -546.3074776524      3.10E-02
    2    -542.9921942403      3.49E-03
    3    -542.9338894545      3.86E-03
    4    -543.2875394591      3.19E-04
    5    -543.2891217730      1.57E-04
    6    -543.2895356609      6.89E-05
    7    -543.2896303778      2.73E-05
    8    -543.2896485769      2.38E-06
    9    -543.2896486812      1.29E-06
   10    -543.2896487152      4.35E-07
   11    -543.2896487195      1.26E-07
   12    -543.2896487199      3.52E-08
   13    -543.2896487199      5.78E-09 Convergence criterion met
 ---------------------------------------
 SCF time:  CPU 387.77 s  wall 97.17 s
 SCF   energy in the final basis set = -543.28964872
 Total energy in the final basis set = -543.28964872
 
 --------------------------------------------------------------
 
                    Orbital Energies (a.u.)
 --------------------------------------------------------------
 
 Alpha MOs
 -- Occupied --
-10.181 -10.181 -10.169 -10.169 -10.168 -10.168 -10.168 -10.168
-10.167 -10.166 -10.165 -10.165 -10.165 -10.165  -0.854  -0.853
 -0.773  -0.772  -0.743  -0.743  -0.689  -0.688  -0.607  -0.607
 -0.587  -0.586  -0.518  -0.517  -0.462  -0.461  -0.459  -0.458
 -0.427  -0.419  -0.419  -0.417  -0.415  -0.414  -0.388  -0.387
 -0.358  -0.349  -0.347  -0.346  -0.339  -0.338  -0.254  -0.247
 -0.245  -0.239
 -- Virtual --
 -0.020  -0.015  -0.010  -0.007  -0.003   0.000   0.005   0.010
  0.021   0.022   0.025   0.026   0.041   0.044   0.048   0.050
  0.058   0.064   0.066   0.071   0.076   0.080   0.088   0.095
  0.097   0.104   0.108   0.109   0.112   0.116   0.118   0.120
  0.122   0.124   0.125   0.130   0.132   0.134   0.135   0.138
  0.139   0.141   0.145   0.149   0.156   0.160   0.161   0.167
  0.170   0.171   0.175   0.175   0.179   0.181   0.183   0.184
  0.185   0.194   0.197   0.200   0.203   0.214   0.215   0.220
  0.225   0.239   0.242   0.245   0.252   0.254   0.262   0.265
  0.266   0.268   0.274   0.279   0.282   0.287   0.290   0.293
  0.295   0.302   0.304   0.305   0.313   0.315   0.319   0.321
  0.330   0.343   0.351   0.355   0.361   0.366   0.368   0.370
  0.376   0.377   0.381   0.384   0.396   0.399   0.471   0.479
  0.494   0.511   0.525   0.531   0.535   0.543   0.548   0.555
  0.557   0.565   0.568   0.569   0.584   0.591   0.599   0.604
  0.622   0.633   0.634   0.635   0.636   0.640   0.645   0.646
  0.652   0.658   0.664   0.667   0.672   0.683   0.685   0.695
  0.713   0.718   0.725   0.727   0.735   0.736   0.744   0.749
  0.750   0.769   0.782   0.787   0.796   0.800   0.811   0.820
  0.835   0.854   0.855   0.864   0.877   0.882   0.890   0.897
  0.906   0.909   0.921   0.923   0.929   0.934   0.948   0.959
  0.965   0.975   0.980   0.993   1.004   1.018   1.021   1.022
  1.033   1.042   1.075   1.078   1.088   1.094   1.114   1.128
  1.141   1.146   1.149   1.158   1.285   1.350   1.360   1.365
  1.396   1.407   1.419   1.452   1.464   1.478   1.486   1.493
  1.536   1.539   1.543   1.544   1.549   1.553   1.560   1.565
  1.577   1.586   1.612   1.618   1.624   1.628   1.632   1.636
  1.649   1.659   1.673   1.679   1.685   1.694   1.719   1.734
  1.757   1.765   1.782   1.789   1.802   1.820   1.821   1.837
  1.852   1.857   1.860   1.881   1.894   1.913   1.918   1.929
  1.935   1.941   1.947   1.952   1.954   1.958   1.980   1.985
  2.021   2.032   2.038   2.045   2.052   2.056   2.105   2.107
  2.114   2.133   2.192   2.217   2.243   2.245   2.255   2.260
  2.327   2.328   2.403   2.407   2.413   2.431   2.442   2.467
  2.472   2.494   2.501   2.503   2.516   2.549   2.556   2.560
  2.572   2.578   2.612   2.617   2.634   2.663   2.673   2.684
  2.686   2.700   2.702   2.705   2.721   2.739   2.748   2.756
  2.758   2.764   2.767   2.776   2.779   2.790   2.808   2.827
  2.844   2.852   2.874   2.881   2.900   2.914   2.915   2.936
  2.937   2.955   2.960   2.970   2.999   3.009   3.011   3.030
  3.082   3.128   3.154   3.170   3.214   3.243   3.339   3.383
  3.394   3.423   3.503   3.546   3.556   3.565   3.658   3.659
  3.721   3.735   3.790   3.801   3.860   3.871   4.039   4.040
  4.124   4.128   4.190   4.194   4.208   4.211   4.345   4.349
  4.841   4.845  23.662  23.698  23.944  23.947  24.007  24.009
 24.015  24.024  24.099  24.101  24.111  24.115  24.204  24.215
 --------------------------------------------------------------
 
          Ground-State Mulliken Net Atomic Charges

     Atom                 Charge (a.u.)
  ----------------------------------------
      1 C                    -0.187780
      2 C                    -0.304153
      3 C                    -0.230215
      4 C                    -0.296895
      5 C                    -0.260311
      6 C                     0.728090
      7 H                     0.153185
      8 H                     0.163225
      9 C                    -0.683233
     10 H                     0.147577
     11 H                     0.157057
     12 H                     0.142006
     13 H                     0.145994
     14 H                     0.157406
     15 H                     0.164629
     16 C                    -0.249154
     17 C                    -0.169883
     18 C                    -0.271057
     19 C                    -0.249328
     20 C                    -0.266558
     21 C                     0.647698
     22 H                     0.150720
     23 H                     0.170648
     24 C                    -0.666471
     25 H                     0.139255
     26 H                     0.157236
     27 H                     0.137614
     28 H                     0.143197
     29 H                     0.159558
     30 H                     0.169942
  ----------------------------------------
  Sum of atomic charges =     0.000000

 -----------------------------------------------------------------
                    Cartesian Multipole Moments
 -----------------------------------------------------------------
    Charge (ESU x 10^10)
                 0.0000
    Dipole Moment (Debye)
         X      -0.0100      Y       0.6027      Z       0.1191
       Tot       0.6144
    Quadrupole Moments (Debye-Ang)
        XX     -94.1282     XY       0.0486     YY     -77.4540
        XZ      -0.0313     YZ       0.0276     ZZ     -78.5721
    Octopole Moments (Debye-Ang^2)
       XXX      -0.4614    XXY      11.6075    XYY      -0.0134
       YYY     -11.3981    XXZ       2.0435    XYZ      -0.0889
       YYZ       0.5389    XZZ       0.3831    YZZ      -1.6574
       ZZZ       0.2128
    Hexadecapole Moments (Debye-Ang^3)
      XXXX   -2718.6400   XXXY      -0.4671   XXYY    -605.6446
      XYYY       0.1500   YYYY   -1248.2997   XXXZ      -0.4330
      XXYZ       3.4789   XYYZ      -0.2305   YYYZ       0.0660
      XXZZ    -503.7111   XYZZ       1.5610   YYZZ    -299.6162
      XZZZ      -0.0655   YZZZ      -3.5300   ZZZZ    -581.2269
 -----------------------------------------------------------------
Archival summary:
1\1\vega01.cac.cornell.edu\SP\ProcedureUnspecified\BasisUnspecified\1416\jj585\TueApr1715:48:562018TueApr1715:48:562018\0\\#,ProcedureUnspecified,BasisUnspecified,\\0,1\C\C,1,1.39616\H,2,1.08475,1,118.991\C,2,1.38856,1,121.629,3,179.783,0\H,4,1.08495,2,119.453,1,179.671,0\C,4,1.3959,2,121.575,1,-0.129654,0\H,6,1.032,4,121.26,2,-179.84,0\C,6,1.40604,4,117.481,2,0.160349,0\H,8,1.032,6,119.504,4,179.742,0\C,1,1.40634,2,117.536,3,-179.6,0\H,10,1.032,1,119.607,2,179.72,0\C,1,1.50976,2,119.611,3,-0.341033,0\H,12,1.09144,1,110.135,2,-7.24194,0\H,12,1.09156,1,111.21,2,113.289,0\H,12,1.09291,1,111.796,2,-127.427,0\H,14,2.5706,12,152.108,1,-41.1239,0\C,16,1.09291,14,133.2,12,-22.1058,0\H,17,1.09144,16,108.09,14,-52.6342,0\H,17,1.09156,16,106.802,14,-169.403,0\C,17,1.50976,16,111.796,14,68.7412,0\C,20,1.39616,17,119.611,16,-127.427,0\H,21,1.08475,20,118.991,17,-0.341033,0\C,21,1.38856,20,121.629,17,179.442,0\H,23,1.08495,21,119.453,20,179.671,0\C,23,1.3959,21,121.575,20,-0.129654,0\H,25,1.032,23,121.26,21,-179.84,0\C,25,1.40604,23,117.481,21,0.160349,0\H,27,1.032,25,119.504,23,179.742,0\C,20,1.40634,17,122.848,16,51.7903,0\H,29,1.032,20,119.607,17,0.487832,0\\\@

 Total job time:  97.78s(wall), 389.73s(cpu) 
 Tue Apr 17 15:48:56 2018

        *************************************************************
        *                                                           *
        *  Thank you very much for using Q-Chem.  Have a nice day.  *
        *                                                           *
        *************************************************************


0 sent ACK to 0 
now end server 0 ... 
