
    -----------------------------------------------------------------------
          Psi4: An Open-Source Ab Initio Electronic Structure Package
                               Psi4 1.1 release

                         Git: Rev {HEAD} add49b9 


    R. M. Parrish, L. A. Burns, D. G. A. Smith, A. C. Simmonett,
    A. E. DePrince III, E. G. Hohenstein, U. Bozkaya, A. Yu. Sokolov,
    R. Di Remigio, R. M. Richard, J. F. Gonthier, A. M. James,
    H. R. McAlexander, A. Kumar, M. Saitow, X. Wang, B. P. Pritchard,
    P. Verma, H. F. Schaefer III, K. Patkowski, R. A. King, E. F. Valeev,
    F. A. Evangelista, J. M. Turney, T. D. Crawford, and C. D. Sherrill,
    J. Chem. Theory Comput. in press (2017).
    (doi: 10.1021/acs.jctc.7b00174)

    -----------------------------------------------------------------------


    Psi4 started on: Tuesday, 12 December 2017 11:07AM

    Process ID:  14589
    PSIDATADIR: /home/junteng/Softwares/psi4conda/share/psi4
    Memory:     500.0 MiB
    Threads:    1
    
  ==> Input File <==

--------------------------------------------------------------------------
memory 750000 mb

molecule mol {
0 1
C         -0.54806        1.73208       -0.00254
O         -0.53292        2.48451        0.93629
O         -1.59855        1.58617       -0.83956
C         -2.81512        2.24508       -0.44389
H         -3.15673        1.84545        0.51218
H         -2.65869        3.32103       -0.35532
H         -3.53370        2.02569       -1.23085
--
0 1
C         -0.86951       -1.16992        0.07900
O         -1.47420       -0.65020        0.98172
O         -1.19978       -2.37483       -0.44211
C         -2.33135       -3.03281        0.15854
H         -2.15968       -3.19300        1.22391
H         -3.23326       -2.43298        0.02661
H         -2.42479       -3.98275       -0.36320
--
0 1
H          1.91813        1.84445        1.05220
H          1.52666       -2.16886        0.59716
C          0.38210       -0.64786       -0.59285
C          0.62086        0.89410       -0.49056
C          1.63195       -1.16486        0.19116
C          2.91070       -0.90932       -0.64081
C          3.11783        0.62005       -0.41128
C          1.86846        0.95865        0.42635
O          1.73123       -0.21306        1.25093
H          0.38621       -0.99976       -1.62349
H          0.85193        1.27682       -1.48872
H          3.74316       -1.49065       -0.24231
H          2.78350       -1.17666       -1.69184
H          4.02267        0.81557        0.16582
H          3.17345        1.19245       -1.33938

symmetry c1
no_reorient
no_com
}

set {
basis jun-cc-pvdz
scf_type df
guess sad
freeze_core true
}

energy('fisapt0')
--------------------------------------------------------------------------

  Memory set to 698.492 GiB by Python driver.

*** tstart() called on ThinkPad-P50
*** at Tue Dec 12 11:07:53 2017

   => Loading Basis Set <=

    Name: JUN-CC-PVDZ
    Role: ORBITAL
    Keyword: BASIS
    atoms 1, 4, 8, 11, 17-22 entry C          line   157 file /home/junteng/Softwares/psi4conda/share/psi4/basis/jun-cc-pvdz.gbs 
    atoms 2-3, 9-10, 23      entry O          line   225 file /home/junteng/Softwares/psi4conda/share/psi4/basis/jun-cc-pvdz.gbs 
    atoms 5-7, 12-16, 24-29  entry H          line    35 file /home/junteng/Softwares/psi4conda/share/psi4/basis/jun-cc-pvdz.gbs 


         ---------------------------------------------------------
                                   SCF
            by Justin Turney, Rob Parrish, and Andy Simmonett
                              RHF Reference
                        1 Threads, 715255 MiB Core
         ---------------------------------------------------------

  ==> Geometry <==

    Molecular point group: c1
    Full point group: C1

    Geometry (in Angstrom), charge = 0, multiplicity = 1:

       Center              X                  Y                   Z               Mass       
    ------------   -----------------  -----------------  -----------------  -----------------
           C         -0.548060000000     1.732080000000    -0.002540000000    12.000000000000
           O         -0.532920000000     2.484510000000     0.936290000000    15.994914619560
           O         -1.598550000000     1.586170000000    -0.839560000000    15.994914619560
           C         -2.815120000000     2.245080000000    -0.443890000000    12.000000000000
           H         -3.156730000000     1.845450000000     0.512180000000     1.007825032070
           H         -2.658690000000     3.321030000000    -0.355320000000     1.007825032070
           H         -3.533700000000     2.025690000000    -1.230850000000     1.007825032070
           C         -0.869510000000    -1.169920000000     0.079000000000    12.000000000000
           O         -1.474200000000    -0.650200000000     0.981720000000    15.994914619560
           O         -1.199780000000    -2.374830000000    -0.442110000000    15.994914619560
           C         -2.331350000000    -3.032810000000     0.158540000000    12.000000000000
           H         -2.159680000000    -3.193000000000     1.223910000000     1.007825032070
           H         -3.233260000000    -2.432980000000     0.026610000000     1.007825032070
           H         -2.424790000000    -3.982750000000    -0.363200000000     1.007825032070
           H          1.918130000000     1.844450000000     1.052200000000     1.007825032070
           H          1.526660000000    -2.168860000000     0.597160000000     1.007825032070
           C          0.382100000000    -0.647860000000    -0.592850000000    12.000000000000
           C          0.620860000000     0.894100000000    -0.490560000000    12.000000000000
           C          1.631950000000    -1.164860000000     0.191160000000    12.000000000000
           C          2.910700000000    -0.909320000000    -0.640810000000    12.000000000000
           C          3.117830000000     0.620050000000    -0.411280000000    12.000000000000
           C          1.868460000000     0.958650000000     0.426350000000    12.000000000000
           O          1.731230000000    -0.213060000000     1.250930000000    15.994914619560
           H          0.386210000000    -0.999760000000    -1.623490000000     1.007825032070
           H          0.851930000000     1.276820000000    -1.488720000000     1.007825032070
           H          3.743160000000    -1.490650000000    -0.242310000000     1.007825032070
           H          2.783500000000    -1.176660000000    -1.691840000000     1.007825032070
           H          4.022670000000     0.815570000000     0.165820000000     1.007825032070
           H          3.173450000000     1.192450000000    -1.339380000000     1.007825032070

  Running in c1 symmetry.

  Rotational constants: A =      0.02454  B =      0.02026  C =      0.01284 [cm^-1]
  Rotational constants: A =    735.81338  B =    607.47544  C =    384.93738 [MHz]
  Nuclear repulsion = 1110.964683746966330

  Charge       = 0
  Multiplicity = 1
  Electrons    = 114
  Nalpha       = 57
  Nbeta        = 57

  ==> Algorithm <==

  SCF Algorithm Type is DF.
  DIIS enabled.
  MOM disabled.
  Fractional occupation disabled.
  Guess Type is SAD.
  Energy threshold   = 1.00e-08
  Density threshold  = 1.00e-08
  Integral threshold = 0.00e+00

  ==> Primary Basis <==

  Basis Set: JUN-CC-PVDZ
    Blend: JUN-CC-PVDZ
    Number of shells: 162
    Number of basis function: 340
    Number of Cartesian functions: 355
    Spherical Harmonics?: true
    Max angular momentum: 2

   => Loading Basis Set <=

    Name: (JUN-CC-PVDZ AUX)
    Role: JKFIT
    Keyword: DF_BASIS_SCF
    atoms 1, 4, 8, 11, 17-22 entry C          line   145 file /home/junteng/Softwares/psi4conda/share/psi4/basis/jun-cc-pvdz-jkfit.gbs 
    atoms 2-3, 9-10, 23      entry O          line   257 file /home/junteng/Softwares/psi4conda/share/psi4/basis/jun-cc-pvdz-jkfit.gbs 
    atoms 5-7, 12-16, 24-29  entry H          line    69 file /home/junteng/Softwares/psi4conda/share/psi4/basis/jun-cc-pvdz-jkfit.gbs 

  ==> Pre-Iterations <==

   -------------------------------------------------------
    Irrep   Nso     Nmo     Nalpha   Nbeta   Ndocc  Nsocc
   -------------------------------------------------------
     A        340     340       0       0       0       0
   -------------------------------------------------------
    Total     340     340      57      57      57       0
   -------------------------------------------------------

  ==> Integral Setup <==

  ==> DFJK: Density-Fitted J/K Matrices <==

    J tasked:                  Yes
    K tasked:                  Yes
    wK tasked:                  No
    OpenMP threads:              1
    Integrals threads:           1
    Memory (MB):            536441
    Algorithm:                Core
    Integral Cache:           NONE
    Schwarz Cutoff:          1E-12
    Fitting Condition:       1E-12

   => Auxiliary Basis Set <=

  Basis Set: (JUN-CC-PVDZ AUX)
    Blend: JUN-CC-PVDZ-JKFIT
    Number of shells: 531
    Number of basis function: 1507
    Number of Cartesian functions: 1715
    Spherical Harmonics?: true
    Max angular momentum: 3

  Minimum eigenvalue in the overlap matrix is 1.3086651307E-05.
  Using Symmetric Orthogonalization.

  SCF Guess: Superposition of Atomic Densities via on-the-fly atomic UHF.

  ==> Iterations <==

                           Total Energy        Delta E     RMS |[F,P]|

   @DF-RHF iter   0:  -767.86366781490392   -7.67864e+02   2.18155e-02 
   @DF-RHF iter   1:  -760.59957898249820    7.26409e+00   3.03799e-03 
   @DF-RHF iter   2:  -760.98972584843602   -3.90147e-01   2.18425e-03 DIIS
   @DF-RHF iter   3:  -761.20627858306602   -2.16553e-01   4.69856e-04 DIIS
   @DF-RHF iter   4:  -761.22641388200384   -2.01353e-02   1.60779e-04 DIIS
   @DF-RHF iter   5:  -761.22899285759502   -2.57898e-03   5.94129e-05 DIIS
   @DF-RHF iter   6:  -761.22945393229520   -4.61075e-04   2.43674e-05 DIIS
   @DF-RHF iter   7:  -761.22954778680639   -9.38545e-05   8.56215e-06 DIIS
   @DF-RHF iter   8:  -761.22956221417746   -1.44274e-05   3.11257e-06 DIIS
   @DF-RHF iter   9:  -761.22956436068466   -2.14651e-06   1.24696e-06 DIIS
   @DF-RHF iter  10:  -761.22956466691267   -3.06228e-07   5.61576e-07 DIIS
   @DF-RHF iter  11:  -761.22956472937256   -6.24599e-08   2.30755e-07 DIIS
   @DF-RHF iter  12:  -761.22956474044952   -1.10770e-08   9.24857e-08 DIIS
   @DF-RHF iter  13:  -761.22956474184662   -1.39710e-09   3.28661e-08 DIIS
   @DF-RHF iter  14:  -761.22956474201760   -1.70985e-10   1.21929e-08 DIIS
   @DF-RHF iter  15:  -761.22956474203340   -1.58025e-11   3.77760e-09 DIIS

  ==> Post-Iterations <==

    Orbital Energies (a.u.)
    -----------------------

    Doubly Occupied:                                                      

       1A    -20.614746     2A    -20.603295     3A    -20.567746  
       4A    -20.558674     5A    -20.549212     6A    -11.393061  
       7A    -11.385935     8A    -11.303158     9A    -11.298698  
      10A    -11.290983    11A    -11.287960    12A    -11.269191  
      13A    -11.264587    14A    -11.244400    15A    -11.241011  
      16A     -1.470090    17A     -1.458638    18A     -1.405219  
      19A     -1.369564    20A     -1.360290    21A     -1.114969  
      22A     -1.052341    23A     -1.039954    24A     -0.983264  
      25A     -0.966436    26A     -0.886494    27A     -0.822644  
      28A     -0.805853    29A     -0.780625    30A     -0.760731  
      31A     -0.737641    32A     -0.708109    33A     -0.687333  
      34A     -0.682329    35A     -0.669215    36A     -0.667517  
      37A     -0.664061    38A     -0.651023    39A     -0.628303  
      40A     -0.588834    41A     -0.579262    42A     -0.569306  
      43A     -0.562091    44A     -0.544030    45A     -0.535576  
      46A     -0.533026    47A     -0.522633    48A     -0.510103  
      49A     -0.508828    50A     -0.502899    51A     -0.480523  
      52A     -0.474437    53A     -0.469058    54A     -0.455809  
      55A     -0.450041    56A     -0.436728    57A     -0.427391  

    Virtual:                                                              

      58A      0.052625    59A      0.055242    60A      0.060328  
      61A      0.067100    62A      0.072591    63A      0.077994  
      64A      0.087948    65A      0.093563    66A      0.098110  
      67A      0.100025    68A      0.110532    69A      0.114208  
      70A      0.121177    71A      0.128298    72A      0.134409  
      73A      0.144863    74A      0.147529    75A      0.151413  
      76A      0.159438    77A      0.162311    78A      0.166441  
      79A      0.172022    80A      0.177633    81A      0.186960  
      82A      0.189779    83A      0.193679    84A      0.202968  
      85A      0.208439    86A      0.209570    87A      0.217535  
      88A      0.222605    89A      0.231299    90A      0.233583  
      91A      0.239686    92A      0.241122    93A      0.247515  
      94A      0.252967    95A      0.261091    96A      0.262421  
      97A      0.271219    98A      0.281650    99A      0.291507  
     100A      0.295639   101A      0.302862   102A      0.311349  
     103A      0.314384   104A      0.320558   105A      0.323512  
     106A      0.337842   107A      0.344078   108A      0.352987  
     109A      0.357089   110A      0.358986   111A      0.362820  
     112A      0.367224   113A      0.374286   114A      0.378251  
     115A      0.385723   116A      0.390485   117A      0.395412  
     118A      0.397014   119A      0.399109   120A      0.404105  
     121A      0.405998   122A      0.422938   123A      0.424169  
     124A      0.428976   125A      0.432079   126A      0.437950  
     127A      0.441170   128A      0.454264   129A      0.460914  
     130A      0.467000   131A      0.479890   132A      0.494940  
     133A      0.500227   134A      0.503667   135A      0.508631  
     136A      0.520300   137A      0.522437   138A      0.533281  
     139A      0.540235   140A      0.547160   141A      0.552310  
     142A      0.556515   143A      0.581033   144A      0.599498  
     145A      0.611646   146A      0.634396   147A      0.639159  
     148A      0.698379   149A      0.724485   150A      0.753989  
     151A      0.772063   152A      0.773531   153A      0.785708  
     154A      0.801275   155A      0.804867   156A      0.826064  
     157A      0.847705   158A      0.862540   159A      0.866479  
     160A      0.886863   161A      0.892519   162A      0.899162  
     163A      0.906943   164A      0.910146   165A      0.918201  
     166A      0.921953   167A      0.926255   168A      0.928364  
     169A      0.934849   170A      0.944980   171A      0.947300  
     172A      0.954479   173A      0.958912   174A      0.967514  
     175A      0.981209   176A      0.984818   177A      0.988345  
     178A      1.002589   179A      1.008969   180A      1.018933  
     181A      1.032634   182A      1.033473   183A      1.045021  
     184A      1.055453   185A      1.072336   186A      1.085962  
     187A      1.093856   188A      1.098579   189A      1.115611  
     190A      1.121921   191A      1.134165   192A      1.169067  
     193A      1.219182   194A      1.233021   195A      1.245626  
     196A      1.252745   197A      1.269751   198A      1.303428  
     199A      1.335885   200A      1.340068   201A      1.357021  
     202A      1.382650   203A      1.420047   204A      1.446252  
     205A      1.454590   206A      1.478822   207A      1.485112  
     208A      1.489257   209A      1.497416   210A      1.518958  
     211A      1.528244   212A      1.536556   213A      1.549414  
     214A      1.567070   215A      1.585521   216A      1.594462  
     217A      1.602650   218A      1.612259   219A      1.633935  
     220A      1.637405   221A      1.651624   222A      1.658979  
     223A      1.663917   224A      1.672859   225A      1.681355  
     226A      1.697739   227A      1.700368   228A      1.719995  
     229A      1.742116   230A      1.748211   231A      1.763494  
     232A      1.781310   233A      1.788062   234A      1.817499  
     235A      1.834639   236A      1.848122   237A      1.854750  
     238A      1.874054   239A      1.893653   240A      1.900174  
     241A      1.911911   242A      1.917633   243A      1.934522  
     244A      1.945093   245A      1.953872   246A      1.975951  
     247A      1.986920   248A      1.987162   249A      2.000577  
     250A      2.011377   251A      2.017945   252A      2.021502  
     253A      2.030979   254A      2.038814   255A      2.053781  
     256A      2.060291   257A      2.069472   258A      2.078142  
     259A      2.083874   260A      2.092064   261A      2.114853  
     262A      2.142331   263A      2.150702   264A      2.161533  
     265A      2.180357   266A      2.183732   267A      2.202235  
     268A      2.209896   269A      2.227249   270A      2.237102  
     271A      2.262735   272A      2.279262   273A      2.287025  
     274A      2.327267   275A      2.332543   276A      2.347613  
     277A      2.374132   278A      2.381808   279A      2.397901  
     280A      2.406215   281A      2.410917   282A      2.415936  
     283A      2.420897   284A      2.424070   285A      2.443238  
     286A      2.460254   287A      2.488347   288A      2.500006  
     289A      2.527960   290A      2.564494   291A      2.584070  
     292A      2.601998   293A      2.624182   294A      2.645820  
     295A      2.694559   296A      2.703034   297A      2.743944  
     298A      2.755471   299A      2.760557   300A      2.786397  
     301A      2.801481   302A      2.805651   303A      2.844414  
     304A      2.852457   305A      2.864842   306A      2.867288  
     307A      2.879925   308A      2.900025   309A      2.921979  
     310A      2.949098   311A      2.988621   312A      3.009672  
     313A      3.023961   314A      3.054678   315A      3.064591  
     316A      3.102633   317A      3.125833   318A      3.190132  
     319A      3.252876   320A      3.265295   321A      3.298389  
     322A      3.307537   323A      3.360899   324A      3.365784  
     325A      3.395207   326A      3.422466   327A      3.440139  
     328A      3.500659   329A      3.569898   330A      3.588306  
     331A      3.642784   332A      3.669733   333A      3.689536  
     334A      3.775537   335A      3.787222   336A      3.794224  
     337A      3.951679   338A      3.958342   339A      4.080721  
     340A      4.098364  

    Final Occupation by Irrep:
              A 
    DOCC [    57 ]

  Energy converged.

  @DF-RHF Final Energy:  -761.22956474203340

   => Energetics <=

    Nuclear Repulsion Energy =           1110.9646837469663296
    One-Electron Energy =               -3249.5967440832796456
    Two-Electron Energy =                1377.4024955942800261
    DFT Exchange-Correlation Energy =       0.0000000000000000
    Empirical Dispersion Energy =           0.0000000000000000
    PCM Polarization Energy =               0.0000000000000000
    EFP Energy =                            0.0000000000000000
    Total Energy =                       -761.2295647420332898



Properties will be evaluated at   0.000000,   0.000000,   0.000000 Bohr

Properties computed using the SCF density matrix

  Nuclear Dipole Moment: (a.u.)
     X:     0.8546      Y:     1.3014      Z:    -0.0385

  Electronic Dipole Moment: (a.u.)
     X:    -0.7675      Y:    -2.1941      Z:    -1.6028

  Dipole Moment: (a.u.)
     X:     0.0872      Y:    -0.8927      Z:    -1.6412     Total:     1.8703

  Dipole Moment: (Debye)
     X:     0.2216      Y:    -2.2690      Z:    -4.1716     Total:     4.7539


*** tstop() called on ThinkPad-P50 at Tue Dec 12 11:09:00 2017
Module time:
	user time   =      66.87 seconds =       1.11 minutes
	system time =       0.51 seconds =       0.01 minutes
	total time  =         67 seconds =       1.12 minutes
Total time:
	user time   =      66.87 seconds =       1.11 minutes
	system time =       0.51 seconds =       0.01 minutes
	total time  =         67 seconds =       1.12 minutes
   => Loading Basis Set <=

    Name: (JUN-CC-PVDZ AUX)
    Role: JKFIT
    Keyword: DF_BASIS_SCF
    atoms 1, 4, 8, 11, 17-22 entry C          line   145 file /home/junteng/Softwares/psi4conda/share/psi4/basis/jun-cc-pvdz-jkfit.gbs 
    atoms 2-3, 9-10, 23      entry O          line   257 file /home/junteng/Softwares/psi4conda/share/psi4/basis/jun-cc-pvdz-jkfit.gbs 
    atoms 5-7, 12-16, 24-29  entry H          line    69 file /home/junteng/Softwares/psi4conda/share/psi4/basis/jun-cc-pvdz-jkfit.gbs 

   => Loading Basis Set <=

    Name: (JUN-CC-PVDZ AUX)
    Role: RIFIT
    Keyword: DF_BASIS_SAPT
    atoms 1, 4, 8, 11, 17-22 entry C          line    99 file /home/junteng/Softwares/psi4conda/share/psi4/basis/jun-cc-pvdz-ri.gbs 
    atoms 2-3, 9-10, 23      entry O          line   187 file /home/junteng/Softwares/psi4conda/share/psi4/basis/jun-cc-pvdz-ri.gbs 
    atoms 5-7, 12-16, 24-29  entry H          line    29 file /home/junteng/Softwares/psi4conda/share/psi4/basis/jun-cc-pvdz-ri.gbs 

   => Loading Basis Set <=

    Name: CC-PVTZ-MINAO
    Role: ORBITAL
    Keyword: BASIS
    atoms 1, 4, 8, 11, 17-22 entry C          line   130 file /home/junteng/Softwares/psi4conda/share/psi4/basis/cc-pvtz-minao.gbs 
    atoms 2-3, 9-10, 23      entry O          line   190 file /home/junteng/Softwares/psi4conda/share/psi4/basis/cc-pvtz-minao.gbs 
    atoms 5-7, 12-16, 24-29  entry H          line    19 file /home/junteng/Softwares/psi4conda/share/psi4/basis/cc-pvtz-minao.gbs 


*** tstart() called on ThinkPad-P50
*** at Tue Dec 12 11:09:01 2017

	 --------------------------------------------
	                    FISAPT0                  
	                  Rob Parrish                
	 --------------------------------------------

    Do F-SAPT =         Yes
    Do Plot   =          No
    Memory    =      78.580 [GD]

  ==> Localization (IBO) <==

  ==> IBO Localizer 2 <==

    MinAO Basis = CC-PVTZ-MINAO
    Use Ghosts  =       FALSE
    Use Stars   =       FALSE
    Condition   =   1.000E-07
    Power       =           4
    Convergence =   1.000E-12
    Maxiter     =        1000

    @IBO Iter:                   Metric       Gradient
    @IBO    1:   1.9699752207063066E+00   2.016891E+00
    @IBO    2:   2.1622545389072068E+00   2.581285E+00
    @IBO    3:   2.2859611466053171E+00   1.526631E+00
    @IBO    4:   2.3048974606777435E+00   1.842555E-01
    @IBO    5:   2.3052129855614241E+00   1.207332E-02
    @IBO    6:   2.3052138887718754E+00   2.155785E-04
    @IBO    7:   2.3052138890404663E+00   3.250036E-06
    @IBO    8:   2.3052138890405520E+00   1.098429E-07
    @IBO    9:   2.3052138890405520E+00   4.040925E-09
    @IBO   10:   2.3052138890405520E+00   1.593446E-10
    @IBO   11:   2.3052138890405520E+00   6.570773E-12
    @IBO   12:   2.3052138890405525E+00   2.810006E-13

    IBO Localizer 2 converged.

  ==> Partitioning <==

   => Atomic Partitioning <= 

    Monomer A:   7 atoms
    Monomer B:   7 atoms
    Monomer C:  15 atoms

   => Link Bond Identification <=

    Link Bond Selection = AUTOMATIC

    Charge Completeness = 0.800

    Total Link Bonds = 2

    --------------------------
    N     Orb Type Aind1 Aind2
    --------------------------
    1      34   BC     8    17
    2      43   AC     1    18
    --------------------------

   => Link Bond Assignment <=

    Link Bond Assignment      = C

   => Partition Summary <=

    Monomer A:  0 charge,  30 protons,  30 electrons,  15 docc
    Monomer B:  0 charge,  30 protons,  30 electrons,  15 docc
    Monomer C:  0 charge,  54 protons,  54 electrons,  27 docc

  ==> Overlap Integrals <==

  ==> Kinetic Integrals <==

  ==> Nuclear Integrals <==

    Nuclear Repulsion Tot:   1.1109646837469661E+03 [Eh]

  ==> Coulomb Integrals <==

  ==> DFJK: Density-Fitted J/K Matrices <==

    J tasked:                  Yes
    K tasked:                  Yes
    wK tasked:                  No
    OpenMP threads:              1
    Integrals threads:           1
    Memory (MB):            643730
    Algorithm:                Core
    Integral Cache:           NONE
    Schwarz Cutoff:          1E-12
    Fitting Condition:       1E-12

   => Auxiliary Basis Set <=

  Basis Set: (JUN-CC-PVDZ AUX)
    Blend: JUN-CC-PVDZ-JKFIT
    Number of shells: 531
    Number of basis function: 1507
    Number of Cartesian functions: 1715
    Spherical Harmonics?: true
    Max angular momentum: 3

  ==> Relaxed SCF Equations <==

  ==> SCF A: <==

    Maxiter =          50
    E Tol   =   1.000E-06
    D Tol   =   1.000E-08

    Max DIIS Vectors = 5

    Iter   N:                        E          dE         |D|
    Iter   1:  -2.2420781916809398E+02  -2.242E+02   7.535E-04 
    Iter   2:  -2.2421801385103223E+02  -1.019E-02   5.268E-05 DIIS
    Iter   3:  -2.2421819964515907E+02  -1.858E-04   2.241E-05 DIIS
    Iter   4:  -2.2421822110893280E+02  -2.146E-05   8.685E-06 DIIS
    Iter   5:  -2.2421822524088529E+02  -4.132E-06   1.460E-06 DIIS
    Iter   6:  -2.2421822544213796E+02  -2.013E-07   5.241E-07 DIIS
    Iter   7:  -2.2421822546685638E+02  -2.472E-08   1.625E-07 DIIS
    Iter   8:  -2.2421822546969818E+02  -2.842E-09   7.466E-08 DIIS
    Iter   9:  -2.2421822547017467E+02  -4.765E-10   2.718E-08 DIIS
    Iter  10:  -2.2421822547026756E+02  -9.288E-11   1.167E-08 DIIS
    Iter  11:  -2.2421822547028015E+02  -1.259E-11   6.287E-09 DIIS

    FISAPTSCF Converged.

    Final SCF Energy:  -2.2421822547028015E+02 [Eh]

   => Occupied Orbital Energies <=

       1  -20.605754     2  -20.553838     3  -11.389185  
       4  -11.294786     5   -1.438422     6   -1.361854  
       7   -0.961331     8   -0.766062     9   -0.672345  
      10   -0.663218    11   -0.621365    12   -0.545126  
      13   -0.536464    14   -0.477680    15   -0.462133  

   => Virtual Orbital Energies <=

      16    0.028911    17    0.056152    18    0.060637  
      19    0.068697    20    0.070841    21    0.077385  
      22    0.078777    23    0.085828    24    0.093688  
      25    0.096676    26    0.106824    27    0.109064  
      28    0.118198    29    0.124907    30    0.133422  
      31    0.135513    32    0.142988    33    0.145721  
      34    0.154591    35    0.156388    36    0.164234  
      37    0.168452    38    0.174346    39    0.177669  
      40    0.187163    41    0.190026    42    0.193656  
      43    0.200249    44    0.206191    45    0.214519  
      46    0.217405    47    0.233787    48    0.240359  
      49    0.242529    50    0.242974    51    0.248774  
      52    0.252572    53    0.262046    54    0.267191  
      55    0.274413    56    0.281382    57    0.283412  
      58    0.289166    59    0.304615    60    0.307147  
      61    0.313862    62    0.317344    63    0.327311  
      64    0.336760    65    0.338410    66    0.341660  
      67    0.344211    68    0.355881    69    0.364133  
      70    0.367168    71    0.373580    72    0.379087  
      73    0.382207    74    0.389539    75    0.396577  
      76    0.400285    77    0.404236    78    0.405969  
      79    0.415369    80    0.423602    81    0.424080  
      82    0.429491    83    0.433385    84    0.441964  
      85    0.459789    86    0.461631    87    0.468684  
      88    0.475767    89    0.485585    90    0.507125  
      91    0.509554    92    0.514183    93    0.521419  
      94    0.529028    95    0.544498    96    0.555487  
      97    0.566007    98    0.567317    99    0.575550  
     100    0.587146   101    0.600783   102    0.608091  
     103    0.625391   104    0.631738   105    0.640399  
     106    0.649420   107    0.693828   108    0.704119  
     109    0.708229   110    0.759563   111    0.775590  
     112    0.788591   113    0.809450   114    0.821618  
     115    0.840629   116    0.853135   117    0.867896  
     118    0.891102   119    0.897589   120    0.904504  
     121    0.914279   122    0.918072   123    0.924224  
     124    0.932049   125    0.939747   126    0.950550  
     127    0.951479   128    0.957862   129    0.962366  
     130    0.979300   131    0.989545   132    0.990986  
     133    1.001392   134    1.007633   135    1.015841  
     136    1.033070   137    1.042496   138    1.052478  
     139    1.057493   140    1.060626   141    1.072460  
     142    1.092886   143    1.104684   144    1.111655  
     145    1.122443   146    1.133033   147    1.148848  
     148    1.153899   149    1.162058   150    1.215332  
     151    1.233660   152    1.249092   153    1.288153  
     154    1.313493   155    1.341564   156    1.353771  
     157    1.365152   158    1.409211   159    1.432743  
     160    1.461821   161    1.483394   162    1.494134  
     163    1.524237   164    1.530730   165    1.535913  
     166    1.552089   167    1.553021   168    1.562845  
     169    1.566626   170    1.585701   171    1.614805  
     172    1.626073   173    1.640430   174    1.643152  
     175    1.667293   176    1.670715   177    1.687956  
     178    1.695094   179    1.696885   180    1.732937  
     181    1.770545   182    1.776744   183    1.791134  
     184    1.794632   185    1.806004   186    1.815489  
     187    1.836823   188    1.846756   189    1.857053  
     190    1.879712   191    1.890199   192    1.911775  
     193    1.925239   194    1.933512   195    1.954111  
     196    1.957269   197    1.974659   198    1.975504  
     199    2.000505   200    2.003653   201    2.022436  
     202    2.026244   203    2.029035   204    2.047375  
     205    2.052472   206    2.068781   207    2.078819  
     208    2.089376   209    2.104884   210    2.118337  
     211    2.127967   212    2.136864   213    2.144207  
     214    2.153703   215    2.169676   216    2.179411  
     217    2.194198   218    2.199577   219    2.215891  
     220    2.227848   221    2.242887   222    2.273816  
     223    2.294558   224    2.299135   225    2.301334  
     226    2.320903   227    2.338132   228    2.352532  
     229    2.364231   230    2.384613   231    2.392904  
     232    2.401872   233    2.406412   234    2.410953  
     235    2.431824   236    2.438610   237    2.453806  
     238    2.483307   239    2.499806   240    2.528291  
     241    2.536645   242    2.553880   243    2.592627  
     244    2.603576   245    2.612566   246    2.633275  
     247    2.640304   248    2.669301   249    2.677337  
     250    2.692100   251    2.723221   252    2.742831  
     253    2.769839   254    2.793873   255    2.797163  
     256    2.811137   257    2.832166   258    2.860226  
     259    2.868332   260    2.874253   261    2.889604  
     262    2.893151   263    2.914021   264    2.930384  
     265    2.960109   266    2.986740   267    3.008571  
     268    3.030899   269    3.049291   270    3.052923  
     271    3.093441   272    3.121806   273    3.224092  
     274    3.264700   275    3.272896   276    3.313905  
     277    3.392289   278    3.411170   279    3.428688  
     280    3.523926   281    3.577136   282    3.605614  
     283    3.615642   284    3.667481   285    3.684369  
     286    3.748182   287    3.794123   288    3.809777  
     289    3.952426   290    3.954391   291    4.084886  
     292    4.169349   293    4.213134   294    4.435211  
     295    4.508526   296    4.540656   297    4.758177  
     298    4.938069   299    5.039457   300    5.062464  
     301    5.206888   302    5.317005   303    5.522105  
     304    5.596188   305    5.677803   306    5.862708  
     307    6.064353   308    6.334270   309    6.709751  
     310   13.360761   311   18.423131   312   33.421369  
     313   33.471265  

  ==> SCF B: <==

    Maxiter =          50
    E Tol   =   1.000E-06
    D Tol   =   1.000E-08

    Max DIIS Vectors = 5

    Iter   N:                        E          dE         |D|
    Iter   1:  -2.2399071895596484E+02  -2.240E+02   9.253E-04 
    Iter   2:  -2.2400500001121193E+02  -1.428E-02   5.162E-05 DIIS
    Iter   3:  -2.2400523605435890E+02  -2.360E-04   1.597E-05 DIIS
    Iter   4:  -2.2400525245389525E+02  -1.640E-05   7.552E-06 DIIS
    Iter   5:  -2.2400525595014614E+02  -3.496E-06   1.674E-06 DIIS
    Iter   6:  -2.2400525618916885E+02  -2.390E-07   6.308E-07 DIIS
    Iter   7:  -2.2400525622486987E+02  -3.570E-08   2.558E-07 DIIS
    Iter   8:  -2.2400525623188256E+02  -7.013E-09   9.086E-08 DIIS
    Iter   9:  -2.2400525623304142E+02  -1.159E-09   4.195E-08 DIIS
    Iter  10:  -2.2400525623331353E+02  -2.721E-10   1.450E-08 DIIS
    Iter  11:  -2.2400525623333934E+02  -2.581E-11   9.344E-09 DIIS

    FISAPTSCF Converged.

    Final SCF Energy:  -2.2400525623333934E+02 [Eh]

   => Occupied Orbital Energies <=

       1  -20.603896     2  -20.542898     3  -11.378227  
       4  -11.291087     5   -1.432677     6   -1.351065  
       7   -0.957541     8   -0.761345     9   -0.663822  
      10   -0.658571    11   -0.617740    12   -0.536371  
      13   -0.532592    14   -0.466568    15   -0.456030  

   => Virtual Orbital Energies <=

      16    0.035805    17    0.057107    18    0.060193  
      19    0.065733    20    0.071251    21    0.077701  
      22    0.085318    23    0.086385    24    0.097224  
      25    0.099954    26    0.104795    27    0.111987  
      28    0.118230    29    0.125776    30    0.128579  
      31    0.137386    32    0.140334    33    0.146552  
      34    0.154144    35    0.161017    36    0.164058  
      37    0.168212    38    0.174553    39    0.183230  
      40    0.184192    41    0.195365    42    0.201229  
      43    0.203527    44    0.210872    45    0.217199  
      46    0.223598    47    0.230232    48    0.236437  
      49    0.239384    50    0.245159    51    0.248098  
      52    0.249656    53    0.260628    54    0.267456  
      55    0.275045    56    0.287090    57    0.291619  
      58    0.298119    59    0.301945    60    0.304469  
      61    0.310585    62    0.318123    63    0.326431  
      64    0.326990    65    0.341274    66    0.344525  
      67    0.350207    68    0.354100    69    0.363518  
      70    0.371455    71    0.375822    72    0.384512  
      73    0.388550    74    0.393956    75    0.399184  
      76    0.401201    77    0.405650    78    0.413537  
      79    0.419008    80    0.421237    81    0.428982  
      82    0.436011    83    0.446148    84    0.448681  
      85    0.450187    86    0.454423    87    0.472288  
      88    0.478337    89    0.484875    90    0.498301  
      91    0.510145    92    0.513800    93    0.534760  
      94    0.542581    95    0.551200    96    0.557405  
      97    0.568118    98    0.570324    99    0.578201  
     100    0.585429   101    0.601899   102    0.615473  
     103    0.623495   104    0.634233   105    0.654866  
     106    0.658505   107    0.687921   108    0.706596  
     109    0.734164   110    0.765263   111    0.779101  
     112    0.786199   113    0.799322   114    0.814149  
     115    0.824145   116    0.853706   117    0.875860  
     118    0.886593   119    0.902109   120    0.914383  
     121    0.923801   122    0.930366   123    0.931920  
     124    0.936380   125    0.938531   126    0.950330  
     127    0.956190   128    0.967394   129    0.978429  
     130    0.984135   131    0.987496   132    0.996511  
     133    1.005443   134    1.016417   135    1.022792  
     136    1.025629   137    1.026656   138    1.039989  
     139    1.045951   140    1.067659   141    1.075312  
     142    1.090784   143    1.107403   144    1.114959  
     145    1.126890   146    1.131124   147    1.143355  
     148    1.146922   149    1.193479   150    1.209151  
     151    1.232354   152    1.256771   153    1.292267  
     154    1.302476   155    1.343864   156    1.362395  
     157    1.390303   158    1.408885   159    1.433358  
     160    1.448120   161    1.476573   162    1.487867  
     163    1.508315   164    1.516601   165    1.533429  
     166    1.560026   167    1.567935   168    1.579014  
     169    1.586230   170    1.603474   171    1.611032  
     172    1.630388   173    1.639992   174    1.651485  
     175    1.666204   176    1.676553   177    1.684355  
     178    1.713631   179    1.734793   180    1.748306  
     181    1.753824   182    1.770362   183    1.786516  
     184    1.811214   185    1.828522   186    1.832119  
     187    1.843623   188    1.848915   189    1.866269  
     190    1.879789   191    1.880814   192    1.912825  
     193    1.920124   194    1.929368   195    1.957756  
     196    1.959577   197    1.981744   198    1.990717  
     199    2.003549   200    2.013593   201    2.022140  
     202    2.037329   203    2.040248   204    2.046239  
     205    2.062619   206    2.068988   207    2.088382  
     208    2.096460   209    2.109808   210    2.110569  
     211    2.121097   212    2.132161   213    2.144575  
     214    2.156996   215    2.165154   216    2.173745  
     217    2.189513   218    2.219999   219    2.230166  
     220    2.237865   221    2.264605   222    2.281626  
     223    2.285651   224    2.289640   225    2.316676  
     226    2.337687   227    2.350566   228    2.357926  
     229    2.365618   230    2.371018   231    2.389200  
     232    2.395615   233    2.418154   234    2.422283  
     235    2.436341   236    2.440852   237    2.466904  
     238    2.472608   239    2.480670   240    2.503234  
     241    2.526471   242    2.564471   243    2.581643  
     244    2.601763   245    2.608735   246    2.627339  
     247    2.652970   248    2.669014   249    2.706706  
     250    2.712387   251    2.721239   252    2.760818  
     253    2.768492   254    2.793842   255    2.800004  
     256    2.808073   257    2.832896   258    2.853493  
     259    2.870830   260    2.876686   261    2.894224  
     262    2.899293   263    2.902444   264    2.931776  
     265    2.961889   266    2.998183   267    3.018047  
     268    3.035151   269    3.056450   270    3.063316  
     271    3.089446   272    3.137054   273    3.226437  
     274    3.264151   275    3.300183   276    3.319021  
     277    3.383342   278    3.413072   279    3.441546  
     280    3.523300   281    3.571133   282    3.592910  
     283    3.631437   284    3.666617   285    3.707026  
     286    3.784997   287    3.789008   288    3.819109  
     289    3.957294   290    3.971647   291    4.092740  
     292    4.141827   293    4.205814   294    4.439435  
     295    4.520581   296    4.556307   297    4.765041  
     298    4.935954   299    5.053567   300    5.072307  
     301    5.205539   302    5.329021   303    5.521447  
     304    5.618544   305    5.725832   306    5.830137  
     307    6.086424   308    6.351181   309    6.709845  
     310   13.387916   311   18.435658   312   33.432216  
     313   33.481572  

  ==> Frozen Core <==


    ------------------
    Range      A     B
    ------------------
    nbf      340   340
    nmo      313   313
    nocc      15    15
    nvir     298   298
    nfocc      4     4
    naocc     11    11
    navir    298   298
    nfvir      0     0
    ------------------

  ==> Unification <==

  ==> dHF <==

    E ABC(HF) =  -7.6122956474203340E+02 [Eh]
    E AC(0)   =  -5.3318572398163701E+02 [Eh]
    E BC(0)   =  -5.3321506212567931E+02 [Eh]
    E A(0)    =  -2.1266885262059276E+02 [Eh]
    E B(0)    =  -2.1266610621241148E+02 [Eh]
    E AC(HF)  =  -5.3317531767945093E+02 [Eh]
    E BC(HF)  =  -5.3320052484830546E+02 [Eh]
    E AB(HF)  =  -4.2530111838700782E+02 [Eh]
    E A(HF)   =  -2.1264954236595770E+02 [Eh]
    E B(HF)   =  -2.1264344394749270E+02 [Eh]
    E C       =  -3.0515440985927893E+02 [Eh]
    E HF      =   1.6811506003989507E-02 [Eh]

  ==> Electrostatics <==

    Elst10,r            =     0.011529094314 [Eh]

  ==> Exchange <==

    Exch10(S^2)         =     0.007684063987 [Eh]
    Exch10              =     0.007709502245 [Eh]

  ==> Induction <==

    Ind20,u (A<-B)      =    -0.001774579587 [Eh]
    Ind20,u (B<-A)      =    -0.002349143994 [Eh]
    Ind20,u             =    -0.004123723581 [Eh]
    Exch-Ind20,u (A<-B) =     0.000764992222 [Eh]
    Exch-Ind20,u (B<-A) =     0.001625459058 [Eh]
    Exch-Ind20,u        =     0.002390451280 [Eh]

  ==> CPHF Iterations <==

    Maxiter     =          50
    Convergence =   1.000E-08

    -----------------------------------------
    Iter   Monomer A    Monomer B    Time [s]
    -----------------------------------------
    1      1.960E-01    2.160E-01          13
    2      7.501E-02    8.397E-02          27
    3      1.969E-02    1.863E-02          45
    4      6.833E-03    7.986E-03          66
    5      1.971E-03    2.795E-03          92
    6      6.326E-04    1.380E-03         120
    7      2.191E-04    4.236E-04         145
    8      6.153E-05    1.579E-04         168
    9      1.432E-05    3.761E-05         188
    10     4.473E-06    1.332E-05         209
    11     1.623E-06    4.336E-06         233
    12     4.203E-07    9.669E-07         258
    13     1.316E-07    1.873E-07         282
    14     3.706E-08    5.094E-08         304
    15     8.419E-09*   1.046E-08         327
    16     8.419E-09*   1.938E-09*        338
    -----------------------------------------

    Ind20,r (A<-B)      =    -0.002010781857 [Eh]
    Ind20,r (B<-A)      =    -0.002896304540 [Eh]
    Ind20,r             =    -0.004907086397 [Eh]
    Exch-Ind20,r (A<-B) =     0.000904295572 [Eh]
    Exch-Ind20,r (B<-A) =     0.002104165409 [Eh]
    Exch-Ind20,r        =     0.003008460981 [Eh]

  ==> F-SAPT Localization (IBO) <==

  Local Orbitals for Monomer A:

  ==> IBO Localizer 2 <==

    MinAO Basis = CC-PVTZ-MINAO
    Use Ghosts  =       FALSE
    Use Stars   =       FALSE
    Condition   =   1.000E-07
    Power       =           4
    Convergence =   1.000E-12
    Maxiter     =        1000

    @IBO Iter:                   Metric       Gradient
    @IBO    1:   1.4786308651834392E+00   1.679031E+00
    @IBO    2:   1.6782380521090245E+00   9.517485E-01
    @IBO    3:   1.7096833446138109E+00   3.199934E-01
    @IBO    4:   1.7110346196284569E+00   4.825335E-03
    @IBO    5:   1.7110355507659896E+00   2.467749E-04
    @IBO    6:   1.7110355515621030E+00   4.714007E-06
    @IBO    7:   1.7110355515625546E+00   1.595059E-07
    @IBO    8:   1.7110355515625550E+00   5.576671E-09
    @IBO    9:   1.7110355515625548E+00   2.143387E-10
    @IBO   10:   1.7110355515625548E+00   8.561925E-12
    @IBO   11:   1.7110355515625548E+00   3.476070E-13

    IBO Localizer 2 converged.

  Local Orbitals for Monomer B:

  ==> IBO Localizer 2 <==

    MinAO Basis = CC-PVTZ-MINAO
    Use Ghosts  =       FALSE
    Use Stars   =       FALSE
    Condition   =   1.000E-07
    Power       =           4
    Convergence =   1.000E-12
    Maxiter     =        1000

    @IBO Iter:                   Metric       Gradient
    @IBO    1:   1.4827700456485364E+00   1.565656E+00
    @IBO    2:   1.6748306116369081E+00   1.092854E+00
    @IBO    3:   1.7094975070520522E+00   3.302619E-01
    @IBO    4:   1.7108235624767396E+00   3.146939E-03
    @IBO    5:   1.7108238760930725E+00   1.088928E-04
    @IBO    6:   1.7108238762599934E+00   1.832713E-06
    @IBO    7:   1.7108238762600578E+00   5.173125E-08
    @IBO    8:   1.7108238762600578E+00   1.161860E-09
    @IBO    9:   1.7108238762600578E+00   2.899829E-11
    @IBO   10:   1.7108238762600578E+00   8.731982E-13

    IBO Localizer 2 converged.

  ==> F-SAPT Electrostatics <==

  ==> DFERI: Density Fitted 3-Index Tensors <==

    Schwarz cutoff =   0.000E+00
    J cutoff       =   1.000E-12
    Mem (GB)       =         628

   => Auxiliary Basis <=

  Basis Set: (JUN-CC-PVDZ AUX)
    Blend: JUN-CC-PVDZ-JKFIT
    Number of shells: 531
    Number of basis function: 1507
    Number of Cartesian functions: 1715
    Spherical Harmonics?: true
    Max angular momentum: 3

    Elst10,r            =     0.011529094051 [Eh]

  ==> F-SAPT Exchange <==

  ==> DFERI: Density Fitted 3-Index Tensors <==

    Schwarz cutoff =   0.000E+00
    J cutoff       =   1.000E-12
    Mem (GB)       =         628

   => Auxiliary Basis <=

  Basis Set: (JUN-CC-PVDZ AUX)
    Blend: JUN-CC-PVDZ-JKFIT
    Number of shells: 531
    Number of basis function: 1507
    Number of Cartesian functions: 1715
    Spherical Harmonics?: true
    Max angular momentum: 3

    Exch10(S^2)         =     0.007684063987 [Eh]

    Scaling F-SAPT Exch10(S^2) by   1.003E+00 to match Exch10

  ==> F-SAPT Induction <==

  ==> DFERI: Density Fitted 3-Index Tensors <==

    Schwarz cutoff =   0.000E+00
    J cutoff       =   1.000E-12
    Mem (GB)       =         628

   => Auxiliary Basis <=

  Basis Set: (JUN-CC-PVDZ AUX)
    Blend: JUN-CC-PVDZ-JKFIT
    Number of shells: 531
    Number of basis function: 1507
    Number of Cartesian functions: 1715
    Spherical Harmonics?: true
    Max angular momentum: 3

    Ind20,u (A<-B)      =    -0.001774579588 [Eh]
    Ind20,u (B<-A)      =    -0.002349143993 [Eh]
    Ind20,u             =    -0.004123723581 [Eh]
    Exch-Ind20,u (A<-B) =     0.000764992223 [Eh]
    Exch-Ind20,u (B<-A) =     0.001625459058 [Eh]
    Exch-Ind20,u        =     0.002390451281 [Eh]

    Scaling for delta HF        =   1.278E+00
    Scaling for response (A<-B) =   1.096E+00
    Scaling for response (B<-A) =   1.095E+00
    Scaling for total (A<-B)    =   1.401E+00
    Scaling for total (B<-A)    =   1.399E+00

  ==> F-SAPT Dispersion <==

  ==> DFERI: Density Fitted 3-Index Tensors <==

    Schwarz cutoff =   0.000E+00
    J cutoff       =   1.000E-12
    Mem (GB)       =         628

   => Auxiliary Basis <=

  Basis Set: (JUN-CC-PVDZ AUX)
    Blend: JUN-CC-PVDZ-RI
    Number of shells: 399
    Number of basis function: 1171
    Number of Cartesian functions: 1350
    Spherical Harmonics?: true
    Max angular momentum: 3

    Disp20              =    -0.004213860958 [Eh]
    Exch-Disp20         =     0.000611174756 [Eh]

  ==> F-SAPT Output <==

    F-SAPT Data Filepath = fsapt/

  ==> Results <==


    SAPT Results  
  --------------------------------------------------------------------------------------------------------
    Electrostatics                 11.52909431 [mEh]       7.23461621 [kcal/mol]      30.26963712 [kJ/mol]
      Elst10,r                     11.52909431 [mEh]       7.23461621 [kcal/mol]      30.26963712 [kJ/mol]

    Exchange                        7.70950224 [mEh]       4.83778590 [kcal/mol]      20.24129814 [kJ/mol]
      Exch10                        7.70950224 [mEh]       4.83778590 [kcal/mol]      20.24129814 [kJ/mol]
      Exch10(S^2)                   7.68406399 [mEh]       4.82182315 [kcal/mol]      20.17451000 [kJ/mol]

    Induction                      -2.42709055 [mEh]      -1.52302238 [kcal/mol]      -6.37232625 [kJ/mol]
      Ind20,r                      -4.90708640 [mEh]      -3.07924333 [kcal/mol]     -12.88355534 [kJ/mol]
      Exch-Ind20,r                  3.00846098 [mEh]       1.88783785 [kcal/mol]       7.89871431 [kJ/mol]
      delta HF,r (2)               -0.52846514 [mEh]      -0.33161689 [kcal/mol]      -1.38748522 [kJ/mol]
      Induction (A<-B)             -1.41446669 [mEh]      -0.88759129 [kcal/mol]      -3.71368230 [kJ/mol]
      Induction (B<-A)             -1.01262386 [mEh]      -0.63543109 [kcal/mol]      -2.65864395 [kJ/mol]

    Dispersion                     -3.60268620 [mEh]      -2.26071982 [kcal/mol]      -9.45885262 [kJ/mol]
      Disp20                       -4.21386096 [mEh]      -2.64423778 [kcal/mol]     -11.06349195 [kJ/mol]
      Exch-Disp20                   0.61117476 [mEh]       0.38351797 [kcal/mol]       1.60463932 [kJ/mol]

  Total HF                         16.81150600 [mEh]      10.54937973 [kcal/mol]      44.13860901 [kJ/mol]
  Total SAPT0                      13.20881980 [mEh]       8.28865991 [kcal/mol]      34.67975639 [kJ/mol]

  --------------------------------------------------------------------------------------------------------
    Han Solo: This is *not* gonna work.
    Luke Skywalker: Why didn't you say so before?
    Han Solo: I *did* say so before.

*** tstop() called on ThinkPad-P50 at Tue Dec 12 11:21:23 2017
Module time:
	user time   =     722.43 seconds =      12.04 minutes
	system time =       9.00 seconds =       0.15 minutes
	total time  =        742 seconds =      12.37 minutes
Total time:
	user time   =     789.88 seconds =      13.16 minutes
	system time =       9.51 seconds =       0.16 minutes
	total time  =        810 seconds =      13.50 minutes

*** Psi4 exiting successfully. Buy a developer a beer!
