
    -----------------------------------------------------------------------
          Psi4: An Open-Source Ab Initio Electronic Structure Package
                               Psi4 1.1 release

                         Git: Rev {HEAD} add49b9 


    R. M. Parrish, L. A. Burns, D. G. A. Smith, A. C. Simmonett,
    A. E. DePrince III, E. G. Hohenstein, U. Bozkaya, A. Yu. Sokolov,
    R. Di Remigio, R. M. Richard, J. F. Gonthier, A. M. James,
    H. R. McAlexander, A. Kumar, M. Saitow, X. Wang, B. P. Pritchard,
    P. Verma, H. F. Schaefer III, K. Patkowski, R. A. King, E. F. Valeev,
    F. A. Evangelista, J. M. Turney, T. D. Crawford, and C. D. Sherrill,
    J. Chem. Theory Comput. in press (2017).
    (doi: 10.1021/acs.jctc.7b00174)

    -----------------------------------------------------------------------


    Psi4 started on: Tuesday, 12 December 2017 11:21AM

    Process ID:  15288
    PSIDATADIR: /home/junteng/Softwares/psi4conda/share/psi4
    Memory:     500.0 MiB
    Threads:    1
    
  ==> Input File <==

--------------------------------------------------------------------------
memory 10000 mb

molecule mol {
0 1
C          0.40086        1.69675        0.23870
O          0.15995        2.87788        0.16169
O          1.59790        1.16806       -0.04662
C          2.60313        2.07863       -0.53208
H          2.23629        2.61141       -1.40940
H          2.87037        2.79588        0.24525
H          3.45527        1.45462       -0.79086
--
0 1
C          0.89125       -1.33345       -0.10267
O          1.16500       -1.56215       -1.25337
O          1.73377       -1.56104        0.92877
C          3.05985       -1.98433        0.57227
H          3.02732       -2.92198        0.01515
H          3.54743       -1.22242       -0.03815
H          3.58796       -2.11568        1.51418
--
0 1
H         -2.14392        1.99274       -0.25312
H         -1.40018       -1.84331       -1.34945
C         -0.45179       -0.85213        0.41528
C         -0.63210        0.68228        0.71724
C         -1.61260       -1.09344       -0.59315
C         -2.92732       -1.24928        0.19379
C         -3.13758        0.21284        0.69250
C         -1.97572        0.94628       -0.01731
O         -1.78644        0.18848       -1.21943
H         -0.62418       -1.40068        1.34327
H         -0.72314        0.85113        1.79343
H         -3.72976       -1.55937       -0.47727
H         -2.85784       -1.97899        1.00317
H         -4.09742        0.61546        0.36678
H         -3.08475        0.30738        1.77924

symmetry c1
no_reorient
no_com
}

set {
basis jun-cc-pvdz
scf_type df
guess sad
freeze_core true
}

energy('fisapt0')
--------------------------------------------------------------------------

  Memory set to   9.313 GiB by Python driver.

*** tstart() called on ThinkPad-P50
*** at Tue Dec 12 11:21:25 2017

   => Loading Basis Set <=

    Name: JUN-CC-PVDZ
    Role: ORBITAL
    Keyword: BASIS
    atoms 1, 4, 8, 11, 17-22 entry C          line   157 file /home/junteng/Softwares/psi4conda/share/psi4/basis/jun-cc-pvdz.gbs 
    atoms 2-3, 9-10, 23      entry O          line   225 file /home/junteng/Softwares/psi4conda/share/psi4/basis/jun-cc-pvdz.gbs 
    atoms 5-7, 12-16, 24-29  entry H          line    35 file /home/junteng/Softwares/psi4conda/share/psi4/basis/jun-cc-pvdz.gbs 


         ---------------------------------------------------------
                                   SCF
            by Justin Turney, Rob Parrish, and Andy Simmonett
                              RHF Reference
                        1 Threads,   9536 MiB Core
         ---------------------------------------------------------

  ==> Geometry <==

    Molecular point group: c1
    Full point group: C1

    Geometry (in Angstrom), charge = 0, multiplicity = 1:

       Center              X                  Y                   Z               Mass       
    ------------   -----------------  -----------------  -----------------  -----------------
           C          0.400860000000     1.696750000000     0.238700000000    12.000000000000
           O          0.159950000000     2.877880000000     0.161690000000    15.994914619560
           O          1.597900000000     1.168060000000    -0.046620000000    15.994914619560
           C          2.603130000000     2.078630000000    -0.532080000000    12.000000000000
           H          2.236290000000     2.611410000000    -1.409400000000     1.007825032070
           H          2.870370000000     2.795880000000     0.245250000000     1.007825032070
           H          3.455270000000     1.454620000000    -0.790860000000     1.007825032070
           C          0.891250000000    -1.333450000000    -0.102670000000    12.000000000000
           O          1.165000000000    -1.562150000000    -1.253370000000    15.994914619560
           O          1.733770000000    -1.561040000000     0.928770000000    15.994914619560
           C          3.059850000000    -1.984330000000     0.572270000000    12.000000000000
           H          3.027320000000    -2.921980000000     0.015150000000     1.007825032070
           H          3.547430000000    -1.222420000000    -0.038150000000     1.007825032070
           H          3.587960000000    -2.115680000000     1.514180000000     1.007825032070
           H         -2.143920000000     1.992740000000    -0.253120000000     1.007825032070
           H         -1.400180000000    -1.843310000000    -1.349450000000     1.007825032070
           C         -0.451790000000    -0.852130000000     0.415280000000    12.000000000000
           C         -0.632100000000     0.682280000000     0.717240000000    12.000000000000
           C         -1.612600000000    -1.093440000000    -0.593150000000    12.000000000000
           C         -2.927320000000    -1.249280000000     0.193790000000    12.000000000000
           C         -3.137580000000     0.212840000000     0.692500000000    12.000000000000
           C         -1.975720000000     0.946280000000    -0.017310000000    12.000000000000
           O         -1.786440000000     0.188480000000    -1.219430000000    15.994914619560
           H         -0.624180000000    -1.400680000000     1.343270000000     1.007825032070
           H         -0.723140000000     0.851130000000     1.793430000000     1.007825032070
           H         -3.729760000000    -1.559370000000    -0.477270000000     1.007825032070
           H         -2.857840000000    -1.978990000000     1.003170000000     1.007825032070
           H         -4.097420000000     0.615460000000     0.366780000000     1.007825032070
           H         -3.084750000000     0.307380000000     1.779240000000     1.007825032070

  Running in c1 symmetry.

  Rotational constants: A =      0.02807  B =      0.01879  C =      0.01312 [cm^-1]
  Rotational constants: A =    841.37211  B =    563.25760  C =    393.21997 [MHz]
  Nuclear repulsion = 1114.099366588994144

  Charge       = 0
  Multiplicity = 1
  Electrons    = 114
  Nalpha       = 57
  Nbeta        = 57

  ==> Algorithm <==

  SCF Algorithm Type is DF.
  DIIS enabled.
  MOM disabled.
  Fractional occupation disabled.
  Guess Type is SAD.
  Energy threshold   = 1.00e-08
  Density threshold  = 1.00e-08
  Integral threshold = 0.00e+00

  ==> Primary Basis <==

  Basis Set: JUN-CC-PVDZ
    Blend: JUN-CC-PVDZ
    Number of shells: 162
    Number of basis function: 340
    Number of Cartesian functions: 355
    Spherical Harmonics?: true
    Max angular momentum: 2

   => Loading Basis Set <=

    Name: (JUN-CC-PVDZ AUX)
    Role: JKFIT
    Keyword: DF_BASIS_SCF
    atoms 1, 4, 8, 11, 17-22 entry C          line   145 file /home/junteng/Softwares/psi4conda/share/psi4/basis/jun-cc-pvdz-jkfit.gbs 
    atoms 2-3, 9-10, 23      entry O          line   257 file /home/junteng/Softwares/psi4conda/share/psi4/basis/jun-cc-pvdz-jkfit.gbs 
    atoms 5-7, 12-16, 24-29  entry H          line    69 file /home/junteng/Softwares/psi4conda/share/psi4/basis/jun-cc-pvdz-jkfit.gbs 

  ==> Pre-Iterations <==

   -------------------------------------------------------
    Irrep   Nso     Nmo     Nalpha   Nbeta   Ndocc  Nsocc
   -------------------------------------------------------
     A        340     340       0       0       0       0
   -------------------------------------------------------
    Total     340     340      57      57      57       0
   -------------------------------------------------------

  ==> Integral Setup <==

  ==> DFJK: Density-Fitted J/K Matrices <==

    J tasked:                  Yes
    K tasked:                  Yes
    wK tasked:                  No
    OpenMP threads:              1
    Integrals threads:           1
    Memory (MB):              7152
    Algorithm:                Core
    Integral Cache:           NONE
    Schwarz Cutoff:          1E-12
    Fitting Condition:       1E-12

   => Auxiliary Basis Set <=

  Basis Set: (JUN-CC-PVDZ AUX)
    Blend: JUN-CC-PVDZ-JKFIT
    Number of shells: 531
    Number of basis function: 1507
    Number of Cartesian functions: 1715
    Spherical Harmonics?: true
    Max angular momentum: 3

  Minimum eigenvalue in the overlap matrix is 1.4633598528E-05.
  Using Symmetric Orthogonalization.

  SCF Guess: Superposition of Atomic Densities via on-the-fly atomic UHF.

  ==> Iterations <==

                           Total Energy        Delta E     RMS |[F,P]|

   @DF-RHF iter   0:  -768.36212785350506   -7.68362e+02   2.21274e-02 
   @DF-RHF iter   1:  -760.63437314740406    7.72775e+00   2.94083e-03 
   @DF-RHF iter   2:  -761.00796953910458   -3.73596e-01   2.07426e-03 DIIS
   @DF-RHF iter   3:  -761.20495504737755   -1.96986e-01   4.59607e-04 DIIS
   @DF-RHF iter   4:  -761.22291087262886   -1.79558e-02   1.63087e-04 DIIS
   @DF-RHF iter   5:  -761.22536660954927   -2.45574e-03   5.53378e-05 DIIS
   @DF-RHF iter   6:  -761.22575279662067   -3.86187e-04   2.30993e-05 DIIS
   @DF-RHF iter   7:  -761.22583053915741   -7.77425e-05   8.03392e-06 DIIS
   @DF-RHF iter   8:  -761.22584315434563   -1.26152e-05   3.11738e-06 DIIS
   @DF-RHF iter   9:  -761.22584522419345   -2.06985e-06   1.34571e-06 DIIS
   @DF-RHF iter  10:  -761.22584558284677   -3.58653e-07   5.37041e-07 DIIS
   @DF-RHF iter  11:  -761.22584563409612   -5.12493e-08   2.04627e-07 DIIS
   @DF-RHF iter  12:  -761.22584564223848   -8.14237e-09   8.78300e-08 DIIS
   @DF-RHF iter  13:  -761.22584564331123   -1.07275e-09   3.05221e-08 DIIS
   @DF-RHF iter  14:  -761.22584564349461   -1.83377e-10   1.39887e-08 DIIS
   @DF-RHF iter  15:  -761.22584564352428   -2.96723e-11   4.76391e-09 DIIS

  ==> Post-Iterations <==

    Orbital Energies (a.u.)
    -----------------------

    Doubly Occupied:                                                      

       1A    -20.617661     2A    -20.608604     3A    -20.567870  
       4A    -20.557596     5A    -20.552626     6A    -11.396629  
       7A    -11.390558     8A    -11.299750     9A    -11.295677  
      10A    -11.295330    11A    -11.293315    12A    -11.273887  
      13A    -11.266661    14A    -11.241789    15A    -11.240419  
      16A     -1.475600    17A     -1.463319    18A     -1.404131  
      19A     -1.370529    20A     -1.364228    21A     -1.113609  
      22A     -1.051902    23A     -1.037405    24A     -0.985846  
      25A     -0.973298    26A     -0.890851    27A     -0.822468  
      28A     -0.805860    29A     -0.778266    30A     -0.769704  
      31A     -0.741703    32A     -0.707414    33A     -0.689052  
      34A     -0.680171    35A     -0.678853    36A     -0.667375  
      37A     -0.663220    38A     -0.655972    39A     -0.628423  
      40A     -0.589934    41A     -0.583694    42A     -0.571527  
      43A     -0.562191    44A     -0.552865    45A     -0.535997  
      46A     -0.532019    47A     -0.520857    48A     -0.510345  
      49A     -0.509011    50A     -0.498377    51A     -0.481099  
      52A     -0.475377    53A     -0.470358    54A     -0.457230  
      55A     -0.452942    56A     -0.436344    57A     -0.432281  

    Virtual:                                                              

      58A      0.050905    59A      0.055181    60A      0.062179  
      61A      0.066925    62A      0.072633    63A      0.080478  
      64A      0.087934    65A      0.091999    66A      0.099385  
      67A      0.107479    68A      0.110536    69A      0.114257  
      70A      0.120581    71A      0.123369    72A      0.137739  
      73A      0.144121    74A      0.146790    75A      0.148330  
      76A      0.156465    77A      0.162346    78A      0.166501  
      79A      0.172951    80A      0.174452    81A      0.180881  
      82A      0.182092    83A      0.189540    84A      0.203513  
      85A      0.207222    86A      0.212946    87A      0.219242  
      88A      0.220263    89A      0.223364    90A      0.230802  
      91A      0.237632    92A      0.243046    93A      0.249266  
      94A      0.252909    95A      0.253905    96A      0.263584  
      97A      0.272270    98A      0.275558    99A      0.285874  
     100A      0.291069   101A      0.297921   102A      0.305827  
     103A      0.313467   104A      0.318797   105A      0.332483  
     106A      0.340153   107A      0.340572   108A      0.351889  
     109A      0.356303   110A      0.361545   111A      0.362680  
     112A      0.367140   113A      0.370974   114A      0.380412  
     115A      0.381862   116A      0.384274   117A      0.390187  
     118A      0.396892   119A      0.402751   120A      0.405101  
     121A      0.406092   122A      0.413960   123A      0.423004  
     124A      0.430780   125A      0.437829   126A      0.439943  
     127A      0.449111   128A      0.452501   129A      0.457205  
     130A      0.467774   131A      0.471268   132A      0.487434  
     133A      0.488747   134A      0.505091   135A      0.507736  
     136A      0.512301   137A      0.524331   138A      0.528347  
     139A      0.539499   140A      0.542353   141A      0.551855  
     142A      0.556110   143A      0.586479   144A      0.599180  
     145A      0.613503   146A      0.626251   147A      0.663960  
     148A      0.692991   149A      0.722486   150A      0.760207  
     151A      0.773376   152A      0.786419   153A      0.797593  
     154A      0.798487   155A      0.810055   156A      0.813517  
     157A      0.834847   158A      0.856374   159A      0.867407  
     160A      0.880202   161A      0.887701   162A      0.893874  
     163A      0.898804   164A      0.911933   165A      0.919954  
     166A      0.922217   167A      0.926604   168A      0.934736  
     169A      0.935914   170A      0.942872   171A      0.948166  
     172A      0.951876   173A      0.969076   174A      0.974111  
     175A      0.978709   176A      0.982195   177A      0.988330  
     178A      1.004807   179A      1.006928   180A      1.022842  
     181A      1.033928   182A      1.037733   183A      1.042106  
     184A      1.067680   185A      1.071927   186A      1.083763  
     187A      1.098714   188A      1.112489   189A      1.119830  
     190A      1.132723   191A      1.137765   192A      1.186701  
     193A      1.197563   194A      1.223114   195A      1.227654  
     196A      1.248219   197A      1.264058   198A      1.297149  
     199A      1.308083   200A      1.342114   201A      1.358408  
     202A      1.386143   203A      1.410689   204A      1.429172  
     205A      1.456532   206A      1.471720   207A      1.477283  
     208A      1.498575   209A      1.504672   210A      1.512485  
     211A      1.518048   212A      1.535202   213A      1.541002  
     214A      1.548511   215A      1.581778   216A      1.592694  
     217A      1.607434   218A      1.618442   219A      1.628128  
     220A      1.640020   221A      1.654387   222A      1.660055  
     223A      1.668243   224A      1.673694   225A      1.682304  
     226A      1.688089   227A      1.694728   228A      1.713004  
     229A      1.730532   230A      1.740248   231A      1.757397  
     232A      1.771536   233A      1.794357   234A      1.827594  
     235A      1.841950   236A      1.847072   237A      1.856403  
     238A      1.876240   239A      1.888238   240A      1.894664  
     241A      1.923377   242A      1.925088   243A      1.943626  
     244A      1.947518   245A      1.960882   246A      1.965392  
     247A      1.972074   248A      1.989773   249A      2.005638  
     250A      2.012450   251A      2.020438   252A      2.029055  
     253A      2.034309   254A      2.036860   255A      2.053881  
     256A      2.061453   257A      2.078212   258A      2.085932  
     259A      2.102255   260A      2.111689   261A      2.120983  
     262A      2.128920   263A      2.152116   264A      2.167488  
     265A      2.177950   266A      2.188237   267A      2.202419  
     268A      2.216866   269A      2.236585   270A      2.243668  
     271A      2.262950   272A      2.286272   273A      2.304159  
     274A      2.322985   275A      2.327657   276A      2.339351  
     277A      2.372483   278A      2.380680   279A      2.383835  
     280A      2.397441   281A      2.402227   282A      2.408848  
     283A      2.420943   284A      2.425630   285A      2.448801  
     286A      2.464195   287A      2.472408   288A      2.503701  
     289A      2.523251   290A      2.546059   291A      2.576968  
     292A      2.602309   293A      2.616688   294A      2.646421  
     295A      2.693554   296A      2.714980   297A      2.744819  
     298A      2.759718   299A      2.777871   300A      2.789567  
     301A      2.795722   302A      2.804757   303A      2.844826  
     304A      2.851257   305A      2.859607   306A      2.867915  
     307A      2.877428   308A      2.905169   309A      2.931947  
     310A      2.957290   311A      2.975764   312A      3.001580  
     313A      3.016397   314A      3.033358   315A      3.061524  
     316A      3.103082   317A      3.125453   318A      3.190304  
     319A      3.238984   320A      3.263999   321A      3.295001  
     322A      3.315172   323A      3.350144   324A      3.383898  
     325A      3.400657   326A      3.405893   327A      3.451615  
     328A      3.507582   329A      3.568622   330A      3.585643  
     331A      3.634447   332A      3.671909   333A      3.691181  
     334A      3.764823   335A      3.791630   336A      3.800309  
     337A      3.939190   338A      3.956525   339A      4.070621  
     340A      4.099733  

    Final Occupation by Irrep:
              A 
    DOCC [    57 ]

  Energy converged.

  @DF-RHF Final Energy:  -761.22584564352428

   => Energetics <=

    Nuclear Repulsion Energy =           1114.0993665889941440
    One-Electron Energy =               -3255.6703948813865281
    Two-Electron Energy =                1380.3451826488681036
    DFT Exchange-Correlation Energy =       0.0000000000000000
    Empirical Dispersion Energy =           0.0000000000000000
    PCM Polarization Energy =               0.0000000000000000
    EFP Energy =                            0.0000000000000000
    Total Energy =                       -761.2258456435242806



Properties will be evaluated at   0.000000,   0.000000,   0.000000 Bohr

Properties computed using the SCF density matrix

  Nuclear Dipole Moment: (a.u.)
     X:     0.6288      Y:     2.0805      Z:     3.4354

  Electronic Dipole Moment: (a.u.)
     X:    -0.2933      Y:    -2.7544      Z:    -2.1440

  Dipole Moment: (a.u.)
     X:     0.3356      Y:    -0.6740      Z:     1.2915     Total:     1.4949

  Dipole Moment: (Debye)
     X:     0.8530      Y:    -1.7131      Z:     3.2826     Total:     3.7997


*** tstop() called on ThinkPad-P50 at Tue Dec 12 11:25:14 2017
Module time:
	user time   =     225.25 seconds =       3.75 minutes
	system time =       2.16 seconds =       0.04 minutes
	total time  =        229 seconds =       3.82 minutes
Total time:
	user time   =     225.25 seconds =       3.75 minutes
	system time =       2.16 seconds =       0.04 minutes
	total time  =        229 seconds =       3.82 minutes
   => Loading Basis Set <=

    Name: (JUN-CC-PVDZ AUX)
    Role: JKFIT
    Keyword: DF_BASIS_SCF
    atoms 1, 4, 8, 11, 17-22 entry C          line   145 file /home/junteng/Softwares/psi4conda/share/psi4/basis/jun-cc-pvdz-jkfit.gbs 
    atoms 2-3, 9-10, 23      entry O          line   257 file /home/junteng/Softwares/psi4conda/share/psi4/basis/jun-cc-pvdz-jkfit.gbs 
    atoms 5-7, 12-16, 24-29  entry H          line    69 file /home/junteng/Softwares/psi4conda/share/psi4/basis/jun-cc-pvdz-jkfit.gbs 

   => Loading Basis Set <=

    Name: (JUN-CC-PVDZ AUX)
    Role: RIFIT
    Keyword: DF_BASIS_SAPT
    atoms 1, 4, 8, 11, 17-22 entry C          line    99 file /home/junteng/Softwares/psi4conda/share/psi4/basis/jun-cc-pvdz-ri.gbs 
    atoms 2-3, 9-10, 23      entry O          line   187 file /home/junteng/Softwares/psi4conda/share/psi4/basis/jun-cc-pvdz-ri.gbs 
    atoms 5-7, 12-16, 24-29  entry H          line    29 file /home/junteng/Softwares/psi4conda/share/psi4/basis/jun-cc-pvdz-ri.gbs 

   => Loading Basis Set <=

    Name: CC-PVTZ-MINAO
    Role: ORBITAL
    Keyword: BASIS
    atoms 1, 4, 8, 11, 17-22 entry C          line   130 file /home/junteng/Softwares/psi4conda/share/psi4/basis/cc-pvtz-minao.gbs 
    atoms 2-3, 9-10, 23      entry O          line   190 file /home/junteng/Softwares/psi4conda/share/psi4/basis/cc-pvtz-minao.gbs 
    atoms 5-7, 12-16, 24-29  entry H          line    19 file /home/junteng/Softwares/psi4conda/share/psi4/basis/cc-pvtz-minao.gbs 


*** tstart() called on ThinkPad-P50
*** at Tue Dec 12 11:25:16 2017

	 --------------------------------------------
	                    FISAPT0                  
	                  Rob Parrish                
	 --------------------------------------------

    Do F-SAPT =         Yes
    Do Plot   =          No
    Memory    =       1.048 [GD]

  ==> Localization (IBO) <==

  ==> IBO Localizer 2 <==

    MinAO Basis = CC-PVTZ-MINAO
    Use Ghosts  =       FALSE
    Use Stars   =       FALSE
    Condition   =   1.000E-07
    Power       =           4
    Convergence =   1.000E-12
    Maxiter     =        1000

    @IBO Iter:                   Metric       Gradient
    @IBO    1:   1.9619777695139780E+00   2.481767E+00
    @IBO    2:   2.1958756477292849E+00   2.491080E+00
    @IBO    3:   2.2939803379910795E+00   1.205734E+00
    @IBO    4:   2.3050768939799329E+00   6.514787E-02
    @IBO    5:   2.3051149985481372E+00   8.315685E-04
    @IBO    6:   2.3051150066064272E+00   2.193447E-05
    @IBO    7:   2.3051150066130264E+00   6.134476E-07
    @IBO    8:   2.3051150066130304E+00   1.976150E-08
    @IBO    9:   2.3051150066130308E+00   7.706822E-10
    @IBO   10:   2.3051150066130308E+00   3.315988E-11
    @IBO   11:   2.3051150066130308E+00   1.483642E-12
    @IBO   12:   2.3051150066130308E+00   6.705709E-14

    IBO Localizer 2 converged.

  ==> Partitioning <==

   => Atomic Partitioning <= 

    Monomer A:   7 atoms
    Monomer B:   7 atoms
    Monomer C:  15 atoms

   => Link Bond Identification <=

    Link Bond Selection = AUTOMATIC

    Charge Completeness = 0.800

    Total Link Bonds = 2

    --------------------------
    N     Orb Type Aind1 Aind2
    --------------------------
    1      20   BC     8    17
    2      56   AC     1    18
    --------------------------

   => Link Bond Assignment <=

    Link Bond Assignment      = C

   => Partition Summary <=

    Monomer A:  0 charge,  30 protons,  30 electrons,  15 docc
    Monomer B:  0 charge,  30 protons,  30 electrons,  15 docc
    Monomer C:  0 charge,  54 protons,  54 electrons,  27 docc

  ==> Overlap Integrals <==

  ==> Kinetic Integrals <==

  ==> Nuclear Integrals <==

    Nuclear Repulsion Tot:   1.1140993665889930E+03 [Eh]

  ==> Coulomb Integrals <==

  ==> DFJK: Density-Fitted J/K Matrices <==

    J tasked:                  Yes
    K tasked:                  Yes
    wK tasked:                  No
    OpenMP threads:              1
    Integrals threads:           1
    Memory (MB):              8583
    Algorithm:                Core
    Integral Cache:           NONE
    Schwarz Cutoff:          1E-12
    Fitting Condition:       1E-12

   => Auxiliary Basis Set <=

  Basis Set: (JUN-CC-PVDZ AUX)
    Blend: JUN-CC-PVDZ-JKFIT
    Number of shells: 531
    Number of basis function: 1507
    Number of Cartesian functions: 1715
    Spherical Harmonics?: true
    Max angular momentum: 3

  ==> Relaxed SCF Equations <==

  ==> SCF A: <==

    Maxiter =          50
    E Tol   =   1.000E-06
    D Tol   =   1.000E-08

    Max DIIS Vectors = 5

    Iter   N:                        E          dE         |D|
    Iter   1:  -2.2410022393384509E+02  -2.241E+02   1.072E-03 
    Iter   2:  -2.2411849473190352E+02  -1.827E-02   6.442E-05 DIIS
    Iter   3:  -2.2411877585313846E+02  -2.811E-04   2.479E-05 DIIS
    Iter   4:  -2.2411880407663946E+02  -2.822E-05   1.051E-05 DIIS
    Iter   5:  -2.2411880996636773E+02  -5.890E-06   1.806E-06 DIIS
    Iter   6:  -2.2411881024724488E+02  -2.809E-07   6.084E-07 DIIS
    Iter   7:  -2.2411881028606629E+02  -3.882E-08   1.936E-07 DIIS
    Iter   8:  -2.2411881028924822E+02  -3.182E-09   8.213E-08 DIIS
    Iter   9:  -2.2411881028981236E+02  -5.641E-10   3.170E-08 DIIS
    Iter  10:  -2.2411881028993898E+02  -1.266E-10   1.354E-08 DIIS
    Iter  11:  -2.2411881028996001E+02  -2.103E-11   8.281E-09 DIIS

    FISAPTSCF Converged.

    Final SCF Energy:  -2.2411881028996001E+02 [Eh]

   => Occupied Orbital Energies <=

       1  -20.606639     2  -20.545185     3  -11.384457  
       4  -11.293228     5   -1.438860     6   -1.354874  
       7   -0.962138     8   -0.765969     9   -0.667145  
      10   -0.661964    11   -0.620345    12   -0.540795  
      13   -0.534701    14   -0.472076    15   -0.458133  

   => Virtual Orbital Energies <=

      16    0.029204    17    0.056533    18    0.061291  
      19    0.062842    20    0.072287    21    0.076224  
      22    0.085259    23    0.088640    24    0.094865  
      25    0.100781    26    0.104642    27    0.110927  
      28    0.117931    29    0.124569    30    0.129186  
      31    0.135599    32    0.143219    33    0.146357  
      34    0.154859    35    0.160241    36    0.162257  
      37    0.164722    38    0.168338    39    0.179438  
      40    0.182813    41    0.193181    42    0.202299  
      43    0.205250    44    0.209681    45    0.212699  
      46    0.223413    47    0.228802    48    0.230648  
      49    0.236073    50    0.240011    51    0.251464  
      52    0.254929    53    0.257289    54    0.265376  
      55    0.269266    56    0.278289    57    0.289270  
      58    0.292642    59    0.297016    60    0.303614  
      61    0.306790    62    0.311095    63    0.321400  
      64    0.327294    65    0.337601    66    0.346437  
      67    0.358155    68    0.361682    69    0.365340  
      70    0.374169    71    0.378916    72    0.382172  
      73    0.383298    74    0.392696    75    0.395789  
      76    0.399809    77    0.407975    78    0.408385  
      79    0.412504    80    0.415411    81    0.426586  
      82    0.434357    83    0.441146    84    0.443420  
      85    0.453218    86    0.457023    87    0.460251  
      88    0.476428    89    0.483936    90    0.498198  
      91    0.506586    92    0.518904    93    0.527245  
      94    0.532740    95    0.545099    96    0.552097  
      97    0.556898    98    0.571098    99    0.573085  
     100    0.593124   101    0.610173   102    0.623400  
     103    0.628708   104    0.634343   105    0.653445  
     106    0.668971   107    0.677951   108    0.696367  
     109    0.744769   110    0.763268   111    0.782227  
     112    0.790456   113    0.815787   114    0.823276  
     115    0.833718   116    0.848577   117    0.863534  
     118    0.879101   119    0.898036   120    0.911020  
     121    0.912717   122    0.916905   123    0.929087  
     124    0.937889   125    0.940624   126    0.948402  
     127    0.949418   128    0.971528   129    0.977759  
     130    0.988314   131    0.990764   132    0.994817  
     133    0.997429   134    1.011116   135    1.021206  
     136    1.022362   137    1.028703   138    1.047600  
     139    1.054617   140    1.076010   141    1.082569  
     142    1.102892   143    1.108803   144    1.119227  
     145    1.126471   146    1.134395   147    1.143319  
     148    1.154702   149    1.193933   150    1.216197  
     151    1.231937   152    1.258957   153    1.286180  
     154    1.313671   155    1.337033   156    1.338408  
     157    1.376007   158    1.392482   159    1.428947  
     160    1.445170   161    1.469570   162    1.486917  
     163    1.495326   164    1.515210   165    1.532503  
     166    1.537481   167    1.555861   168    1.563020  
     169    1.580830   170    1.590469   171    1.600057  
     172    1.626636   173    1.639514   174    1.658157  
     175    1.671292   176    1.677112   177    1.696467  
     178    1.702250   179    1.709332   180    1.732131  
     181    1.761727   182    1.771932   183    1.786548  
     184    1.802980   185    1.824116   186    1.836024  
     187    1.842682   188    1.859383   189    1.872197  
     190    1.882175   191    1.890413   192    1.912982  
     193    1.924661   194    1.943156   195    1.954608  
     196    1.961227   197    1.974481   198    1.979879  
     199    2.009726   200    2.012307   201    2.026432  
     202    2.030231   203    2.034402   204    2.048248  
     205    2.059009   206    2.066264   207    2.088720  
     208    2.091594   209    2.108699   210    2.114575  
     211    2.128727   212    2.128942   213    2.136618  
     214    2.159868   215    2.175939   216    2.184462  
     217    2.203442   218    2.216214   219    2.228655  
     220    2.234933   221    2.272857   222    2.284233  
     223    2.287503   224    2.295420   225    2.315491  
     226    2.329704   227    2.340721   228    2.343127  
     229    2.348745   230    2.378014   231    2.387980  
     232    2.398956   233    2.416940   234    2.421334  
     235    2.427978   236    2.443496   237    2.473746  
     238    2.476908   239    2.490931   240    2.514942  
     241    2.515294   242    2.551493   243    2.573208  
     244    2.601238   245    2.616684   246    2.636220  
     247    2.646244   248    2.657960   249    2.678632  
     250    2.688507   251    2.714496   252    2.756911  
     253    2.775837   254    2.791707   255    2.802290  
     256    2.808808   257    2.845480   258    2.867168  
     259    2.871769   260    2.879000   261    2.896332  
     262    2.900364   263    2.921300   264    2.957704  
     265    2.962640   266    3.001375   267    3.018642  
     268    3.039430   269    3.050645   270    3.065274  
     271    3.084162   272    3.136329   273    3.221581  
     274    3.254958   275    3.316779   276    3.320087  
     277    3.398242   278    3.410336   279    3.422717  
     280    3.523563   281    3.583491   282    3.586849  
     283    3.637493   284    3.668291   285    3.690341  
     286    3.763234   287    3.804230   288    3.815059  
     289    3.951280   290    3.965708   291    4.082323  
     292    4.137639   293    4.203579   294    4.439561  
     295    4.520688   296    4.548304   297    4.759554  
     298    4.939372   299    5.040246   300    5.065097  
     301    5.220756   302    5.326194   303    5.505751  
     304    5.576911   305    5.740864   306    5.836452  
     307    6.096245   308    6.347149   309    6.705387  
     310   13.388298   311   18.427833   312   33.427115  
     313   33.477465  

  ==> SCF B: <==

    Maxiter =          50
    E Tol   =   1.000E-06
    D Tol   =   1.000E-08

    Max DIIS Vectors = 5

    Iter   N:                        E          dE         |D|
    Iter   1:  -2.2411310838864622E+02  -2.241E+02   7.336E-04 
    Iter   2:  -2.2412221099351567E+02  -9.103E-03   4.216E-05 DIIS
    Iter   3:  -2.2412235920474811E+02  -1.482E-04   1.287E-05 DIIS
    Iter   4:  -2.2412236897423165E+02  -9.769E-06   6.361E-06 DIIS
    Iter   5:  -2.2412237121054545E+02  -2.236E-06   1.424E-06 DIIS
    Iter   6:  -2.2412237137012659E+02  -1.596E-07   5.296E-07 DIIS
    Iter   7:  -2.2412237139503472E+02  -2.491E-08   1.853E-07 DIIS
    Iter   8:  -2.2412237139846002E+02  -3.425E-09   7.184E-08 DIIS
    Iter   9:  -2.2412237139892463E+02  -4.646E-10   2.889E-08 DIIS
    Iter  10:  -2.2412237139902692E+02  -1.023E-10   9.999E-09 DIIS

    FISAPTSCF Converged.

    Final SCF Energy:  -2.2412237139902692E+02 [Eh]

   => Occupied Orbital Energies <=

       1  -20.605264     2  -20.548143     3  -11.384860  
       4  -11.292180     5   -1.436461     6   -1.356768  
       7   -0.959322     8   -0.764274     9   -0.667959  
      10   -0.661042    11   -0.619854    12   -0.540137  
      13   -0.534230    14   -0.472335    15   -0.458831  

   => Virtual Orbital Energies <=

      16    0.029860    17    0.055166    18    0.060917  
      19    0.068073    20    0.072616    21    0.073082  
      22    0.087279    23    0.090008    24    0.095281  
      25    0.102165    26    0.103808    27    0.107594  
      28    0.120176    29    0.123663    30    0.128454  
      31    0.139249    32    0.140710    33    0.146090  
      34    0.148373    35    0.156104    36    0.168325  
      37    0.171696    38    0.178958    39    0.181384  
      40    0.182820    41    0.188121    42    0.197936  
      43    0.206518    44    0.210695    45    0.212637  
      46    0.221788    47    0.227067    48    0.230682  
      49    0.243001    50    0.247232    51    0.251490  
      52    0.253778    53    0.256128    54    0.264979  
      55    0.276888    56    0.279745    57    0.284251  
      58    0.287310    59    0.291673    60    0.303605  
      61    0.314744    62    0.315943    63    0.322268  
      64    0.325114    65    0.333090    66    0.341485  
      67    0.349591    68    0.356615    69    0.360701  
      70    0.372999    71    0.376191    72    0.379536  
      73    0.388305    74    0.392825    75    0.395616  
      76    0.399090    77    0.406838    78    0.408976  
      79    0.415956    80    0.422632    81    0.424793  
      82    0.432513    83    0.446865    84    0.450929  
      85    0.458687    86    0.461224    87    0.468046  
      88    0.476069    89    0.489646    90    0.492665  
      91    0.515452    92    0.524363    93    0.539797  
      94    0.540591    95    0.550128    96    0.557242  
      97    0.566576    98    0.573040    99    0.580412  
     100    0.597015   101    0.616394   102    0.625276  
     103    0.631092   104    0.637023   105    0.656536  
     106    0.658874   107    0.672409   108    0.698312  
     109    0.728334   110    0.767678   111    0.770177  
     112    0.794613   113    0.798243   114    0.811235  
     115    0.830728   116    0.842683   117    0.874371  
     118    0.881315   119    0.894035   120    0.907080  
     121    0.915736   122    0.926271   123    0.933726  
     124    0.937811   125    0.940209   126    0.943028  
     127    0.945091   128    0.959110   129    0.970637  
     130    0.976495   131    0.983930   132    0.991913  
     133    1.000288   134    1.008486   135    1.012618  
     136    1.022731   137    1.040779   138    1.045102  
     139    1.057129   140    1.065703   141    1.084307  
     142    1.095148   143    1.099736   144    1.107711  
     145    1.114980   146    1.140138   147    1.152082  
     148    1.154442   149    1.194113   150    1.227115  
     151    1.243127   152    1.250195   153    1.274920  
     154    1.288232   155    1.327781   156    1.369079  
     157    1.377998   158    1.410944   159    1.432610  
     160    1.461964   161    1.467859   162    1.491827  
     163    1.513349   164    1.525239   165    1.531734  
     166    1.558290   167    1.561656   168    1.581300  
     169    1.594775   170    1.613196   171    1.622042  
     172    1.638150   173    1.645723   174    1.652779  
     175    1.668300   176    1.675150   177    1.687595  
     178    1.694595   179    1.701466   180    1.724871  
     181    1.750974   182    1.778065   183    1.785627  
     184    1.796232   185    1.816145   186    1.828629  
     187    1.835420   188    1.854446   189    1.870417  
     190    1.885606   191    1.894301   192    1.899119  
     193    1.916762   194    1.937764   195    1.949636  
     196    1.971831   197    1.976777   198    1.985241  
     199    1.991471   200    2.011348   201    2.018156  
     202    2.024238   203    2.034085   204    2.037523  
     205    2.050954   206    2.070001   207    2.082227  
     208    2.096366   209    2.107691   210    2.123257  
     211    2.129138   212    2.133838   213    2.146012  
     214    2.151802   215    2.184427   216    2.186493  
     217    2.200012   218    2.211027   219    2.229371  
     220    2.233006   221    2.258081   222    2.271311  
     223    2.286282   224    2.293060   225    2.308403  
     226    2.326771   227    2.348585   228    2.357520  
     229    2.379875   230    2.383637   231    2.388398  
     232    2.400435   233    2.402859   234    2.421157  
     235    2.430741   236    2.449387   237    2.463541  
     238    2.488000   239    2.495006   240    2.512442  
     241    2.522434   242    2.549215   243    2.593693  
     244    2.595449   245    2.604614   246    2.630726  
     247    2.658846   248    2.679312   249    2.683233  
     250    2.696867   251    2.706999   252    2.746659  
     253    2.771867   254    2.795790   255    2.802303  
     256    2.813139   257    2.840951   258    2.852734  
     259    2.867274   260    2.873094   261    2.881585  
     262    2.889864   263    2.931151   264    2.956714  
     265    2.963963   266    2.997103   267    3.019723  
     268    3.024141   269    3.041082   270    3.059741  
     271    3.092718   272    3.118194   273    3.222226  
     274    3.260704   275    3.290183   276    3.326089  
     277    3.397516   278    3.409510   279    3.433570  
     280    3.528695   281    3.584722   282    3.603193  
     283    3.640802   284    3.669070   285    3.678371  
     286    3.725929   287    3.797454   288    3.815762  
     289    3.945552   290    4.001029   291    4.095649  
     292    4.131433   293    4.191348   294    4.439387  
     295    4.510059   296    4.537193   297    4.751338  
     298    4.939427   299    5.044885   300    5.069458  
     301    5.197788   302    5.321799   303    5.505318  
     304    5.559028   305    5.670123   306    5.802569  
     307    6.214117   308    6.344636   309    6.684495  
     310   13.365134   311   18.428201   312   33.414974  
     313   33.470019  

  ==> Frozen Core <==


    ------------------
    Range      A     B
    ------------------
    nbf      340   340
    nmo      313   313
    nocc      15    15
    nvir     298   298
    nfocc      4     4
    naocc     11    11
    navir    298   298
    nfvir      0     0
    ------------------

  ==> Unification <==

  ==> dHF <==

    E ABC(HF) =  -7.6122584564352428E+02 [Eh]
    E AC(0)   =  -5.3320501775681873E+02 [Eh]
    E BC(0)   =  -5.3319811818548601E+02 [Eh]
    E A(0)    =  -2.1266845784570080E+02 [Eh]
    E B(0)    =  -2.1266885009619921E+02 [Eh]
    E AC(HF)  =  -5.3318643140070412E+02 [Eh]
    E BC(HF)  =  -5.3318885517510557E+02 [Eh]
    E AB(HF)  =  -4.2530257983077132E+02 [Eh]
    E A(HF)   =  -2.1264077906142842E+02 [Eh]
    E B(HF)   =  -2.1265150265931021E+02 [Eh]
    E C       =  -3.0515973904231458E+02 [Eh]
    E HF      =   1.7551256465878851E-02 [Eh]

  ==> Electrostatics <==

    Elst10,r            =     0.011042924922 [Eh]

  ==> Exchange <==

    Exch10(S^2)         =     0.008637432268 [Eh]
    Exch10              =     0.008670190190 [Eh]

  ==> Induction <==

    Ind20,u (A<-B)      =    -0.002010855602 [Eh]
    Ind20,u (B<-A)      =    -0.001372055513 [Eh]
    Ind20,u             =    -0.003382911115 [Eh]
    Exch-Ind20,u (A<-B) =     0.001003713659 [Eh]
    Exch-Ind20,u (B<-A) =     0.000955257384 [Eh]
    Exch-Ind20,u        =     0.001958971044 [Eh]

  ==> CPHF Iterations <==

    Maxiter     =          50
    Convergence =   1.000E-08

    -----------------------------------------
    Iter   Monomer A    Monomer B    Time [s]
    -----------------------------------------
    1      2.204E-01    1.542E-01          17
    2      8.339E-02    5.475E-02          37
    3      2.136E-02    1.186E-02          57
    4      7.179E-03    5.418E-03          84
    5      2.088E-03    1.835E-03         108
    6      7.397E-04    7.281E-04         133
    7      2.002E-04    2.203E-04         154
    8      8.661E-05    9.324E-05         179
    9      2.708E-05    2.284E-05         207
    10     9.534E-06    5.728E-06         233
    11     2.186E-06    2.021E-06         260
    12     3.634E-07    6.704E-07         285
    13     1.008E-07    1.094E-07         318
    14     3.255E-08    2.281E-08         355
    15     6.909E-09*   6.434E-09*        399
    -----------------------------------------

    Ind20,r (A<-B)      =    -0.002374821781 [Eh]
    Ind20,r (B<-A)      =    -0.001560441057 [Eh]
    Ind20,r             =    -0.003935262838 [Eh]
    Exch-Ind20,r (A<-B) =     0.001288019924 [Eh]
    Exch-Ind20,r (B<-A) =     0.001126443947 [Eh]
    Exch-Ind20,r        =     0.002414463871 [Eh]

  ==> F-SAPT Localization (IBO) <==

  Local Orbitals for Monomer A:

  ==> IBO Localizer 2 <==

    MinAO Basis = CC-PVTZ-MINAO
    Use Ghosts  =       FALSE
    Use Stars   =       FALSE
    Condition   =   1.000E-07
    Power       =           4
    Convergence =   1.000E-12
    Maxiter     =        1000

    @IBO Iter:                   Metric       Gradient
    @IBO    1:   1.4833354634712070E+00   1.670664E+00
    @IBO    2:   1.6772141851597662E+00   9.267911E-01
    @IBO    3:   1.7086951700122166E+00   3.229853E-01
    @IBO    4:   1.7100200258105658E+00   2.952192E-03
    @IBO    5:   1.7100202491455885E+00   8.401328E-05
    @IBO    6:   1.7100202492439693E+00   1.502960E-06
    @IBO    7:   1.7100202492440195E+00   5.286509E-08
    @IBO    8:   1.7100202492440197E+00   1.639388E-09
    @IBO    9:   1.7100202492440195E+00   5.987966E-11
    @IBO   10:   1.7100202492440195E+00   2.394170E-12
    @IBO   11:   1.7100202492440195E+00   9.900633E-14

    IBO Localizer 2 converged.

  Local Orbitals for Monomer B:

  ==> IBO Localizer 2 <==

    MinAO Basis = CC-PVTZ-MINAO
    Use Ghosts  =       FALSE
    Use Stars   =       FALSE
    Condition   =   1.000E-07
    Power       =           4
    Convergence =   1.000E-12
    Maxiter     =        1000

    @IBO Iter:                   Metric       Gradient
    @IBO    1:   1.4812217559844600E+00   1.686310E+00
    @IBO    2:   1.6781487152506984E+00   9.431303E-01
    @IBO    3:   1.7099770244517045E+00   3.158573E-01
    @IBO    4:   1.7112122574081106E+00   2.931560E-03
    @IBO    5:   1.7112125557179751E+00   1.259480E-04
    @IBO    6:   1.7112125559318467E+00   2.579704E-06
    @IBO    7:   1.7112125559319866E+00   8.903236E-08
    @IBO    8:   1.7112125559319871E+00   3.030831E-09
    @IBO    9:   1.7112125559319871E+00   1.168201E-10
    @IBO   10:   1.7112125559319871E+00   4.733643E-12
    @IBO   11:   1.7112125559319871E+00   1.951125E-13

    IBO Localizer 2 converged.

  ==> F-SAPT Electrostatics <==

  ==> DFERI: Density Fitted 3-Index Tensors <==

    Schwarz cutoff =   0.000E+00
    J cutoff       =   1.000E-12
    Mem (GB)       =           8

   => Auxiliary Basis <=

  Basis Set: (JUN-CC-PVDZ AUX)
    Blend: JUN-CC-PVDZ-JKFIT
    Number of shells: 531
    Number of basis function: 1507
    Number of Cartesian functions: 1715
    Spherical Harmonics?: true
    Max angular momentum: 3

    Elst10,r            =     0.011042925736 [Eh]

  ==> F-SAPT Exchange <==

  ==> DFERI: Density Fitted 3-Index Tensors <==

    Schwarz cutoff =   0.000E+00
    J cutoff       =   1.000E-12
    Mem (GB)       =           8

   => Auxiliary Basis <=

  Basis Set: (JUN-CC-PVDZ AUX)
    Blend: JUN-CC-PVDZ-JKFIT
    Number of shells: 531
    Number of basis function: 1507
    Number of Cartesian functions: 1715
    Spherical Harmonics?: true
    Max angular momentum: 3

    Exch10(S^2)         =     0.008637432269 [Eh]

    Scaling F-SAPT Exch10(S^2) by   1.004E+00 to match Exch10

  ==> F-SAPT Induction <==

  ==> DFERI: Density Fitted 3-Index Tensors <==

    Schwarz cutoff =   0.000E+00
    J cutoff       =   1.000E-12
    Mem (GB)       =           8

   => Auxiliary Basis <=

  Basis Set: (JUN-CC-PVDZ AUX)
    Blend: JUN-CC-PVDZ-JKFIT
    Number of shells: 531
    Number of basis function: 1507
    Number of Cartesian functions: 1715
    Spherical Harmonics?: true
    Max angular momentum: 3

    Ind20,u (A<-B)      =    -0.002010855602 [Eh]
    Ind20,u (B<-A)      =    -0.001372055514 [Eh]
    Ind20,u             =    -0.003382911115 [Eh]
    Exch-Ind20,u (A<-B) =     0.001003713659 [Eh]
    Exch-Ind20,u (B<-A) =     0.000955257385 [Eh]
    Exch-Ind20,u        =     0.001958971044 [Eh]

    Scaling for delta HF        =   1.422E+00
    Scaling for response (A<-B) =   1.079E+00
    Scaling for response (B<-A) =   1.041E+00
    Scaling for total (A<-B)    =   1.534E+00
    Scaling for total (B<-A)    =   1.480E+00

  ==> F-SAPT Dispersion <==

  ==> DFERI: Density Fitted 3-Index Tensors <==

    Schwarz cutoff =   0.000E+00
    J cutoff       =   1.000E-12
    Mem (GB)       =           8

   => Auxiliary Basis <=

  Basis Set: (JUN-CC-PVDZ AUX)
    Blend: JUN-CC-PVDZ-RI
    Number of shells: 399
    Number of basis function: 1171
    Number of Cartesian functions: 1350
    Spherical Harmonics?: true
    Max angular momentum: 3

    Disp20              =    -0.004775746888 [Eh]
    Exch-Disp20         =     0.000624773234 [Eh]

  ==> F-SAPT Output <==

    F-SAPT Data Filepath = fsapt/

  ==> Results <==


    SAPT Results  
  --------------------------------------------------------------------------------------------------------
    Electrostatics                 11.04292492 [mEh]       6.92954030 [kcal/mol]      28.99319938 [kJ/mol]
      Elst10,r                     11.04292492 [mEh]       6.92954030 [kcal/mol]      28.99319938 [kJ/mol]

    Exchange                        8.67019019 [mEh]       5.44062671 [kcal/mol]      22.76358434 [kJ/mol]
      Exch10                        8.67019019 [mEh]       5.44062671 [kcal/mol]      22.76358434 [kJ/mol]
      Exch10(S^2)                   8.63743227 [mEh]       5.42007080 [kcal/mol]      22.67757842 [kJ/mol]

    Induction                      -2.16185865 [mEh]      -1.35658684 [kcal/mol]      -5.67595988 [kJ/mol]
      Ind20,r                      -3.93526284 [mEh]      -2.46941482 [kcal/mol]     -10.33203258 [kJ/mol]
      Exch-Ind20,r                  2.41446387 [mEh]       1.51509902 [kcal/mol]       6.33917489 [kJ/mol]
      delta HF,r (2)               -0.64105968 [mEh]      -0.40227104 [kcal/mol]      -1.68310219 [kJ/mol]
      Induction (A<-B)             -1.54491951 [mEh]      -0.96945167 [kcal/mol]      -4.05618617 [kJ/mol]
      Induction (B<-A)             -0.61693914 [mEh]      -0.38713517 [kcal/mol]      -1.61977371 [kJ/mol]

    Dispersion                     -4.15097365 [mEh]      -2.60477540 [kcal/mol]     -10.89838133 [kJ/mol]
      Disp20                       -4.77574689 [mEh]      -2.99682654 [kcal/mol]     -12.53872346 [kJ/mol]
      Exch-Disp20                   0.62477323 [mEh]       0.39205114 [kcal/mol]       1.64034212 [kJ/mol]

  Total HF                         17.55125647 [mEh]      11.01358017 [kcal/mol]      46.08082385 [kJ/mol]
  Total SAPT0                      13.40028281 [mEh]       8.40880477 [kcal/mol]      35.18244252 [kJ/mol]

  --------------------------------------------------------------------------------------------------------
    Han Solo: This is *not* gonna work.
    Luke Skywalker: Why didn't you say so before?
    Han Solo: I *did* say so before.

*** tstop() called on ThinkPad-P50 at Tue Dec 12 11:40:28 2017
Module time:
	user time   =     904.43 seconds =      15.07 minutes
	system time =       5.97 seconds =       0.10 minutes
	total time  =        912 seconds =      15.20 minutes
Total time:
	user time   =    1132.12 seconds =      18.87 minutes
	system time =       8.14 seconds =       0.14 minutes
	total time  =       1143 seconds =      19.05 minutes

*** Psi4 exiting successfully. Buy a developer a beer!
