
    -----------------------------------------------------------------------
          Psi4: An Open-Source Ab Initio Electronic Structure Package
                               Psi4 1.1 release

                         Git: Rev {HEAD} add49b9 


    R. M. Parrish, L. A. Burns, D. G. A. Smith, A. C. Simmonett,
    A. E. DePrince III, E. G. Hohenstein, U. Bozkaya, A. Yu. Sokolov,
    R. Di Remigio, R. M. Richard, J. F. Gonthier, A. M. James,
    H. R. McAlexander, A. Kumar, M. Saitow, X. Wang, B. P. Pritchard,
    P. Verma, H. F. Schaefer III, K. Patkowski, R. A. King, E. F. Valeev,
    F. A. Evangelista, J. M. Turney, T. D. Crawford, and C. D. Sherrill,
    J. Chem. Theory Comput. in press (2017).
    (doi: 10.1021/acs.jctc.7b00174)

    -----------------------------------------------------------------------


    Psi4 started on: Tuesday, 12 December 2017 11:40AM

    Process ID:  15976
    PSIDATADIR: /home/junteng/Softwares/psi4conda/share/psi4
    Memory:     500.0 MiB
    Threads:    1
    
  ==> Input File <==

--------------------------------------------------------------------------
memory 750000 mb

molecule mol {
0 1
C          0.60890        1.43691        0.50158
O          1.07278        2.23795        1.27755
O          1.09780        1.22404       -0.73325
C          2.26717        1.97728       -1.09681
H          2.05847        3.04757       -1.06451
H          3.08994        1.75321       -0.41547
H          2.50786        1.66279       -2.10972
--
0 1
C          0.77435       -1.45551       -0.04202
O          0.93932       -2.09815       -1.04678
O          1.76192       -1.15982        0.83010
C          3.08693       -1.56954        0.44660
H          3.35720       -1.11866       -0.50956
H          3.74110       -1.21400        1.23937
H          3.14190       -2.65564        0.35890
--
0 1
H         -1.81350        2.04727       -0.47462
H         -1.57465       -1.92869       -1.23454
C         -0.55597       -0.93281        0.47235
C         -0.62767        0.60761        0.78123
C         -1.70629       -1.09818       -0.54762
C         -3.06041       -1.01203        0.19085
C         -3.14313        0.51746        0.48642
C         -1.82249        1.00962       -0.14720
O         -1.66402        0.14198       -1.27113
H         -0.75362       -1.48844        1.39333
H         -0.86462        0.78675        1.82828
H         -3.87002       -1.33480       -0.46470
H         -3.08673       -1.62772        1.09226
H         -3.99372        0.97538       -0.02044
H         -3.21475        0.75310        1.54988

symmetry c1
no_reorient
no_com
}

set {
basis jun-cc-pvdz
scf_type df
guess sad
freeze_core true
}

energy('fisapt0')
--------------------------------------------------------------------------

  Memory set to 698.492 GiB by Python driver.

*** tstart() called on ThinkPad-P50
*** at Tue Dec 12 11:40:29 2017

   => Loading Basis Set <=

    Name: JUN-CC-PVDZ
    Role: ORBITAL
    Keyword: BASIS
    atoms 1, 4, 8, 11, 17-22 entry C          line   157 file /home/junteng/Softwares/psi4conda/share/psi4/basis/jun-cc-pvdz.gbs 
    atoms 2-3, 9-10, 23      entry O          line   225 file /home/junteng/Softwares/psi4conda/share/psi4/basis/jun-cc-pvdz.gbs 
    atoms 5-7, 12-16, 24-29  entry H          line    35 file /home/junteng/Softwares/psi4conda/share/psi4/basis/jun-cc-pvdz.gbs 


         ---------------------------------------------------------
                                   SCF
            by Justin Turney, Rob Parrish, and Andy Simmonett
                              RHF Reference
                        1 Threads, 715255 MiB Core
         ---------------------------------------------------------

  ==> Geometry <==

    Molecular point group: c1
    Full point group: C1

    Geometry (in Angstrom), charge = 0, multiplicity = 1:

       Center              X                  Y                   Z               Mass       
    ------------   -----------------  -----------------  -----------------  -----------------
           C          0.608900000000     1.436910000000     0.501580000000    12.000000000000
           O          1.072780000000     2.237950000000     1.277550000000    15.994914619560
           O          1.097800000000     1.224040000000    -0.733250000000    15.994914619560
           C          2.267170000000     1.977280000000    -1.096810000000    12.000000000000
           H          2.058470000000     3.047570000000    -1.064510000000     1.007825032070
           H          3.089940000000     1.753210000000    -0.415470000000     1.007825032070
           H          2.507860000000     1.662790000000    -2.109720000000     1.007825032070
           C          0.774350000000    -1.455510000000    -0.042020000000    12.000000000000
           O          0.939320000000    -2.098150000000    -1.046780000000    15.994914619560
           O          1.761920000000    -1.159820000000     0.830100000000    15.994914619560
           C          3.086930000000    -1.569540000000     0.446600000000    12.000000000000
           H          3.357200000000    -1.118660000000    -0.509560000000     1.007825032070
           H          3.741100000000    -1.214000000000     1.239370000000     1.007825032070
           H          3.141900000000    -2.655640000000     0.358900000000     1.007825032070
           H         -1.813500000000     2.047270000000    -0.474620000000     1.007825032070
           H         -1.574650000000    -1.928690000000    -1.234540000000     1.007825032070
           C         -0.555970000000    -0.932810000000     0.472350000000    12.000000000000
           C         -0.627670000000     0.607610000000     0.781230000000    12.000000000000
           C         -1.706290000000    -1.098180000000    -0.547620000000    12.000000000000
           C         -3.060410000000    -1.012030000000     0.190850000000    12.000000000000
           C         -3.143130000000     0.517460000000     0.486420000000    12.000000000000
           C         -1.822490000000     1.009620000000    -0.147200000000    12.000000000000
           O         -1.664020000000     0.141980000000    -1.271130000000    15.994914619560
           H         -0.753620000000    -1.488440000000     1.393330000000     1.007825032070
           H         -0.864620000000     0.786750000000     1.828280000000     1.007825032070
           H         -3.870020000000    -1.334800000000    -0.464700000000     1.007825032070
           H         -3.086730000000    -1.627720000000     1.092260000000     1.007825032070
           H         -3.993720000000     0.975380000000    -0.020440000000     1.007825032070
           H         -3.214750000000     0.753100000000     1.549880000000     1.007825032070

  Running in c1 symmetry.

  Rotational constants: A =      0.02976  B =      0.01863  C =      0.01422 [cm^-1]
  Rotational constants: A =    892.15195  B =    558.47353  C =    426.37818 [MHz]
  Nuclear repulsion = 1125.035359527373430

  Charge       = 0
  Multiplicity = 1
  Electrons    = 114
  Nalpha       = 57
  Nbeta        = 57

  ==> Algorithm <==

  SCF Algorithm Type is DF.
  DIIS enabled.
  MOM disabled.
  Fractional occupation disabled.
  Guess Type is SAD.
  Energy threshold   = 1.00e-08
  Density threshold  = 1.00e-08
  Integral threshold = 0.00e+00

  ==> Primary Basis <==

  Basis Set: JUN-CC-PVDZ
    Blend: JUN-CC-PVDZ
    Number of shells: 162
    Number of basis function: 340
    Number of Cartesian functions: 355
    Spherical Harmonics?: true
    Max angular momentum: 2

   => Loading Basis Set <=

    Name: (JUN-CC-PVDZ AUX)
    Role: JKFIT
    Keyword: DF_BASIS_SCF
    atoms 1, 4, 8, 11, 17-22 entry C          line   145 file /home/junteng/Softwares/psi4conda/share/psi4/basis/jun-cc-pvdz-jkfit.gbs 
    atoms 2-3, 9-10, 23      entry O          line   257 file /home/junteng/Softwares/psi4conda/share/psi4/basis/jun-cc-pvdz-jkfit.gbs 
    atoms 5-7, 12-16, 24-29  entry H          line    69 file /home/junteng/Softwares/psi4conda/share/psi4/basis/jun-cc-pvdz-jkfit.gbs 

  ==> Pre-Iterations <==

   -------------------------------------------------------
    Irrep   Nso     Nmo     Nalpha   Nbeta   Ndocc  Nsocc
   -------------------------------------------------------
     A        340     340       0       0       0       0
   -------------------------------------------------------
    Total     340     340      57      57      57       0
   -------------------------------------------------------

  ==> Integral Setup <==

  ==> DFJK: Density-Fitted J/K Matrices <==

    J tasked:                  Yes
    K tasked:                  Yes
    wK tasked:                  No
    OpenMP threads:              1
    Integrals threads:           1
    Memory (MB):            536441
    Algorithm:                Core
    Integral Cache:           NONE
    Schwarz Cutoff:          1E-12
    Fitting Condition:       1E-12

   => Auxiliary Basis Set <=

  Basis Set: (JUN-CC-PVDZ AUX)
    Blend: JUN-CC-PVDZ-JKFIT
    Number of shells: 531
    Number of basis function: 1507
    Number of Cartesian functions: 1715
    Spherical Harmonics?: true
    Max angular momentum: 3

  Minimum eigenvalue in the overlap matrix is 1.2708634665E-05.
  Using Symmetric Orthogonalization.

  SCF Guess: Superposition of Atomic Densities via on-the-fly atomic UHF.

  ==> Iterations <==

                           Total Energy        Delta E     RMS |[F,P]|

   @DF-RHF iter   0:  -767.67555036193551   -7.67676e+02   2.15467e-02 
   @DF-RHF iter   1:  -760.67159528913248    7.00396e+00   2.85860e-03 
   @DF-RHF iter   2:  -761.04203282346430   -3.70438e-01   1.92480e-03 DIIS
   @DF-RHF iter   3:  -761.21112416173412   -1.69091e-01   4.50931e-04 DIIS
   @DF-RHF iter   4:  -761.22691522509581   -1.57911e-02   1.50410e-04 DIIS
   @DF-RHF iter   5:  -761.22873540627427   -1.82018e-03   4.78640e-05 DIIS
   @DF-RHF iter   6:  -761.22900901359810   -2.73607e-04   1.98963e-05 DIIS
   @DF-RHF iter   7:  -761.22907594727769   -6.69337e-05   7.51230e-06 DIIS
   @DF-RHF iter   8:  -761.22908941422975   -1.34670e-05   3.17615e-06 DIIS
   @DF-RHF iter   9:  -761.22909172667516   -2.31245e-06   1.28057e-06 DIIS
   @DF-RHF iter  10:  -761.22909206074291   -3.34068e-07   4.82080e-07 DIIS
   @DF-RHF iter  11:  -761.22909210679381   -4.60509e-08   1.84088e-07 DIIS
   @DF-RHF iter  12:  -761.22909211267847   -5.88466e-09   7.66668e-08 DIIS
   @DF-RHF iter  13:  -761.22909211352112   -8.42647e-10   3.04366e-08 DIIS
   @DF-RHF iter  14:  -761.22909211364345   -1.22327e-10   1.00659e-08 DIIS
   @DF-RHF iter  15:  -761.22909211364799   -4.54747e-12   4.18305e-09 DIIS

  ==> Post-Iterations <==

    Orbital Energies (a.u.)
    -----------------------

    Doubly Occupied:                                                      

       1A    -20.614248     2A    -20.610681     3A    -20.568546  
       4A    -20.559138     5A    -20.556551     6A    -11.394355  
       7A    -11.391483     8A    -11.302699     9A    -11.299078  
      10A    -11.296419    11A    -11.293597    12A    -11.270452  
      13A    -11.268599    14A    -11.244029    15A    -11.242621  
      16A     -1.473155    17A     -1.465382    18A     -1.406297  
      19A     -1.370024    20A     -1.366268    21A     -1.116175  
      22A     -1.053554    23A     -1.040073    24A     -0.984123  
      25A     -0.972407    26A     -0.892140    27A     -0.825706  
      28A     -0.807307    29A     -0.781421    30A     -0.768336  
      31A     -0.742026    32A     -0.707985    33A     -0.692785  
      34A     -0.683152    35A     -0.676077    36A     -0.669757  
      37A     -0.664020    38A     -0.651561    39A     -0.627651  
      40A     -0.587894    41A     -0.586696    42A     -0.575707  
      43A     -0.560147    44A     -0.545713    45A     -0.537133  
      46A     -0.535135    47A     -0.527099    48A     -0.514375  
      49A     -0.509847    50A     -0.502172    51A     -0.484656  
      52A     -0.479832    53A     -0.467495    54A     -0.463815  
      55A     -0.451660    56A     -0.437357    57A     -0.429746  

    Virtual:                                                              

      58A      0.052194    59A      0.054853    60A      0.061051  
      61A      0.068424    62A      0.074936    63A      0.075715  
      64A      0.089488    65A      0.095139    66A      0.098321  
      67A      0.105704    68A      0.107830    69A      0.120266  
      70A      0.122319    71A      0.126511    72A      0.135156  
      73A      0.140169    74A      0.143680    75A      0.148998  
      76A      0.159753    77A      0.162283    78A      0.163724  
      79A      0.171584    80A      0.177415    81A      0.178552  
      82A      0.182773    83A      0.184069    84A      0.199502  
      85A      0.201869    86A      0.211962    87A      0.214649  
      88A      0.218895    89A      0.222800    90A      0.235393  
      91A      0.237354    92A      0.240610    93A      0.248701  
      94A      0.255060    95A      0.256208    96A      0.265055  
      97A      0.266723    98A      0.282443    99A      0.288264  
     100A      0.294814   101A      0.303322   102A      0.313807  
     103A      0.319113   104A      0.327399   105A      0.334106  
     106A      0.336973   107A      0.340554   108A      0.348827  
     109A      0.349366   110A      0.357027   111A      0.363310  
     112A      0.368743   113A      0.376117   114A      0.379442  
     115A      0.383351   116A      0.385427   117A      0.390777  
     118A      0.393788   119A      0.399465   120A      0.402291  
     121A      0.414088   122A      0.419522   123A      0.421361  
     124A      0.434513   125A      0.438475   126A      0.440979  
     127A      0.447043   128A      0.451187   129A      0.452431  
     130A      0.464715   131A      0.474180   132A      0.485822  
     133A      0.495608   134A      0.504195   135A      0.513727  
     136A      0.517849   137A      0.523700   138A      0.537907  
     139A      0.542100   140A      0.547148   141A      0.556119  
     142A      0.566141   143A      0.589173   144A      0.610497  
     145A      0.613680   146A      0.652046   147A      0.669981  
     148A      0.689036   149A      0.731463   150A      0.745145  
     151A      0.768852   152A      0.779829   153A      0.793039  
     154A      0.796317   155A      0.804208   156A      0.835343  
     157A      0.841937   158A      0.863776   159A      0.866027  
     160A      0.875674   161A      0.891659   162A      0.899906  
     163A      0.903551   164A      0.907076   165A      0.913687  
     166A      0.923418   167A      0.931813   168A      0.934245  
     169A      0.935807   170A      0.939932   171A      0.951627  
     172A      0.957787   173A      0.961474   174A      0.971703  
     175A      0.974109   176A      0.982937   177A      0.985873  
     178A      0.992797   179A      1.007216   180A      1.020490  
     181A      1.028600   182A      1.044239   183A      1.057007  
     184A      1.070578   185A      1.076253   186A      1.089536  
     187A      1.097962   188A      1.110488   189A      1.121243  
     190A      1.131210   191A      1.132877   192A      1.180308  
     193A      1.234509   194A      1.244045   195A      1.251368  
     196A      1.270560   197A      1.279655   198A      1.293452  
     199A      1.307457   200A      1.357037   201A      1.365308  
     202A      1.384424   203A      1.408084   204A      1.429475  
     205A      1.444448   206A      1.472553   207A      1.485343  
     208A      1.495825   209A      1.510779   210A      1.512416  
     211A      1.529397   212A      1.534810   213A      1.564002  
     214A      1.575975   215A      1.582728   216A      1.596468  
     217A      1.600172   218A      1.619034   219A      1.619559  
     220A      1.637007   221A      1.645540   222A      1.657923  
     223A      1.675432   224A      1.680147   225A      1.691231  
     226A      1.700724   227A      1.707451   228A      1.730244  
     229A      1.734756   230A      1.758186   231A      1.770789  
     232A      1.786341   233A      1.814104   234A      1.826424  
     235A      1.839907   236A      1.859342   237A      1.867244  
     238A      1.871028   239A      1.880207   240A      1.898894  
     241A      1.924614   242A      1.926344   243A      1.937145  
     244A      1.950981   245A      1.956292   246A      1.979847  
     247A      1.990348   248A      2.001199   249A      2.006587  
     250A      2.009065   251A      2.019364   252A      2.027429  
     253A      2.032413   254A      2.046033   255A      2.046854  
     256A      2.060471   257A      2.072950   258A      2.079515  
     259A      2.085771   260A      2.099931   261A      2.126714  
     262A      2.135172   263A      2.142822   264A      2.158303  
     265A      2.174449   266A      2.184055   267A      2.187405  
     268A      2.212107   269A      2.221237   270A      2.236210  
     271A      2.278464   272A      2.291859   273A      2.310621  
     274A      2.322807   275A      2.335652   276A      2.353951  
     277A      2.370376   278A      2.384929   279A      2.393891  
     280A      2.399696   281A      2.416226   282A      2.422145  
     283A      2.425426   284A      2.431489   285A      2.442537  
     286A      2.456490   287A      2.488680   288A      2.504828  
     289A      2.530236   290A      2.549164   291A      2.572040  
     292A      2.604263   293A      2.618916   294A      2.637191  
     295A      2.696981   296A      2.709764   297A      2.748513  
     298A      2.759009   299A      2.773216   300A      2.784028  
     301A      2.791762   302A      2.811276   303A      2.852251  
     304A      2.862916   305A      2.866704   306A      2.880544  
     307A      2.885184   308A      2.899518   309A      2.942430  
     310A      2.962212   311A      2.982979   312A      3.005199  
     313A      3.008118   314A      3.029260   315A      3.059200  
     316A      3.102636   317A      3.127525   318A      3.195668  
     319A      3.252976   320A      3.258489   321A      3.288737  
     322A      3.308942   323A      3.362104   324A      3.375698  
     325A      3.390145   326A      3.418139   327A      3.467168  
     328A      3.505530   329A      3.556764   330A      3.585481  
     331A      3.649275   332A      3.669404   333A      3.684231  
     334A      3.776617   335A      3.787382   336A      3.809235  
     337A      3.939789   338A      3.956334   339A      4.079124  
     340A      4.091350  

    Final Occupation by Irrep:
              A 
    DOCC [    57 ]

  Energy converged.

  @DF-RHF Final Energy:  -761.22909211364799

   => Energetics <=

    Nuclear Repulsion Energy =           1125.0353595273734300
    One-Electron Energy =               -3277.4361963944447780
    Two-Electron Energy =                1391.1717447534231269
    DFT Exchange-Correlation Energy =       0.0000000000000000
    Empirical Dispersion Energy =           0.0000000000000000
    PCM Polarization Energy =               0.0000000000000000
    EFP Energy =                            0.0000000000000000
    Total Energy =                       -761.2290921136479938



Properties will be evaluated at   0.000000,   0.000000,   0.000000 Bohr

Properties computed using the SCF density matrix

  Nuclear Dipole Moment: (a.u.)
     X:    -1.2933      Y:    -1.3021      Z:    -0.2028

  Electronic Dipole Moment: (a.u.)
     X:     1.1335      Y:     1.0712      Z:     0.7431

  Dipole Moment: (a.u.)
     X:    -0.1598      Y:    -0.2308      Z:     0.5402     Total:     0.6088

  Dipole Moment: (Debye)
     X:    -0.4062      Y:    -0.5867      Z:     1.3731     Total:     1.5475


*** tstop() called on ThinkPad-P50 at Tue Dec 12 11:43:28 2017
Module time:
	user time   =     176.09 seconds =       2.93 minutes
	system time =       1.77 seconds =       0.03 minutes
	total time  =        179 seconds =       2.98 minutes
Total time:
	user time   =     176.09 seconds =       2.93 minutes
	system time =       1.77 seconds =       0.03 minutes
	total time  =        179 seconds =       2.98 minutes
   => Loading Basis Set <=

    Name: (JUN-CC-PVDZ AUX)
    Role: JKFIT
    Keyword: DF_BASIS_SCF
    atoms 1, 4, 8, 11, 17-22 entry C          line   145 file /home/junteng/Softwares/psi4conda/share/psi4/basis/jun-cc-pvdz-jkfit.gbs 
    atoms 2-3, 9-10, 23      entry O          line   257 file /home/junteng/Softwares/psi4conda/share/psi4/basis/jun-cc-pvdz-jkfit.gbs 
    atoms 5-7, 12-16, 24-29  entry H          line    69 file /home/junteng/Softwares/psi4conda/share/psi4/basis/jun-cc-pvdz-jkfit.gbs 

   => Loading Basis Set <=

    Name: (JUN-CC-PVDZ AUX)
    Role: RIFIT
    Keyword: DF_BASIS_SAPT
    atoms 1, 4, 8, 11, 17-22 entry C          line    99 file /home/junteng/Softwares/psi4conda/share/psi4/basis/jun-cc-pvdz-ri.gbs 
    atoms 2-3, 9-10, 23      entry O          line   187 file /home/junteng/Softwares/psi4conda/share/psi4/basis/jun-cc-pvdz-ri.gbs 
    atoms 5-7, 12-16, 24-29  entry H          line    29 file /home/junteng/Softwares/psi4conda/share/psi4/basis/jun-cc-pvdz-ri.gbs 

   => Loading Basis Set <=

    Name: CC-PVTZ-MINAO
    Role: ORBITAL
    Keyword: BASIS
    atoms 1, 4, 8, 11, 17-22 entry C          line   130 file /home/junteng/Softwares/psi4conda/share/psi4/basis/cc-pvtz-minao.gbs 
    atoms 2-3, 9-10, 23      entry O          line   190 file /home/junteng/Softwares/psi4conda/share/psi4/basis/cc-pvtz-minao.gbs 
    atoms 5-7, 12-16, 24-29  entry H          line    19 file /home/junteng/Softwares/psi4conda/share/psi4/basis/cc-pvtz-minao.gbs 


*** tstart() called on ThinkPad-P50
*** at Tue Dec 12 11:43:29 2017

	 --------------------------------------------
	                    FISAPT0                  
	                  Rob Parrish                
	 --------------------------------------------

    Do F-SAPT =         Yes
    Do Plot   =          No
    Memory    =      78.580 [GD]

  ==> Localization (IBO) <==

  ==> IBO Localizer 2 <==

    MinAO Basis = CC-PVTZ-MINAO
    Use Ghosts  =       FALSE
    Use Stars   =       FALSE
    Condition   =   1.000E-07
    Power       =           4
    Convergence =   1.000E-12
    Maxiter     =        1000

    @IBO Iter:                   Metric       Gradient
    @IBO    1:   1.9584402258490228E+00   2.532940E+00
    @IBO    2:   2.1960835814576445E+00   2.787651E+00
    @IBO    3:   2.2967639718214166E+00   1.111945E+00
    @IBO    4:   2.3050745151008574E+00   8.348216E-02
    @IBO    5:   2.3051165716547399E+00   1.630768E-03
    @IBO    6:   2.3051165903245145E+00   4.786129E-05
    @IBO    7:   2.3051165903482720E+00   2.310880E-06
    @IBO    8:   2.3051165903483284E+00   1.137587E-07
    @IBO    9:   2.3051165903483288E+00   5.482341E-09
    @IBO   10:   2.3051165903483293E+00   2.587022E-10
    @IBO   11:   2.3051165903483288E+00   1.209804E-11
    @IBO   12:   2.3051165903483293E+00   5.632162E-13

    IBO Localizer 2 converged.

  ==> Partitioning <==

   => Atomic Partitioning <= 

    Monomer A:   7 atoms
    Monomer B:   7 atoms
    Monomer C:  15 atoms

   => Link Bond Identification <=

    Link Bond Selection = AUTOMATIC

    Charge Completeness = 0.800

    Total Link Bonds = 2

    --------------------------
    N     Orb Type Aind1 Aind2
    --------------------------
    1      27   AC     1    18
    2      44   BC     8    17
    --------------------------

   => Link Bond Assignment <=

    Link Bond Assignment      = C

   => Partition Summary <=

    Monomer A:  0 charge,  30 protons,  30 electrons,  15 docc
    Monomer B:  0 charge,  30 protons,  30 electrons,  15 docc
    Monomer C:  0 charge,  54 protons,  54 electrons,  27 docc

  ==> Overlap Integrals <==

  ==> Kinetic Integrals <==

  ==> Nuclear Integrals <==

    Nuclear Repulsion Tot:   1.1250353595273725E+03 [Eh]

  ==> Coulomb Integrals <==

  ==> DFJK: Density-Fitted J/K Matrices <==

    J tasked:                  Yes
    K tasked:                  Yes
    wK tasked:                  No
    OpenMP threads:              1
    Integrals threads:           1
    Memory (MB):            643730
    Algorithm:                Core
    Integral Cache:           NONE
    Schwarz Cutoff:          1E-12
    Fitting Condition:       1E-12

   => Auxiliary Basis Set <=

  Basis Set: (JUN-CC-PVDZ AUX)
    Blend: JUN-CC-PVDZ-JKFIT
    Number of shells: 531
    Number of basis function: 1507
    Number of Cartesian functions: 1715
    Spherical Harmonics?: true
    Max angular momentum: 3

  ==> Relaxed SCF Equations <==

  ==> SCF A: <==

    Maxiter =          50
    E Tol   =   1.000E-06
    D Tol   =   1.000E-08

    Max DIIS Vectors = 5

    Iter   N:                        E          dE         |D|
    Iter   1:  -2.2400740924611873E+02  -2.240E+02   8.316E-04 
    Iter   2:  -2.2401909331248973E+02  -1.168E-02   5.117E-05 DIIS
    Iter   3:  -2.2401926313086412E+02  -1.698E-04   2.205E-05 DIIS
    Iter   4:  -2.2401928403469094E+02  -2.090E-05   8.114E-06 DIIS
    Iter   5:  -2.2401928765962458E+02  -3.625E-06   1.354E-06 DIIS
    Iter   6:  -2.2401928784438314E+02  -1.848E-07   5.655E-07 DIIS
    Iter   7:  -2.2401928787770950E+02  -3.333E-08   1.960E-07 DIIS
    Iter   8:  -2.2401928788241381E+02  -4.704E-09   9.368E-08 DIIS
    Iter   9:  -2.2401928788345435E+02  -1.041E-09   3.750E-08 DIIS
    Iter  10:  -2.2401928788367650E+02  -2.221E-10   1.680E-08 DIIS
    Iter  11:  -2.2401928788370904E+02  -3.254E-11   8.334E-09 DIIS

    FISAPTSCF Converged.

    Final SCF Energy:  -2.2401928788370904E+02 [Eh]

   => Occupied Orbital Energies <=

       1  -20.600339     2  -20.546737     3  -11.381611  
       4  -11.290002     5   -1.433694     6   -1.353466  
       7   -0.957427     8   -0.761115     9   -0.665923  
      10   -0.658097    11   -0.615938    12   -0.538491  
      13   -0.530995    14   -0.470212    15   -0.455402  

   => Virtual Orbital Energies <=

      16    0.028607    17    0.055862    18    0.062290  
      19    0.063882    20    0.071261    21    0.077909  
      22    0.082650    23    0.091864    24    0.094458  
      25    0.099682    26    0.105785    27    0.111206  
      28    0.118048    29    0.125513    30    0.127062  
      31    0.135714    32    0.139417    33    0.146487  
      34    0.150496    35    0.160491    36    0.163889  
      37    0.168037    38    0.168502    39    0.177136  
      40    0.181662    41    0.185269    42    0.197050  
      43    0.203325    44    0.206650    45    0.215037  
      46    0.219081    47    0.229290    48    0.233364  
      49    0.238526    50    0.241331    51    0.249062  
      52    0.251874    53    0.263681    54    0.265658  
      55    0.269820    56    0.282715    57    0.284551  
      58    0.292506    59    0.302387    60    0.307170  
      61    0.311108    62    0.321004    63    0.325874  
      64    0.333810    65    0.334593    66    0.345241  
      67    0.350903    68    0.354906    69    0.360473  
      70    0.367560    71    0.373202    72    0.375560  
      73    0.385399    74    0.393628    75    0.395445  
      76    0.403991    77    0.407263    78    0.414573  
      79    0.417047    80    0.427823    81    0.430001  
      82    0.434798    83    0.442266    84    0.447643  
      85    0.456245    86    0.459588    87    0.462595  
      88    0.474108    89    0.496107    90    0.507049  
      91    0.510339    92    0.532466    93    0.535304  
      94    0.536742    95    0.551901    96    0.554472  
      97    0.559390    98    0.567707    99    0.574748  
     100    0.591331   101    0.610332   102    0.618105  
     103    0.636453   104    0.641199   105    0.655682  
     106    0.661756   107    0.688546   108    0.694930  
     109    0.739388   110    0.756800   111    0.771946  
     112    0.789877   113    0.803927   114    0.825686  
     115    0.845163   116    0.851759   117    0.875517  
     118    0.881252   119    0.894073   120    0.902527  
     121    0.919704   122    0.926630   123    0.932649  
     124    0.939640   125    0.945324   126    0.951524  
     127    0.959059   128    0.967582   129    0.973274  
     130    0.981432   131    0.992270   132    0.995701  
     133    1.007858   134    1.014321   135    1.015291  
     136    1.029806   137    1.033443   138    1.043891  
     139    1.055624   140    1.064865   141    1.090235  
     142    1.101362   143    1.111299   144    1.122534  
     145    1.126164   146    1.136558   147    1.141292  
     148    1.170980   149    1.201125   150    1.216643  
     151    1.243659   152    1.266662   153    1.296245  
     154    1.312956   155    1.339579   156    1.352583  
     157    1.357204   158    1.388901   159    1.420744  
     160    1.461581   161    1.466919   162    1.492067  
     163    1.508519   164    1.515669   165    1.550904  
     166    1.552587   167    1.575024   168    1.576346  
     169    1.598280   170    1.607492   171    1.614132  
     172    1.633749   173    1.650185   174    1.654501  
     175    1.671056   176    1.682895   177    1.695051  
     178    1.710654   179    1.718538   180    1.746626  
     181    1.758781   182    1.784074   183    1.793445  
     184    1.803585   185    1.809079   186    1.828007  
     187    1.842689   188    1.857260   189    1.863530  
     190    1.870687   191    1.905875   192    1.922460  
     193    1.925247   194    1.946506   195    1.956417  
     196    1.965771   197    1.979665   198    1.989509  
     199    2.013648   200    2.017762   201    2.022956  
     202    2.033312   203    2.046620   204    2.050933  
     205    2.072656   206    2.087657   207    2.091236  
     208    2.102071   209    2.111996   210    2.113141  
     211    2.129450   212    2.138726   213    2.138954  
     214    2.160145   215    2.174072   216    2.179896  
     217    2.190408   218    2.195481   219    2.211410  
     220    2.239743   221    2.265982   222    2.271139  
     223    2.283909   224    2.301473   225    2.313665  
     226    2.324966   227    2.340435   228    2.350156  
     229    2.357254   230    2.368880   231    2.398044  
     232    2.404528   233    2.412014   234    2.431399  
     235    2.440449   236    2.454132   237    2.463160  
     238    2.469419   239    2.498810   240    2.513030  
     241    2.515876   242    2.546283   243    2.583792  
     244    2.599298   245    2.624672   246    2.629848  
     247    2.647770   248    2.656238   249    2.699131  
     250    2.713085   251    2.720952   252    2.766600  
     253    2.771373   254    2.778124   255    2.799410  
     256    2.807187   257    2.841429   258    2.868704  
     259    2.872880   260    2.877171   261    2.891091  
     262    2.897520   263    2.924724   264    2.964878  
     265    2.981595   266    3.000887   267    3.013973  
     268    3.022135   269    3.047587   270    3.055845  
     271    3.072761   272    3.137449   273    3.227387  
     274    3.268979   275    3.298401   276    3.322418  
     277    3.391943   278    3.415490   279    3.437169  
     280    3.523211   281    3.574866   282    3.607829  
     283    3.633976   284    3.672843   285    3.697699  
     286    3.769574   287    3.811999   288    3.829172  
     289    3.947553   290    3.959059   291    4.090975  
     292    4.130359   293    4.196045   294    4.431231  
     295    4.509894   296    4.541667   297    4.754837  
     298    4.932094   299    5.038911   300    5.068025  
     301    5.201944   302    5.321481   303    5.513866  
     304    5.625650   305    5.731956   306    5.833281  
     307    6.083218   308    6.336987   309    6.700351  
     310   13.377764   311   18.424165   312   33.421887  
     313   33.471658  

  ==> SCF B: <==

    Maxiter =          50
    E Tol   =   1.000E-06
    D Tol   =   1.000E-08

    Max DIIS Vectors = 5

    Iter   N:                        E          dE         |D|
    Iter   1:  -2.2411969284652113E+02  -2.241E+02   7.776E-04 
    Iter   2:  -2.2413008802964526E+02  -1.040E-02   4.848E-05 DIIS
    Iter   3:  -2.2413023449137330E+02  -1.465E-04   2.156E-05 DIIS
    Iter   4:  -2.2413025356351278E+02  -1.907E-05   7.372E-06 DIIS
    Iter   5:  -2.2413025649507878E+02  -2.932E-06   1.239E-06 DIIS
    Iter   6:  -2.2413025663201535E+02  -1.369E-07   4.902E-07 DIIS
    Iter   7:  -2.2413025665419894E+02  -2.218E-08   1.609E-07 DIIS
    Iter   8:  -2.2413025665697086E+02  -2.772E-09   7.763E-08 DIIS
    Iter   9:  -2.2413025665760935E+02  -6.385E-10   2.914E-08 DIIS
    Iter  10:  -2.2413025665774299E+02  -1.336E-10   1.390E-08 DIIS
    Iter  11:  -2.2413025665776379E+02  -2.080E-11   6.731E-09 DIIS

    FISAPTSCF Converged.

    Final SCF Energy:  -2.2413025665776379E+02 [Eh]

   => Occupied Orbital Energies <=

       1  -20.603922     2  -20.550007     3  -11.384809  
       4  -11.293119     5   -1.436211     6   -1.358094  
       7   -0.959670     8   -0.764136     9   -0.669146  
      10   -0.660991    11   -0.619597    12   -0.541300  
      13   -0.535279    14   -0.474285    15   -0.459617  

   => Virtual Orbital Energies <=

      16    0.030240    17    0.055615    18    0.060444  
      19    0.066380    20    0.071138    21    0.077948  
      22    0.083145    23    0.091641    24    0.097499  
      25    0.103509    26    0.104416    27    0.109097  
      28    0.115984    29    0.123016    30    0.125254  
      31    0.136977    32    0.140876    33    0.146349  
      34    0.152667    35    0.159572    36    0.166920  
      37    0.168740    38    0.174718    39    0.180633  
      40    0.185738    41    0.188298    42    0.194603  
      43    0.203898    44    0.210126    45    0.214513  
      46    0.217199    47    0.229676    48    0.235495  
      49    0.240221    50    0.248330    51    0.249308  
      52    0.251782    53    0.258176    54    0.268413  
      55    0.273524    56    0.279621    57    0.288285  
      58    0.292114    59    0.299741    60    0.306307  
      61    0.309542    62    0.319253    63    0.328290  
      64    0.335145    65    0.335549    66    0.345086  
      67    0.353994    68    0.356252    69    0.365017  
      70    0.370750    71    0.378291    72    0.381738  
      73    0.386820    74    0.390725    75    0.395954  
      76    0.397172    77    0.407902    78    0.410268  
      79    0.415332    80    0.420344    81    0.428296  
      82    0.439759    83    0.440936    84    0.444819  
      85    0.458237    86    0.463289    87    0.474332  
      88    0.479464    89    0.492233    90    0.505987  
      91    0.509211    92    0.518704    93    0.520712  
      94    0.537280    95    0.547512    96    0.555669  
      97    0.569978    98    0.575327    99    0.584883  
     100    0.599198   101    0.611807   102    0.619278  
     103    0.626976   104    0.638612   105    0.647585  
     106    0.676068   107    0.682939   108    0.710260  
     109    0.757831   110    0.767951   111    0.786784  
     112    0.799728   113    0.813082   114    0.834799  
     115    0.836981   116    0.853885   117    0.859569  
     118    0.868335   119    0.891784   120    0.903276  
     121    0.906021   122    0.920699   123    0.930721  
     124    0.935316   125    0.951261   126    0.956441  
     127    0.960136   128    0.971923   129    0.972714  
     130    0.977046   131    1.000622   132    1.002639  
     133    1.004322   134    1.012471   135    1.025731  
     136    1.027440   137    1.049085   138    1.052168  
     139    1.061781   140    1.071639   141    1.080380  
     142    1.095852   143    1.110950   144    1.122518  
     145    1.128868   146    1.133685   147    1.152395  
     148    1.162692   149    1.166612   150    1.214862  
     151    1.242622   152    1.265350   153    1.274394  
     154    1.295200   155    1.348819   156    1.375393  
     157    1.395120   158    1.408305   159    1.418353  
     160    1.469007   161    1.487128   162    1.505207  
     163    1.523496   164    1.526765   165    1.545247  
     166    1.546976   167    1.558012   168    1.574856  
     169    1.583284   170    1.607281   171    1.617976  
     172    1.634459   173    1.648400   174    1.653858  
     175    1.660924   176    1.682633   177    1.685436  
     178    1.699055   179    1.707916   180    1.740707  
     181    1.754537   182    1.780888   183    1.794043  
     184    1.813085   185    1.833484   186    1.838026  
     187    1.845455   188    1.859495   189    1.860888  
     190    1.870097   191    1.899124   192    1.917969  
     193    1.930588   194    1.936301   195    1.954511  
     196    1.964851   197    1.974032   198    1.983993  
     199    1.995959   200    2.005806   201    2.021014  
     202    2.033763   203    2.041729   204    2.052354  
     205    2.064345   206    2.073528   207    2.078959  
     208    2.095940   209    2.110081   210    2.124425  
     211    2.131948   212    2.141463   213    2.144099  
     214    2.162030   215    2.167900   216    2.189286  
     217    2.195774   218    2.205874   219    2.222017  
     220    2.239673   221    2.245430   222    2.271306  
     223    2.288297   224    2.300863   225    2.314145  
     226    2.334813   227    2.351017   228    2.366861  
     229    2.374500   230    2.380580   231    2.400106  
     232    2.410416   233    2.415790   234    2.422622  
     235    2.433799   236    2.445469   237    2.467663  
     238    2.481030   239    2.487093   240    2.532094  
     241    2.545369   242    2.572242   243    2.589774  
     244    2.601893   245    2.628031   246    2.641661  
     247    2.662994   248    2.669956   249    2.686447  
     250    2.712310   251    2.714726   252    2.754832  
     253    2.767096   254    2.783737   255    2.801513  
     256    2.811039   257    2.836768   258    2.857853  
     259    2.872283   260    2.882506   261    2.886737  
     262    2.907790   263    2.917229   264    2.940006  
     265    2.973261   266    2.998492   267    3.015578  
     268    3.028497   269    3.058109   270    3.064147  
     271    3.087844   272    3.122647   273    3.213449  
     274    3.265418   275    3.300918   276    3.341915  
     277    3.395014   278    3.407141   279    3.421151  
     280    3.520292   281    3.556376   282    3.583745  
     283    3.643217   284    3.674269   285    3.708274  
     286    3.784526   287    3.810567   288    3.844529  
     289    3.960761   290    3.971075   291    4.097528  
     292    4.129285   293    4.197292   294    4.439196  
     295    4.515817   296    4.548327   297    4.757826  
     298    4.932186   299    5.041190   300    5.068865  
     301    5.201964   302    5.332854   303    5.515420  
     304    5.627514   305    5.748025   306    5.826792  
     307    6.146936   308    6.352832   309    6.697345  
     310   13.364352   311   18.428738   312   33.419953  
     313   33.480611  

  ==> Frozen Core <==


    ------------------
    Range      A     B
    ------------------
    nbf      340   340
    nmo      313   313
    nocc      15    15
    nvir     298   298
    nfocc      4     4
    naocc     11    11
    navir    298   298
    nfvir      0     0
    ------------------

  ==> Unification <==

  ==> dHF <==

    E ABC(HF) =  -7.6122909211364799E+02 [Eh]
    E AC(0)   =  -5.3319989582903747E+02 [Eh]
    E BC(0)   =  -5.3319567373802533E+02 [Eh]
    E A(0)    =  -2.1266554820261246E+02 [Eh]
    E B(0)    =  -2.1266881135974256E+02 [Eh]
    E AC(HF)  =  -5.3318801719144665E+02 [Eh]
    E BC(HF)  =  -5.3318510992678307E+02 [Eh]
    E AB(HF)  =  -4.2530053770140034E+02 [Eh]
    E A(HF)   =  -2.1264492402065798E+02 [Eh]
    E B(HF)   =  -2.1264945849217514E+02 [Eh]
    E C       =  -3.0515019019313985E+02 [Eh]
    E HF      =   1.6287260274964410E-02 [Eh]

  ==> Electrostatics <==

    Elst10,r            =     0.012145645939 [Eh]

  ==> Exchange <==

    Exch10(S^2)         =     0.006235022891 [Eh]
    Exch10              =     0.006248404667 [Eh]

  ==> Induction <==

    Ind20,u (A<-B)      =    -0.001521393620 [Eh]
    Ind20,u (B<-A)      =    -0.001425482211 [Eh]
    Ind20,u             =    -0.002946875831 [Eh]
    Exch-Ind20,u (A<-B) =     0.000744852639 [Eh]
    Exch-Ind20,u (B<-A) =     0.000689639150 [Eh]
    Exch-Ind20,u        =     0.001434491789 [Eh]

  ==> CPHF Iterations <==

    Maxiter     =          50
    Convergence =   1.000E-08

    -----------------------------------------
    Iter   Monomer A    Monomer B    Time [s]
    -----------------------------------------
    1      2.195E-01    2.095E-01          18
    2      8.394E-02    7.782E-02          34
    3      2.175E-02    2.032E-02          47
    4      8.218E-03    7.966E-03          59
    5      2.301E-03    2.144E-03          71
    6      8.642E-04    7.593E-04          85
    7      2.565E-04    2.098E-04          99
    8      1.239E-04    8.657E-05         118
    9      3.561E-05    2.576E-05         133
    10     1.127E-05    9.115E-06         147
    11     2.827E-06    2.597E-06         163
    12     5.199E-07    5.657E-07         180
    13     1.421E-07    1.648E-07         198
    14     4.207E-08    4.631E-08         210
    15     8.463E-09*   8.814E-09*        220
    -----------------------------------------

    Ind20,r (A<-B)      =    -0.001772228141 [Eh]
    Ind20,r (B<-A)      =    -0.001628906800 [Eh]
    Ind20,r             =    -0.003401134941 [Eh]
    Exch-Ind20,r (A<-B) =     0.000936387544 [Eh]
    Exch-Ind20,r (B<-A) =     0.000836992888 [Eh]
    Exch-Ind20,r        =     0.001773380432 [Eh]

  ==> F-SAPT Localization (IBO) <==

  Local Orbitals for Monomer A:

  ==> IBO Localizer 2 <==

    MinAO Basis = CC-PVTZ-MINAO
    Use Ghosts  =       FALSE
    Use Stars   =       FALSE
    Condition   =   1.000E-07
    Power       =           4
    Convergence =   1.000E-12
    Maxiter     =        1000

    @IBO Iter:                   Metric       Gradient
    @IBO    1:   1.4804737825383301E+00   1.679782E+00
    @IBO    2:   1.6784138270071325E+00   9.432936E-01
    @IBO    3:   1.7096759155618557E+00   2.910296E-01
    @IBO    4:   1.7107167978686606E+00   2.312635E-03
    @IBO    5:   1.7107169565327547E+00   8.233286E-05
    @IBO    6:   1.7107169566159708E+00   1.391938E-06
    @IBO    7:   1.7107169566160052E+00   4.183025E-08
    @IBO    8:   1.7107169566160050E+00   9.066049E-10
    @IBO    9:   1.7107169566160050E+00   2.003846E-11
    @IBO   10:   1.7107169566160050E+00   4.743928E-13

    IBO Localizer 2 converged.

  Local Orbitals for Monomer B:

  ==> IBO Localizer 2 <==

    MinAO Basis = CC-PVTZ-MINAO
    Use Ghosts  =       FALSE
    Use Stars   =       FALSE
    Condition   =   1.000E-07
    Power       =           4
    Convergence =   1.000E-12
    Maxiter     =        1000

    @IBO Iter:                   Metric       Gradient
    @IBO    1:   1.4798432664342045E+00   1.680492E+00
    @IBO    2:   1.6787279844579568E+00   9.440511E-01
    @IBO    3:   1.7098536307723449E+00   2.966988E-01
    @IBO    4:   1.7109425314407889E+00   2.541136E-03
    @IBO    5:   1.7109427032138309E+00   8.374606E-05
    @IBO    6:   1.7109427033172264E+00   1.946823E-06
    @IBO    7:   1.7109427033173108E+00   7.133536E-08
    @IBO    8:   1.7109427033173110E+00   2.448743E-09
    @IBO    9:   1.7109427033173110E+00   9.267212E-11
    @IBO   10:   1.7109427033173110E+00   3.677338E-12
    @IBO   11:   1.7109427033173110E+00   1.488558E-13

    IBO Localizer 2 converged.

  ==> F-SAPT Electrostatics <==

  ==> DFERI: Density Fitted 3-Index Tensors <==

    Schwarz cutoff =   0.000E+00
    J cutoff       =   1.000E-12
    Mem (GB)       =         628

   => Auxiliary Basis <=

  Basis Set: (JUN-CC-PVDZ AUX)
    Blend: JUN-CC-PVDZ-JKFIT
    Number of shells: 531
    Number of basis function: 1507
    Number of Cartesian functions: 1715
    Spherical Harmonics?: true
    Max angular momentum: 3

    Elst10,r            =     0.012145646524 [Eh]

  ==> F-SAPT Exchange <==

  ==> DFERI: Density Fitted 3-Index Tensors <==

    Schwarz cutoff =   0.000E+00
    J cutoff       =   1.000E-12
    Mem (GB)       =         628

   => Auxiliary Basis <=

  Basis Set: (JUN-CC-PVDZ AUX)
    Blend: JUN-CC-PVDZ-JKFIT
    Number of shells: 531
    Number of basis function: 1507
    Number of Cartesian functions: 1715
    Spherical Harmonics?: true
    Max angular momentum: 3

    Exch10(S^2)         =     0.006235022891 [Eh]

    Scaling F-SAPT Exch10(S^2) by   1.002E+00 to match Exch10

  ==> F-SAPT Induction <==

  ==> DFERI: Density Fitted 3-Index Tensors <==

    Schwarz cutoff =   0.000E+00
    J cutoff       =   1.000E-12
    Mem (GB)       =         628

   => Auxiliary Basis <=

  Basis Set: (JUN-CC-PVDZ AUX)
    Blend: JUN-CC-PVDZ-JKFIT
    Number of shells: 531
    Number of basis function: 1507
    Number of Cartesian functions: 1715
    Spherical Harmonics?: true
    Max angular momentum: 3

    Ind20,u (A<-B)      =    -0.001521393620 [Eh]
    Ind20,u (B<-A)      =    -0.001425482210 [Eh]
    Ind20,u             =    -0.002946875830 [Eh]
    Exch-Ind20,u (A<-B) =     0.000744852640 [Eh]
    Exch-Ind20,u (B<-A) =     0.000689639150 [Eh]
    Exch-Ind20,u        =     0.001434491790 [Eh]

    Scaling for delta HF        =   1.294E+00
    Scaling for response (A<-B) =   1.076E+00
    Scaling for response (B<-A) =   1.076E+00
    Scaling for total (A<-B)    =   1.393E+00
    Scaling for total (B<-A)    =   1.393E+00

  ==> F-SAPT Dispersion <==

  ==> DFERI: Density Fitted 3-Index Tensors <==

    Schwarz cutoff =   0.000E+00
    J cutoff       =   1.000E-12
    Mem (GB)       =         628

   => Auxiliary Basis <=

  Basis Set: (JUN-CC-PVDZ AUX)
    Blend: JUN-CC-PVDZ-RI
    Number of shells: 399
    Number of basis function: 1171
    Number of Cartesian functions: 1350
    Spherical Harmonics?: true
    Max angular momentum: 3

    Disp20              =    -0.004818056635 [Eh]
    Exch-Disp20         =     0.000474380334 [Eh]

  ==> F-SAPT Output <==

    F-SAPT Data Filepath = fsapt/

  ==> Results <==


    SAPT Results  
  --------------------------------------------------------------------------------------------------------
    Electrostatics                 12.14564594 [mEh]       7.62150821 [kcal/mol]      31.88839341 [kJ/mol]
      Elst10,r                     12.14564594 [mEh]       7.62150821 [kcal/mol]      31.88839341 [kJ/mol]

    Exchange                        6.24840467 [mEh]       3.92093329 [kcal/mol]      16.40518645 [kJ/mol]
      Exch10                        6.24840467 [mEh]       3.92093329 [kcal/mol]      16.40518645 [kJ/mol]
      Exch10(S^2)                   6.23502289 [mEh]       3.91253610 [kcal/mol]      16.37005260 [kJ/mol]

    Induction                      -2.10679033 [mEh]      -1.32203095 [kcal/mol]      -5.53137801 [kJ/mol]
      Ind20,r                      -3.40113494 [mEh]      -2.13424449 [kcal/mol]      -8.92967979 [kJ/mol]
      Exch-Ind20,r                  1.77338043 [mEh]       1.11281307 [kcal/mol]       4.65601032 [kJ/mol]
      delta HF,r (2)               -0.47903582 [mEh]      -0.30059953 [kcal/mol]      -1.25770855 [kJ/mol]
      Induction (A<-B)             -1.08182215 [mEh]      -0.67885368 [kcal/mol]      -2.84032406 [kJ/mol]
      Induction (B<-A)             -1.02496818 [mEh]      -0.64317727 [kcal/mol]      -2.69105395 [kJ/mol]

    Dispersion                     -4.34367630 [mEh]      -2.72569814 [kcal/mol]     -11.40432213 [kJ/mol]
      Disp20                       -4.81805664 [mEh]      -3.02337631 [kcal/mol]     -12.64980770 [kJ/mol]
      Exch-Disp20                   0.47438033 [mEh]       0.29767817 [kcal/mol]       1.24548557 [kJ/mol]

  Total HF                         16.28726027 [mEh]      10.22041055 [kcal/mol]      42.76220185 [kJ/mol]
  Total SAPT0                      11.94358397 [mEh]       7.49471241 [kcal/mol]      31.35787972 [kJ/mol]

  --------------------------------------------------------------------------------------------------------
    Han Solo: This is *not* gonna work.
    Luke Skywalker: Why didn't you say so before?
    Han Solo: I *did* say so before.

*** tstop() called on ThinkPad-P50 at Tue Dec 12 11:53:19 2017
Module time:
	user time   =     584.00 seconds =       9.73 minutes
	system time =       5.08 seconds =       0.08 minutes
	total time  =        590 seconds =       9.83 minutes
Total time:
	user time   =     761.41 seconds =      12.69 minutes
	system time =       6.85 seconds =       0.11 minutes
	total time  =        770 seconds =      12.83 minutes

*** Psi4 exiting successfully. Buy a developer a beer!
