
    -----------------------------------------------------------------------
          Psi4: An Open-Source Ab Initio Electronic Structure Package
                               Psi4 1.1 release

                         Git: Rev {HEAD} add49b9 


    R. M. Parrish, L. A. Burns, D. G. A. Smith, A. C. Simmonett,
    A. E. DePrince III, E. G. Hohenstein, U. Bozkaya, A. Yu. Sokolov,
    R. Di Remigio, R. M. Richard, J. F. Gonthier, A. M. James,
    H. R. McAlexander, A. Kumar, M. Saitow, X. Wang, B. P. Pritchard,
    P. Verma, H. F. Schaefer III, K. Patkowski, R. A. King, E. F. Valeev,
    F. A. Evangelista, J. M. Turney, T. D. Crawford, and C. D. Sherrill,
    J. Chem. Theory Comput. in press (2017).
    (doi: 10.1021/acs.jctc.7b00174)

    -----------------------------------------------------------------------


    Psi4 started on: Monday, 15 January 2018 05:31PM

    Process ID:  17345
    PSIDATADIR: /home/junteng/Softwares/psi4conda/share/psi4
    Memory:     500.0 MiB
    Threads:    4
    
  ==> Input File <==

--------------------------------------------------------------------------
memory 750000 mb

molecule mol {
0 1
C          0.65312        1.31083        0.65979
O          1.52273        1.42022        1.49230
O          0.69098        1.90849       -0.54041
C          1.87001        2.67964       -0.83342
H          1.70675        3.08598       -1.82858
H          1.99619        3.47928       -0.10201
H          2.75270        2.03852       -0.82266
--
C          0.85315       -1.34062       -0.31404
O          1.11178       -1.31605       -1.49088
O          1.74253       -1.66853        0.64539
C          3.09362       -1.90678        0.21151
H          3.50713       -1.00523       -0.24310
H          3.64534       -2.16405        1.11256
H          3.12593       -2.72434       -0.51011
--
0 1
H         -1.90786        2.02393       -0.08380
H         -1.54125       -1.75233       -1.50154
C         -0.60035        0.47426        0.85851
C         -0.48606       -1.01348        0.31841
C         -1.85182        0.95006        0.07354
C         -3.11136        0.28891        0.68114
C         -2.99163       -1.15997        0.11439
C         -1.67126       -1.05443       -0.67876
O         -1.71913        0.28398       -1.18646
H         -0.76766        0.45957        1.93518
H         -0.62552       -1.70465        1.15038
H         -4.01126        0.78586        0.31671
H         -3.12202        0.32543        1.77229
H         -3.81630       -1.39155       -0.56087
H         -2.96286       -1.92707        0.89127

symmetry c1
no_reorient
no_com
}

set {
basis jun-cc-pvdz
scf_type df
guess sad
freeze_core true
}

energy('fisapt0')
--------------------------------------------------------------------------

  Memory set to 698.492 GiB by Python driver.

*** tstart() called on ThinkPad-P50
*** at Mon Jan 15 17:31:44 2018

   => Loading Basis Set <=

    Name: JUN-CC-PVDZ
    Role: ORBITAL
    Keyword: BASIS
    atoms 1, 4, 8, 11, 17-22 entry C          line   157 file /home/junteng/Softwares/psi4conda/share/psi4/basis/jun-cc-pvdz.gbs 
    atoms 2-3, 9-10, 23      entry O          line   225 file /home/junteng/Softwares/psi4conda/share/psi4/basis/jun-cc-pvdz.gbs 
    atoms 5-7, 12-16, 24-29  entry H          line    35 file /home/junteng/Softwares/psi4conda/share/psi4/basis/jun-cc-pvdz.gbs 


         ---------------------------------------------------------
                                   SCF
            by Justin Turney, Rob Parrish, and Andy Simmonett
                              RHF Reference
                        4 Threads, 715255 MiB Core
         ---------------------------------------------------------

  ==> Geometry <==

    Molecular point group: c1
    Full point group: C1

    Geometry (in Angstrom), charge = 0, multiplicity = 1:

       Center              X                  Y                   Z               Mass       
    ------------   -----------------  -----------------  -----------------  -----------------
           C          0.653120000000     1.310830000000     0.659790000000    12.000000000000
           O          1.522730000000     1.420220000000     1.492300000000    15.994914619560
           O          0.690980000000     1.908490000000    -0.540410000000    15.994914619560
           C          1.870010000000     2.679640000000    -0.833420000000    12.000000000000
           H          1.706750000000     3.085980000000    -1.828580000000     1.007825032070
           H          1.996190000000     3.479280000000    -0.102010000000     1.007825032070
           H          2.752700000000     2.038520000000    -0.822660000000     1.007825032070
           C          0.853150000000    -1.340620000000    -0.314040000000    12.000000000000
           O          1.111780000000    -1.316050000000    -1.490880000000    15.994914619560
           O          1.742530000000    -1.668530000000     0.645390000000    15.994914619560
           C          3.093620000000    -1.906780000000     0.211510000000    12.000000000000
           H          3.507130000000    -1.005230000000    -0.243100000000     1.007825032070
           H          3.645340000000    -2.164050000000     1.112560000000     1.007825032070
           H          3.125930000000    -2.724340000000    -0.510110000000     1.007825032070
           H         -1.907860000000     2.023930000000    -0.083800000000     1.007825032070
           H         -1.541250000000    -1.752330000000    -1.501540000000     1.007825032070
           C         -0.600350000000     0.474260000000     0.858510000000    12.000000000000
           C         -0.486060000000    -1.013480000000     0.318410000000    12.000000000000
           C         -1.851820000000     0.950060000000     0.073540000000    12.000000000000
           C         -3.111360000000     0.288910000000     0.681140000000    12.000000000000
           C         -2.991630000000    -1.159970000000     0.114390000000    12.000000000000
           C         -1.671260000000    -1.054430000000    -0.678760000000    12.000000000000
           O         -1.719130000000     0.283980000000    -1.186460000000    15.994914619560
           H         -0.767660000000     0.459570000000     1.935180000000     1.007825032070
           H         -0.625520000000    -1.704650000000     1.150380000000     1.007825032070
           H         -4.011260000000     0.785860000000     0.316710000000     1.007825032070
           H         -3.122020000000     0.325430000000     1.772290000000     1.007825032070
           H         -3.816300000000    -1.391550000000    -0.560870000000     1.007825032070
           H         -2.962860000000    -1.927070000000     0.891270000000     1.007825032070

  Running in c1 symmetry.

  Rotational constants: A =      0.02776  B =      0.01870  C =      0.01414 [cm^-1]
  Rotational constants: A =    832.17227  B =    560.50135  C =    423.83488 [MHz]
  Nuclear repulsion = 1118.491869215628640

  Charge       = 0
  Multiplicity = 1
  Electrons    = 114
  Nalpha       = 57
  Nbeta        = 57

  ==> Algorithm <==

  SCF Algorithm Type is DF.
  DIIS enabled.
  MOM disabled.
  Fractional occupation disabled.
  Guess Type is SAD.
  Energy threshold   = 1.00e-08
  Density threshold  = 1.00e-08
  Integral threshold = 0.00e+00

  ==> Primary Basis <==

  Basis Set: JUN-CC-PVDZ
    Blend: JUN-CC-PVDZ
    Number of shells: 162
    Number of basis function: 340
    Number of Cartesian functions: 355
    Spherical Harmonics?: true
    Max angular momentum: 2

   => Loading Basis Set <=

    Name: (JUN-CC-PVDZ AUX)
    Role: JKFIT
    Keyword: DF_BASIS_SCF
    atoms 1, 4, 8, 11, 17-22 entry C          line   145 file /home/junteng/Softwares/psi4conda/share/psi4/basis/jun-cc-pvdz-jkfit.gbs 
    atoms 2-3, 9-10, 23      entry O          line   257 file /home/junteng/Softwares/psi4conda/share/psi4/basis/jun-cc-pvdz-jkfit.gbs 
    atoms 5-7, 12-16, 24-29  entry H          line    69 file /home/junteng/Softwares/psi4conda/share/psi4/basis/jun-cc-pvdz-jkfit.gbs 

  ==> Pre-Iterations <==

   -------------------------------------------------------
    Irrep   Nso     Nmo     Nalpha   Nbeta   Ndocc  Nsocc
   -------------------------------------------------------
     A        340     340       0       0       0       0
   -------------------------------------------------------
    Total     340     340      57      57      57       0
   -------------------------------------------------------

  ==> Integral Setup <==

  ==> DFJK: Density-Fitted J/K Matrices <==

    J tasked:                  Yes
    K tasked:                  Yes
    wK tasked:                  No
    OpenMP threads:              4
    Integrals threads:           4
    Memory (MB):            536441
    Algorithm:                Core
    Integral Cache:           NONE
    Schwarz Cutoff:          1E-12
    Fitting Condition:       1E-12

   => Auxiliary Basis Set <=

  Basis Set: (JUN-CC-PVDZ AUX)
    Blend: JUN-CC-PVDZ-JKFIT
    Number of shells: 531
    Number of basis function: 1507
    Number of Cartesian functions: 1715
    Spherical Harmonics?: true
    Max angular momentum: 3

  Minimum eigenvalue in the overlap matrix is 1.2472357963E-05.
  Using Symmetric Orthogonalization.

  SCF Guess: Superposition of Atomic Densities via on-the-fly atomic UHF.

  ==> Iterations <==

                           Total Energy        Delta E     RMS |[F,P]|

   @DF-RHF iter   0:  -766.97395868572175   -7.66974e+02   4.14164e-02 
   @DF-RHF iter   1:  -760.74905622517497    6.22490e+00   4.73041e-03 
   @DF-RHF iter   2:  -761.12609806399087   -3.77042e-01   2.53431e-03 DIIS
   @DF-RHF iter   3:  -761.20405273710469   -7.79547e-02   8.62268e-04 DIIS
   @DF-RHF iter   4:  -761.22146974613247   -1.74170e-02   2.83249e-04 DIIS
   @DF-RHF iter   5:  -761.22362069275516   -2.15095e-03   1.21353e-04 DIIS
   @DF-RHF iter   6:  -761.22421935109537   -5.98658e-04   5.31887e-05 DIIS
   @DF-RHF iter   7:  -761.22437325279805   -1.53902e-04   2.14012e-05 DIIS
   @DF-RHF iter   8:  -761.22439735103967   -2.40982e-05   7.90170e-06 DIIS
   @DF-RHF iter   9:  -761.22440106856106   -3.71752e-06   2.91337e-06 DIIS
   @DF-RHF iter  10:  -761.22440149648605   -4.27925e-07   1.37016e-06 DIIS
   @DF-RHF iter  11:  -761.22440156505536   -6.85693e-08   5.04637e-07 DIIS
   @DF-RHF iter  12:  -761.22440157575807   -1.07027e-08   1.96279e-07 DIIS
   @DF-RHF iter  13:  -761.22440157719404   -1.43598e-09   6.53313e-08 DIIS
   @DF-RHF iter  14:  -761.22440157737981   -1.85764e-10   2.66123e-08 DIIS
   @DF-RHF iter  15:  -761.22440157740573   -2.59206e-11   8.92625e-09 DIIS

  ==> Post-Iterations <==

    Orbital Energies (a.u.)
    -----------------------

    Doubly Occupied:                                                      

       1A    -20.610536     2A    -20.609817     3A    -20.565592  
       4A    -20.558937     5A    -20.556512     6A    -11.391502  
       7A    -11.391097     8A    -11.297683     9A    -11.294685  
      10A    -11.294424    11A    -11.293847    12A    -11.270771  
      13A    -11.270202    14A    -11.242947    15A    -11.241972  
      16A     -1.470072    17A     -1.465545    18A     -1.404034  
      19A     -1.367836    20A     -1.365226    21A     -1.114747  
      22A     -1.051745    23A     -1.040185    24A     -0.982714  
      25A     -0.968817    26A     -0.888329    27A     -0.827405  
      28A     -0.806006    29A     -0.779988    30A     -0.763300  
      31A     -0.739142    32A     -0.706650    33A     -0.688098  
      34A     -0.681583    35A     -0.672751    36A     -0.670534  
      37A     -0.660346    38A     -0.656321    39A     -0.626917  
      40A     -0.585944    41A     -0.584230    42A     -0.573989  
      43A     -0.556660    44A     -0.545963    45A     -0.532890  
      46A     -0.530708    47A     -0.524864    48A     -0.513268  
      49A     -0.504312    50A     -0.502739    51A     -0.485230  
      52A     -0.480585    53A     -0.468094    54A     -0.456099  
      55A     -0.452152    56A     -0.433983    57A     -0.429008  

    Virtual:                                                              

      58A      0.055028    59A      0.056420    60A      0.059094  
      61A      0.067829    62A      0.074710    63A      0.076663  
      64A      0.088018    65A      0.092255    66A      0.102065  
      67A      0.104037    68A      0.109062    69A      0.117392  
      70A      0.123043    71A      0.124647    72A      0.133004  
      73A      0.139492    74A      0.142285    75A      0.145746  
      76A      0.161997    77A      0.162355    78A      0.164455  
      79A      0.167808    80A      0.172447    81A      0.178271  
      82A      0.180748    83A      0.183129    84A      0.200145  
      85A      0.205552    86A      0.214157    87A      0.219395  
      88A      0.221649    89A      0.226022    90A      0.234445  
      91A      0.237541    92A      0.240729    93A      0.247808  
      94A      0.255247    95A      0.258800    96A      0.262409  
      97A      0.267442    98A      0.278143    99A      0.292515  
     100A      0.299805   101A      0.305797   102A      0.314699  
     103A      0.317879   104A      0.323647   105A      0.326377  
     106A      0.336983   107A      0.340784   108A      0.345778  
     109A      0.350577   110A      0.356230   111A      0.367030  
     112A      0.367890   113A      0.374019   114A      0.384373  
     115A      0.388482   116A      0.389156   117A      0.395604  
     118A      0.399823   119A      0.409826   120A      0.410310  
     121A      0.419810   122A      0.422950   123A      0.428690  
     124A      0.433563   125A      0.437466   126A      0.443623  
     127A      0.445999   128A      0.453787   129A      0.456628  
     130A      0.466952   131A      0.479574   132A      0.487381  
     133A      0.493920   134A      0.501833   135A      0.513331  
     136A      0.517506   137A      0.522023   138A      0.536205  
     139A      0.539199   140A      0.548017   141A      0.559572  
     142A      0.569019   143A      0.586216   144A      0.601759  
     145A      0.615141   146A      0.639898   147A      0.667593  
     148A      0.707474   149A      0.712646   150A      0.741294  
     151A      0.760260   152A      0.783119   153A      0.789424  
     154A      0.793590   155A      0.801858   156A      0.819019  
     157A      0.845038   158A      0.850704   159A      0.862049  
     160A      0.878887   161A      0.888851   162A      0.894284  
     163A      0.903568   164A      0.909021   165A      0.913574  
     166A      0.926115   167A      0.929086   168A      0.930045  
     169A      0.938301   170A      0.945644   171A      0.950476  
     172A      0.960866   173A      0.970978   174A      0.974020  
     175A      0.982785   176A      0.986305   177A      0.997078  
     178A      0.997551   179A      1.011000   180A      1.024787  
     181A      1.027523   182A      1.046378   183A      1.054391  
     184A      1.068262   185A      1.073405   186A      1.081149  
     187A      1.091178   188A      1.095073   189A      1.112417  
     190A      1.130078   191A      1.135716   192A      1.183997  
     193A      1.211297   194A      1.241591   195A      1.252283  
     196A      1.260610   197A      1.272240   198A      1.278480  
     199A      1.307204   200A      1.348045   201A      1.378298  
     202A      1.386945   203A      1.426853   204A      1.442791  
     205A      1.457764   206A      1.462731   207A      1.482689  
     208A      1.492432   209A      1.510888   210A      1.521207  
     211A      1.529130   212A      1.551000   213A      1.560761  
     214A      1.568263   215A      1.585631   216A      1.603893  
     217A      1.616911   218A      1.621525   219A      1.630658  
     220A      1.648828   221A      1.653399   222A      1.659358  
     223A      1.663579   224A      1.678686   225A      1.690296  
     226A      1.699089   227A      1.703383   228A      1.717739  
     229A      1.735474   230A      1.740861   231A      1.753759  
     232A      1.774345   233A      1.797217   234A      1.813142  
     235A      1.836755   236A      1.849958   237A      1.863250  
     238A      1.871745   239A      1.885421   240A      1.900169  
     241A      1.911851   242A      1.926868   243A      1.934846  
     244A      1.948836   245A      1.957054   246A      1.962587  
     247A      1.982102   248A      1.989990   249A      1.996019  
     250A      2.008331   251A      2.013414   252A      2.033416  
     253A      2.038545   254A      2.047563   255A      2.053647  
     256A      2.060771   257A      2.066055   258A      2.079516  
     259A      2.096739   260A      2.110214   261A      2.118518  
     262A      2.132379   263A      2.143396   264A      2.168488  
     265A      2.180109   266A      2.194552   267A      2.200658  
     268A      2.209692   269A      2.238253   270A      2.249234  
     271A      2.273217   272A      2.304695   273A      2.308390  
     274A      2.324904   275A      2.342111   276A      2.344792  
     277A      2.367631   278A      2.379419   279A      2.396739  
     280A      2.401362   281A      2.408802   282A      2.414440  
     283A      2.424230   284A      2.430869   285A      2.443873  
     286A      2.466830   287A      2.493949   288A      2.508055  
     289A      2.537420   290A      2.546338   291A      2.576616  
     292A      2.587864   293A      2.623108   294A      2.670136  
     295A      2.690024   296A      2.731801   297A      2.755126  
     298A      2.767196   299A      2.779937   300A      2.788326  
     301A      2.800571   302A      2.821859   303A      2.847351  
     304A      2.850591   305A      2.866865   306A      2.868434  
     307A      2.887090   308A      2.923882   309A      2.941180  
     310A      2.952637   311A      2.988413   312A      2.995908  
     313A      3.010409   314A      3.034207   315A      3.072507  
     316A      3.103078   317A      3.122372   318A      3.202990  
     319A      3.257756   320A      3.264825   321A      3.290579  
     322A      3.325283   323A      3.350815   324A      3.383562  
     325A      3.401573   326A      3.417123   327A      3.507007  
     328A      3.529003   329A      3.567285   330A      3.590983  
     331A      3.644098   332A      3.670435   333A      3.689984  
     334A      3.776827   335A      3.799806   336A      3.819225  
     337A      3.949714   338A      3.959808   339A      4.080199  
     340A      4.107918  

    Final Occupation by Irrep:
              A 
    DOCC [    57 ]

  Energy converged.

  @DF-RHF Final Energy:  -761.22440157740573

   => Energetics <=

    Nuclear Repulsion Energy =           1118.4918692156286397
    One-Electron Energy =               -3264.5334793913543763
    Two-Electron Energy =                1384.8172085983196666
    DFT Exchange-Correlation Energy =       0.0000000000000000
    Empirical Dispersion Energy =           0.0000000000000000
    PCM Polarization Energy =               0.0000000000000000
    EFP Energy =                            0.0000000000000000
    Total Energy =                       -761.2244015774058425



Properties will be evaluated at   0.000000,   0.000000,   0.000000 Bohr

Properties computed using the SCF density matrix

  Nuclear Dipole Moment: (a.u.)
     X:    -1.2946      Y:    -0.1422      Z:    -1.0740

  Electronic Dipole Moment: (a.u.)
     X:     0.8683      Y:    -0.0601      Z:     1.6908

  Dipole Moment: (a.u.)
     X:    -0.4263      Y:    -0.2023      Z:     0.6168     Total:     0.7766

  Dipole Moment: (Debye)
     X:    -1.0835      Y:    -0.5143      Z:     1.5677     Total:     1.9739


*** tstop() called on ThinkPad-P50 at Mon Jan 15 17:32:21 2018
Module time:
	user time   =     113.35 seconds =       1.89 minutes
	system time =       0.58 seconds =       0.01 minutes
	total time  =         37 seconds =       0.62 minutes
Total time:
	user time   =     113.35 seconds =       1.89 minutes
	system time =       0.58 seconds =       0.01 minutes
	total time  =         37 seconds =       0.62 minutes
   => Loading Basis Set <=

    Name: (JUN-CC-PVDZ AUX)
    Role: JKFIT
    Keyword: DF_BASIS_SCF
    atoms 1, 4, 8, 11, 17-22 entry C          line   145 file /home/junteng/Softwares/psi4conda/share/psi4/basis/jun-cc-pvdz-jkfit.gbs 
    atoms 2-3, 9-10, 23      entry O          line   257 file /home/junteng/Softwares/psi4conda/share/psi4/basis/jun-cc-pvdz-jkfit.gbs 
    atoms 5-7, 12-16, 24-29  entry H          line    69 file /home/junteng/Softwares/psi4conda/share/psi4/basis/jun-cc-pvdz-jkfit.gbs 

   => Loading Basis Set <=

    Name: (JUN-CC-PVDZ AUX)
    Role: RIFIT
    Keyword: DF_BASIS_SAPT
    atoms 1, 4, 8, 11, 17-22 entry C          line    99 file /home/junteng/Softwares/psi4conda/share/psi4/basis/jun-cc-pvdz-ri.gbs 
    atoms 2-3, 9-10, 23      entry O          line   187 file /home/junteng/Softwares/psi4conda/share/psi4/basis/jun-cc-pvdz-ri.gbs 
    atoms 5-7, 12-16, 24-29  entry H          line    29 file /home/junteng/Softwares/psi4conda/share/psi4/basis/jun-cc-pvdz-ri.gbs 

   => Loading Basis Set <=

    Name: CC-PVTZ-MINAO
    Role: ORBITAL
    Keyword: BASIS
    atoms 1, 4, 8, 11, 17-22 entry C          line   130 file /home/junteng/Softwares/psi4conda/share/psi4/basis/cc-pvtz-minao.gbs 
    atoms 2-3, 9-10, 23      entry O          line   190 file /home/junteng/Softwares/psi4conda/share/psi4/basis/cc-pvtz-minao.gbs 
    atoms 5-7, 12-16, 24-29  entry H          line    19 file /home/junteng/Softwares/psi4conda/share/psi4/basis/cc-pvtz-minao.gbs 


*** tstart() called on ThinkPad-P50
*** at Mon Jan 15 17:32:22 2018

	 --------------------------------------------
	                    FISAPT0                  
	                  Rob Parrish                
	 --------------------------------------------

    Do F-SAPT =         Yes
    Do Plot   =          No
    Memory    =      78.580 [GD]

  ==> Localization (IBO) <==

  ==> IBO Localizer 2 <==

    MinAO Basis = CC-PVTZ-MINAO
    Use Ghosts  =       FALSE
    Use Stars   =       FALSE
    Condition   =   1.000E-07
    Power       =           4
    Convergence =   1.000E-12
    Maxiter     =        1000

    @IBO Iter:                   Metric       Gradient
    @IBO    1:   1.9061136792153337E+00   2.941575E+00
    @IBO    2:   2.2076598845471822E+00   2.472268E+00
    @IBO    3:   2.2969376049377241E+00   1.046806E+00
    @IBO    4:   2.3045434972505183E+00   1.121844E-01
    @IBO    5:   2.3046172111314411E+00   1.822164E-03
    @IBO    6:   2.3046172311566768E+00   4.035174E-05
    @IBO    7:   2.3046172311731032E+00   1.709978E-06
    @IBO    8:   2.3046172311731357E+00   7.669414E-08
    @IBO    9:   2.3046172311731361E+00   3.530654E-09
    @IBO   10:   2.3046172311731361E+00   1.632366E-10
    @IBO   11:   2.3046172311731361E+00   7.510810E-12
    @IBO   12:   2.3046172311731357E+00   3.453059E-13

    IBO Localizer 2 converged.

  ==> Partitioning <==

   => Atomic Partitioning <= 

    Monomer A:   7 atoms
    Monomer B:   7 atoms
    Monomer C:  15 atoms

   => Link Bond Identification <=

    Link Bond Selection = AUTOMATIC

    Charge Completeness = 0.800

    Total Link Bonds = 2

    --------------------------
    N     Orb Type Aind1 Aind2
    --------------------------
    1      31   BC     8    18
    2      51   AC     1    17
    --------------------------

   => Link Bond Assignment <=

    Link Bond Assignment      = C

   => Partition Summary <=

    Monomer A:  0 charge,  30 protons,  30 electrons,  15 docc
    Monomer B:  0 charge,  30 protons,  30 electrons,  15 docc
    Monomer C:  0 charge,  54 protons,  54 electrons,  27 docc

  ==> Overlap Integrals <==

  ==> Kinetic Integrals <==

  ==> Nuclear Integrals <==

    Nuclear Repulsion Tot:   1.1184918692156280E+03 [Eh]

  ==> Coulomb Integrals <==

  ==> DFJK: Density-Fitted J/K Matrices <==

    J tasked:                  Yes
    K tasked:                  Yes
    wK tasked:                  No
    OpenMP threads:              4
    Integrals threads:           4
    Memory (MB):            643730
    Algorithm:                Core
    Integral Cache:           NONE
    Schwarz Cutoff:          1E-12
    Fitting Condition:       1E-12

   => Auxiliary Basis Set <=

  Basis Set: (JUN-CC-PVDZ AUX)
    Blend: JUN-CC-PVDZ-JKFIT
    Number of shells: 531
    Number of basis function: 1507
    Number of Cartesian functions: 1715
    Spherical Harmonics?: true
    Max angular momentum: 3

  ==> Relaxed SCF Equations <==

  ==> SCF A: <==

    Maxiter =          50
    E Tol   =   1.000E-06
    D Tol   =   1.000E-08

    Max DIIS Vectors = 5

    Iter   N:                        E          dE         |D|
    Iter   1:  -2.2407930953898693E+02  -2.241E+02   1.193E-03 
    Iter   2:  -2.2408483809906090E+02  -5.529E-03   8.718E-05 DIIS
    Iter   3:  -2.2408494110706269E+02  -1.030E-04   4.182E-05 DIIS
    Iter   4:  -2.2408495994778232E+02  -1.884E-05   1.292E-05 DIIS
    Iter   5:  -2.2408496255932738E+02  -2.612E-06   3.595E-06 DIIS
    Iter   6:  -2.2408496286623560E+02  -3.069E-07   1.683E-06 DIIS
    Iter   7:  -2.2408496293821406E+02  -7.198E-08   5.752E-07 DIIS
    Iter   8:  -2.2408496294632783E+02  -8.114E-09   2.347E-07 DIIS
    Iter   9:  -2.2408496294790837E+02  -1.581E-09   7.277E-08 DIIS
    Iter  10:  -2.2408496294807392E+02  -1.656E-10   4.276E-08 DIIS
    Iter  11:  -2.2408496294811903E+02  -4.511E-11   1.761E-08 DIIS
    Iter  12:  -2.2408496294812446E+02  -5.429E-12   6.554E-09 DIIS

    FISAPTSCF Converged.

    Final SCF Energy:  -2.2408496294812446E+02 [Eh]

   => Occupied Orbital Energies <=

       1  -20.603752     2  -20.544885     3  -11.383226  
       4  -11.292412     5   -1.436872     6   -1.353326  
       7   -0.960851     8   -0.763779     9   -0.666268  
      10   -0.660983    11   -0.618416    12   -0.539532  
      13   -0.532784    14   -0.469777    15   -0.456975  

   => Virtual Orbital Energies <=

      16    0.030656    17    0.057982    18    0.060446  
      19    0.065618    20    0.070823    21    0.078002  
      22    0.082301    23    0.090885    24    0.092960  
      25    0.100174    26    0.102444    27    0.109930  
      28    0.118999    29    0.124693    30    0.126067  
      31    0.132639    32    0.139293    33    0.144377  
      34    0.153743    35    0.159927    36    0.163099  
      37    0.167156    38    0.173211    39    0.177803  
      40    0.183389    41    0.186589    42    0.199735  
      43    0.203574    44    0.208586    45    0.212089  
      46    0.218955    47    0.228989    48    0.233801  
      49    0.239572    50    0.243898    51    0.245757  
      52    0.252439    53    0.260854    54    0.270021  
      55    0.272366    56    0.276459    57    0.282011  
      58    0.295436    59    0.301712    60    0.307651  
      61    0.311715    62    0.316501    63    0.321531  
      64    0.330237    65    0.343151    66    0.346482  
      67    0.347890    68    0.358680    69    0.366293  
      70    0.371878    71    0.376642    72    0.381285  
      73    0.385884    74    0.388406    75    0.398594  
      76    0.403195    77    0.406358    78    0.413432  
      79    0.420568    80    0.424189    81    0.432744  
      82    0.439085    83    0.443750    84    0.445060  
      85    0.450142    86    0.457540    87    0.462462  
      88    0.481581    89    0.483849    90    0.503488  
      91    0.508427    92    0.517878    93    0.524510  
      94    0.536535    95    0.545343    96    0.552047  
      97    0.566231    98    0.568581    99    0.578054  
     100    0.604408   101    0.608019   102    0.620291  
     103    0.624033   104    0.635291   105    0.648214  
     106    0.671681   107    0.687133   108    0.707376  
     109    0.718070   110    0.755901   111    0.767284  
     112    0.785242   113    0.809748   114    0.813480  
     115    0.832077   116    0.852480   117    0.873846  
     118    0.889708   119    0.891756   120    0.904053  
     121    0.916851   122    0.919699   123    0.931573  
     124    0.940417   125    0.945931   126    0.955298  
     127    0.957073   128    0.964219   129    0.978429  
     130    0.986598   131    0.988012   132    0.995912  
     133    1.004707   134    1.010642   135    1.020450  
     136    1.035671   137    1.037083   138    1.048389  
     139    1.055489   140    1.073800   141    1.074756  
     142    1.093372   143    1.105897   144    1.115902  
     145    1.120339   146    1.130496   147    1.133788  
     148    1.176517   149    1.186741   150    1.203238  
     151    1.231259   152    1.268749   153    1.279490  
     154    1.313089   155    1.331052   156    1.363750  
     157    1.378132   158    1.399490   159    1.424238  
     160    1.468851   161    1.473432   162    1.510609  
     163    1.514327   164    1.523568   165    1.540566  
     166    1.554016   167    1.560626   168    1.574244  
     169    1.580371   170    1.603740   171    1.614926  
     172    1.626272   173    1.648353   174    1.654138  
     175    1.661438   176    1.672471   177    1.685410  
     178    1.704697   179    1.727610   180    1.751821  
     181    1.755057   182    1.765492   183    1.791305  
     184    1.806541   185    1.816900   186    1.823528  
     187    1.832020   188    1.855759   189    1.868420  
     190    1.873212   191    1.897682   192    1.903895  
     193    1.936719   194    1.938405   195    1.952271  
     196    1.961836   197    1.974558   198    1.987350  
     199    1.997569   200    2.013805   201    2.022134  
     202    2.029251   203    2.044216   204    2.047360  
     205    2.060142   206    2.076509   207    2.081936  
     208    2.100299   209    2.107777   210    2.108911  
     211    2.120604   212    2.136078   213    2.141697  
     214    2.158205   215    2.161565   216    2.168295  
     217    2.199936   218    2.206794   219    2.229097  
     220    2.231022   221    2.274979   222    2.280047  
     223    2.296912   224    2.306279   225    2.315971  
     226    2.327223   227    2.337124   228    2.342529  
     229    2.364762   230    2.379686   231    2.392177  
     232    2.396874   233    2.406229   234    2.408116  
     235    2.432811   236    2.442359   237    2.458383  
     238    2.472673   239    2.501766   240    2.509103  
     241    2.528599   242    2.562906   243    2.582167  
     244    2.601349   245    2.613361   246    2.631168  
     247    2.660432   248    2.678471   249    2.690188  
     250    2.703716   251    2.716704   252    2.744906  
     253    2.782373   254    2.790470   255    2.801538  
     256    2.811054   257    2.847005   258    2.864279  
     259    2.873291   260    2.885448   261    2.891945  
     262    2.898536   263    2.922576   264    2.943439  
     265    2.975586   266    3.009314   267    3.014493  
     268    3.033089   269    3.055694   270    3.066885  
     271    3.070504   272    3.134385   273    3.230437  
     274    3.266815   275    3.319233   276    3.354112  
     277    3.402366   278    3.414300   279    3.426915  
     280    3.524555   281    3.588941   282    3.602988  
     283    3.645757   284    3.674798   285    3.711130  
     286    3.772417   287    3.815256   288    3.844321  
     289    3.957329   290    3.969305   291    4.094880  
     292    4.132381   293    4.198223   294    4.435576  
     295    4.513333   296    4.543801   297    4.758494  
     298    4.934020   299    5.043745   300    5.067990  
     301    5.220645   302    5.323482   303    5.516874  
     304    5.603570   305    5.720914   306    5.831420  
     307    6.080763   308    6.348472   309    6.705607  
     310   13.380666   311   18.428613   312   33.423793  
     313   33.475310  

  ==> SCF B: <==

    Maxiter =          50
    E Tol   =   1.000E-06
    D Tol   =   1.000E-08

    Max DIIS Vectors = 5

    Iter   N:                        E          dE         |D|
    Iter   1:  -2.2414035897440192E+02  -2.241E+02   1.188E-03 
    Iter   2:  -2.2414585471288999E+02  -5.496E-03   8.737E-05 DIIS
    Iter   3:  -2.2414596025641700E+02  -1.055E-04   4.065E-05 DIIS
    Iter   4:  -2.2414597827868684E+02  -1.802E-05   1.287E-05 DIIS
    Iter   5:  -2.2414598083134248E+02  -2.553E-06   3.519E-06 DIIS
    Iter   6:  -2.2414598111597093E+02  -2.846E-07   1.598E-06 DIIS
    Iter   7:  -2.2414598117525466E+02  -5.928E-08   5.528E-07 DIIS
    Iter   8:  -2.2414598118239823E+02  -7.144E-09   2.348E-07 DIIS
    Iter   9:  -2.2414598118401892E+02  -1.621E-09   7.437E-08 DIIS
    Iter  10:  -2.2414598118420952E+02  -1.906E-10   4.349E-08 DIIS
    Iter  11:  -2.2414598118425789E+02  -4.837E-11   1.783E-08 DIIS
    Iter  12:  -2.2414598118426366E+02  -5.770E-12   6.825E-09 DIIS

    FISAPTSCF Converged.

    Final SCF Energy:  -2.2414598118426366E+02 [Eh]

   => Occupied Orbital Energies <=

       1  -20.606436     2  -20.547360     3  -11.384109  
       4  -11.295240     5   -1.436967     6   -1.356708  
       7   -0.962514     8   -0.765538     9   -0.667725  
      10   -0.662918    11   -0.621543    12   -0.541882  
      13   -0.536044    14   -0.471677    15   -0.460025  

   => Virtual Orbital Energies <=

      16    0.030652    17    0.057632    18    0.059881  
      19    0.065983    20    0.071607    21    0.076375  
      22    0.083483    23    0.089104    24    0.096356  
      25    0.099941    26    0.103726    27    0.107901  
      28    0.118489    29    0.122847    30    0.125261  
      31    0.135710    32    0.139418    33    0.141727  
      34    0.152442    35    0.162404    36    0.165696  
      37    0.173194    38    0.177338    39    0.178542  
      40    0.183137    41    0.185103    42    0.197513  
      43    0.202603    44    0.204957    45    0.213617  
      46    0.219690    47    0.227476    48    0.235003  
      49    0.240220    50    0.246852    51    0.249922  
      52    0.254487    53    0.262034    54    0.270944  
      55    0.275279    56    0.279985    57    0.282479  
      58    0.290949    59    0.296853    60    0.304070  
      61    0.316712    62    0.318347    63    0.324456  
      64    0.332392    65    0.337483    66    0.344306  
      67    0.352854    68    0.360346    69    0.362991  
      70    0.370793    71    0.376844    72    0.378808  
      73    0.386601    74    0.391390    75    0.398753  
      76    0.404336    77    0.405768    78    0.414335  
      79    0.417129    80    0.419558    81    0.425675  
      82    0.432588    83    0.437339    84    0.448092  
      85    0.455481    86    0.465013    87    0.470209  
      88    0.482045    89    0.491326    90    0.504614  
      91    0.511331    92    0.519976    93    0.523352  
      94    0.538152    95    0.548819    96    0.552835  
      97    0.562080    98    0.573337    99    0.589569  
     100    0.597876   101    0.609327   102    0.619777  
     103    0.631368   104    0.637290   105    0.653741  
     106    0.655303   107    0.698593   108    0.702244  
     109    0.733178   110    0.753036   111    0.786384  
     112    0.795079   113    0.802558   114    0.809452  
     115    0.836267   116    0.855827   117    0.863234  
     118    0.888869   119    0.900487   120    0.905777  
     121    0.914527   122    0.922110   123    0.927526  
     124    0.932608   125    0.942858   126    0.946578  
     127    0.954266   128    0.961031   129    0.968820  
     130    0.975178   131    0.985164   132    0.993102  
     133    1.002433   134    1.010790   135    1.025037  
     136    1.038548   137    1.044026   138    1.049281  
     139    1.065238   140    1.070897   141    1.078402  
     142    1.097304   143    1.101822   144    1.116312  
     145    1.128974   146    1.130621   147    1.143335  
     148    1.171578   149    1.186181   150    1.220281  
     151    1.228318   152    1.251134   153    1.276967  
     154    1.292382   155    1.356067   156    1.365942  
     157    1.380462   158    1.407032   159    1.422537  
     160    1.473644   161    1.491317   162    1.508224  
     163    1.510324   164    1.524849   165    1.537701  
     166    1.543258   167    1.564977   168    1.573008  
     169    1.588238   170    1.600406   171    1.625422  
     172    1.628356   173    1.647129   174    1.655593  
     175    1.660655   176    1.672261   177    1.680979  
     178    1.693727   179    1.698753   180    1.730854  
     181    1.737686   182    1.773073   183    1.779709  
     184    1.807552   185    1.827776   186    1.837158  
     187    1.843739   188    1.850078   189    1.867180  
     190    1.879073   191    1.890157   192    1.912429  
     193    1.922108   194    1.933571   195    1.947706  
     196    1.968898   197    1.972420   198    1.982624  
     199    2.009891   200    2.015846   201    2.020886  
     202    2.029285   203    2.035342   204    2.050921  
     205    2.061606   206    2.082144   207    2.089935  
     208    2.099624   209    2.106971   210    2.121333  
     211    2.127183   212    2.144031   213    2.146976  
     214    2.149143   215    2.166969   216    2.183969  
     217    2.202175   218    2.211384   219    2.218802  
     220    2.243245   221    2.257060   222    2.277430  
     223    2.292358   224    2.301455   225    2.314642  
     226    2.327981   227    2.344917   228    2.360753  
     229    2.370254   230    2.386303   231    2.396219  
     232    2.401112   233    2.413361   234    2.418820  
     235    2.428278   236    2.440434   237    2.460903  
     238    2.468878   239    2.482024   240    2.526114  
     241    2.542227   242    2.568491   243    2.586066  
     244    2.594330   245    2.617459   246    2.643325  
     247    2.662056   248    2.684100   249    2.693614  
     250    2.715815   251    2.723612   252    2.743256  
     253    2.749714   254    2.783895   255    2.795720  
     256    2.805636   257    2.850332   258    2.863582  
     259    2.869720   260    2.878590   261    2.895859  
     262    2.899450   263    2.932297   264    2.940728  
     265    2.980867   266    2.993256   267    3.010330  
     268    3.031263   269    3.060705   270    3.064422  
     271    3.097316   272    3.120307   273    3.214907  
     274    3.261368   275    3.316683   276    3.350522  
     277    3.396064   278    3.415179   279    3.427866  
     280    3.527557   281    3.591798   282    3.611689  
     283    3.637086   284    3.673574   285    3.718257  
     286    3.783108   287    3.797402   288    3.861985  
     289    3.970627   290    3.973537   291    4.109557  
     292    4.130020   293    4.209080   294    4.443785  
     295    4.517263   296    4.551262   297    4.756334  
     298    4.938264   299    5.044657   300    5.070593  
     301    5.218630   302    5.336270   303    5.514729  
     304    5.600929   305    5.724851   306    5.817662  
     307    6.117928   308    6.365532   309    6.699648  
     310   13.376691   311   18.432348   312   33.421511  
     313   33.480212  

  ==> Frozen Core <==


    ------------------
    Range      A     B
    ------------------
    nbf      340   340
    nmo      313   313
    nocc      15    15
    nvir     298   298
    nfocc      4     4
    naocc     11    11
    navir    298   298
    nfvir      0     0
    ------------------

  ==> Unification <==

  ==> dHF <==

    E ABC(HF) =  -7.6122440157740573E+02 [Eh]
    E AC(0)   =  -5.3319697637835759E+02 [Eh]
    E BC(0)   =  -5.3319922978734257E+02 [Eh]
    E A(0)    =  -2.1266610160066648E+02 [Eh]
    E B(0)    =  -2.1266875587967195E+02 [Eh]
    E AC(HF)  =  -5.3319132296922010E+02 [Eh]
    E BC(HF)  =  -5.3319360757748109E+02 [Eh]
    E AB(HF)  =  -4.2529010945653738E+02 [Eh]
    E A(HF)   =  -2.1264811346303713E+02 [Eh]
    E B(HF)   =  -2.1265061145146393E+02 [Eh]
    E C       =  -3.0515191351132790E+02 [Eh]
    E HF      =   1.9891076966530363E-02 [Eh]

  ==> Electrostatics <==

    Elst10,r            =     0.019109033713 [Eh]

  ==> Exchange <==

    Exch10(S^2)         =     0.002519445737 [Eh]
    Exch10              =     0.002520959255 [Eh]

  ==> Induction <==

    Ind20,u (A<-B)      =    -0.001124584451 [Eh]
    Ind20,u (B<-A)      =    -0.001149156149 [Eh]
    Ind20,u             =    -0.002273740599 [Eh]
    Exch-Ind20,u (A<-B) =     0.000393448574 [Eh]
    Exch-Ind20,u (B<-A) =     0.000336877535 [Eh]
    Exch-Ind20,u        =     0.000730326109 [Eh]

  ==> CPHF Iterations <==

    Maxiter     =          50
    Convergence =   1.000E-08

    -----------------------------------------
    Iter   Monomer A    Monomer B    Time [s]
    -----------------------------------------
    1      2.677E-01    2.626E-01           3
    2      8.796E-02    8.498E-02           7
    3      2.960E-02    2.875E-02          10
    4      1.243E-02    1.126E-02          14
    5      4.287E-03    3.949E-03          17
    6      1.445E-03    1.277E-03          21
    7      4.469E-04    4.281E-04          24
    8      1.624E-04    1.491E-04          27
    9      3.561E-05    3.356E-05          31
    10     1.081E-05    9.395E-06          34
    11     3.029E-06    1.907E-06          38
    12     9.293E-07    4.137E-07          41
    13     2.275E-07    1.429E-07          45
    14     6.027E-08    4.739E-08          48
    15     1.354E-08    1.150E-08          51
    16     2.703E-09*   2.646E-09*         55
    -----------------------------------------

    Ind20,r (A<-B)      =    -0.001246195454 [Eh]
    Ind20,r (B<-A)      =    -0.001266079799 [Eh]
    Ind20,r             =    -0.002512275253 [Eh]
    Exch-Ind20,r (A<-B) =     0.000473813780 [Eh]
    Exch-Ind20,r (B<-A) =     0.000397283213 [Eh]
    Exch-Ind20,r        =     0.000871096993 [Eh]

  ==> F-SAPT Localization (IBO) <==

  Local Orbitals for Monomer A:

  ==> IBO Localizer 2 <==

    MinAO Basis = CC-PVTZ-MINAO
    Use Ghosts  =       FALSE
    Use Stars   =       FALSE
    Condition   =   1.000E-07
    Power       =           4
    Convergence =   1.000E-12
    Maxiter     =        1000

    @IBO Iter:                   Metric       Gradient
    @IBO    1:   1.4831700105568677E+00   1.680256E+00
    @IBO    2:   1.6779788213592002E+00   9.381037E-01
    @IBO    3:   1.7099816693278922E+00   3.269946E-01
    @IBO    4:   1.7113196784960045E+00   3.141515E-03
    @IBO    5:   1.7113200798410821E+00   1.563264E-04
    @IBO    6:   1.7113200801459580E+00   2.681184E-06
    @IBO    7:   1.7113200801461037E+00   8.968407E-08
    @IBO    8:   1.7113200801461042E+00   3.039769E-09
    @IBO    9:   1.7113200801461042E+00   1.194044E-10
    @IBO   10:   1.7113200801461044E+00   4.939224E-12
    @IBO   11:   1.7113200801461042E+00   2.069852E-13

    IBO Localizer 2 converged.

  Local Orbitals for Monomer B:

  ==> IBO Localizer 2 <==

    MinAO Basis = CC-PVTZ-MINAO
    Use Ghosts  =       FALSE
    Use Stars   =       FALSE
    Condition   =   1.000E-07
    Power       =           4
    Convergence =   1.000E-12
    Maxiter     =        1000

    @IBO Iter:                   Metric       Gradient
    @IBO    1:   1.4817718477777926E+00   1.684033E+00
    @IBO    2:   1.6780856622716724E+00   9.360035E-01
    @IBO    3:   1.7100616539726095E+00   3.229393E-01
    @IBO    4:   1.7113688983443420E+00   3.558357E-03
    @IBO    5:   1.7113694088446354E+00   1.786880E-04
    @IBO    6:   1.7113694092576062E+00   3.387256E-06
    @IBO    7:   1.7113694092578469E+00   1.169096E-07
    @IBO    8:   1.7113694092578471E+00   4.041247E-09
    @IBO    9:   1.7113694092578473E+00   1.566154E-10
    @IBO   10:   1.7113694092578471E+00   6.347930E-12
    @IBO   11:   1.7113694092578473E+00   2.613869E-13

    IBO Localizer 2 converged.

  ==> F-SAPT Electrostatics <==

  ==> DFERI: Density Fitted 3-Index Tensors <==

    Schwarz cutoff =   0.000E+00
    J cutoff       =   1.000E-12
    Mem (GB)       =         628

   => Auxiliary Basis <=

  Basis Set: (JUN-CC-PVDZ AUX)
    Blend: JUN-CC-PVDZ-JKFIT
    Number of shells: 531
    Number of basis function: 1507
    Number of Cartesian functions: 1715
    Spherical Harmonics?: true
    Max angular momentum: 3

    Elst10,r            =     0.019109034689 [Eh]

  ==> F-SAPT Exchange <==

  ==> DFERI: Density Fitted 3-Index Tensors <==

    Schwarz cutoff =   0.000E+00
    J cutoff       =   1.000E-12
    Mem (GB)       =         628

   => Auxiliary Basis <=

  Basis Set: (JUN-CC-PVDZ AUX)
    Blend: JUN-CC-PVDZ-JKFIT
    Number of shells: 531
    Number of basis function: 1507
    Number of Cartesian functions: 1715
    Spherical Harmonics?: true
    Max angular momentum: 3

    Exch10(S^2)         =     0.002519445737 [Eh]

    Scaling F-SAPT Exch10(S^2) by   1.001E+00 to match Exch10

  ==> F-SAPT Induction <==

  ==> DFERI: Density Fitted 3-Index Tensors <==

    Schwarz cutoff =   0.000E+00
    J cutoff       =   1.000E-12
    Mem (GB)       =         628

   => Auxiliary Basis <=

  Basis Set: (JUN-CC-PVDZ AUX)
    Blend: JUN-CC-PVDZ-JKFIT
    Number of shells: 531
    Number of basis function: 1507
    Number of Cartesian functions: 1715
    Spherical Harmonics?: true
    Max angular momentum: 3

    Ind20,u (A<-B)      =    -0.001124584450 [Eh]
    Ind20,u (B<-A)      =    -0.001149156148 [Eh]
    Ind20,u             =    -0.002273740599 [Eh]
    Exch-Ind20,u (A<-B) =     0.000393448574 [Eh]
    Exch-Ind20,u (B<-A) =     0.000336877535 [Eh]
    Exch-Ind20,u        =     0.000730326109 [Eh]

    Scaling for delta HF        =   1.060E+00
    Scaling for response (A<-B) =   1.056E+00
    Scaling for response (B<-A) =   1.070E+00
    Scaling for total (A<-B)    =   1.119E+00
    Scaling for total (B<-A)    =   1.133E+00

  ==> F-SAPT Dispersion <==

  ==> DFERI: Density Fitted 3-Index Tensors <==

    Schwarz cutoff =   0.000E+00
    J cutoff       =   1.000E-12
    Mem (GB)       =         628

   => Auxiliary Basis <=

  Basis Set: (JUN-CC-PVDZ AUX)
    Blend: JUN-CC-PVDZ-RI
    Number of shells: 399
    Number of basis function: 1171
    Number of Cartesian functions: 1350
    Spherical Harmonics?: true
    Max angular momentum: 3

    Disp20              =    -0.003250423027 [Eh]
    Exch-Disp20         =     0.000229113987 [Eh]

  ==> F-SAPT Output <==

    F-SAPT Data Filepath = fsapt/

  ==> Results <==


    SAPT Results  
  --------------------------------------------------------------------------------------------------------
    Electrostatics                 19.10903371 [mEh]      11.99110019 [kcal/mol]      50.17076801 [kJ/mol]
      Elst10,r                     19.10903371 [mEh]      11.99110019 [kcal/mol]      50.17076801 [kJ/mol]

    Exchange                        2.52095925 [mEh]       1.58192588 [kcal/mol]       6.61877852 [kJ/mol]
      Exch10                        2.52095925 [mEh]       1.58192588 [kcal/mol]       6.61877852 [kJ/mol]
      Exch10(S^2)                   2.51944574 [mEh]       1.58097613 [kcal/mol]       6.61480478 [kJ/mol]

    Induction                      -1.73891600 [mEh]      -1.09118631 [kcal/mol]      -4.56552396 [kJ/mol]
      Ind20,r                      -2.51227525 [mEh]      -1.57647659 [kcal/mol]      -6.59597868 [kJ/mol]
      Exch-Ind20,r                  0.87109699 [mEh]       0.54662164 [kcal/mol]       2.28706516 [kJ/mol]
      delta HF,r (2)               -0.09773774 [mEh]      -0.06133136 [kcal/mol]      -0.25661044 [kJ/mol]
      Induction (A<-B)             -0.81837963 [mEh]      -0.51354099 [kcal/mol]      -2.14865571 [kJ/mol]
      Induction (B<-A)             -0.92053637 [mEh]      -0.57764532 [kcal/mol]      -2.41686825 [kJ/mol]

    Dispersion                     -3.02130904 [mEh]      -1.89590012 [kcal/mol]      -7.93244688 [kJ/mol]
      Disp20                       -3.25042303 [mEh]      -2.03967133 [kcal/mol]      -8.53398566 [kJ/mol]
      Exch-Disp20                   0.22911399 [mEh]       0.14377120 [kcal/mol]       0.60153877 [kJ/mol]

  Total HF                         19.89107697 [mEh]      12.48183976 [kcal/mol]      52.22402258 [kJ/mol]
  Total SAPT0                      16.86976793 [mEh]      10.58593964 [kcal/mol]      44.29157569 [kJ/mol]

  --------------------------------------------------------------------------------------------------------
    Han Solo: This is *not* gonna work.
    Luke Skywalker: Why didn't you say so before?
    Han Solo: I *did* say so before.

*** tstop() called on ThinkPad-P50 at Mon Jan 15 17:34:41 2018
Module time:
	user time   =     483.43 seconds =       8.06 minutes
	system time =       2.22 seconds =       0.04 minutes
	total time  =        139 seconds =       2.32 minutes
Total time:
	user time   =     597.85 seconds =       9.96 minutes
	system time =       2.81 seconds =       0.05 minutes
	total time  =        177 seconds =       2.95 minutes

*** Psi4 exiting successfully. Buy a developer a beer!
