mFile = /opt/software/qchem/qchem-5.0.1//bin/mpi/machines
Process 0 of 1 is on vega03.cac.cornell.edu - thread support 0
initial socket setup ...start
initial socket setup ...done 
now start server 0 ... 
vega03 10.84.3
Q-Chem Developer Version! Running on 10.84.3.*
                  Welcome to Q-Chem
     A Quantum Leap Into The Future Of Chemistry


 Q-Chem 5.0, Q-Chem, Inc., Pleasanton, CA (2017)

 Yihan Shao,  Zhengting Gan,  E. Epifanovsky,  A. T. B. Gilbert,  M. Wormit,  
 J. Kussmann,  A. W. Lange,  A. Behn,  Jia Deng,  Xintian Feng,  D. Ghosh,  
 M. Goldey,  P. R. Horn,  L. D. Jacobson,  I. Kaliman,  T. Kus,  A. Landau,  
 Jie Liu,  E. I. Proynov,  R. M. Richard,  R. P. Steele,  E. J. Sundstrom,  
 H. L. Woodcock III,  P. M. Zimmerman,  D. Zuev,  B. Albrecht,  E. Alguire,  
 S. A. Baeppler,  Z. Benda,  Y. A. Bernard,  E. J. Berquist,  K. B. Bravaya,  
 D. Casanova,  Chun-Min Chang,  Yunqing Chen,  A. Chien,  K. D. Closser,  
 M. P. Coons,  S. Dasgupta,  M. Diedenhofen,  Hainam Do,  R. G. Edgar,  
 Po-Tung Fang,  S. Fatehi,  Qingguo Feng,  Qinghui Ge,  A. Ghysels,  
 J. Gomes,  J. Gonthier,  A. Gunina,  M. W. D. Hanson-Heine,  
 P. H. P. Harbach,  A. W. Hauser,  J. E. Herr,  E. G. Hohenstein,  
 Z. C. Holden,  Kerwin Hui,  T.-C. Jagau,  Hyunjun Ji,  B. Kaduk,  
 K. Khistyaev,  Jaehoon Kim,  P. Klunzinger,  K. Koh,  D. Kosenkov,  
 T. Kowalczyk,  C. M. Krauter,  A. Kunitsa,  Ka Un Lao,  A. Laurent,  
 K. V. Lawler,  Joonho Lee,  D. Lefrancois,  S. Lehtola,  D. S. Levine,  
 Yi-Pei Li,  You-Sheng Lin,  Fenglai Liu,  E. Livshits,  A. Luenser,  
 P. Manohar,  E. Mansoor,  S. F. Manzer,  Shan-Ping Mao,  Yuezhi Mao,  
 N. Mardirossian,  A. V. Marenich,  L. A. Martinez-Martinez,  S. A. Maurer,  
 N. J. Mayhall,  S. C. McKenzie,  J.-M. Mewes,  A. F. Morrison,  K. Nanda,  
 T. S. Nguyen-Beck,  R. Olivares-Amaya,  J. A. Parkhill,  T. M. Perrine,  
 F. Plasser,  S. Prager,  A. Prociuk,  D. R. Rehn,  F. Rob,  M. Schneider,  
 N. Sergueev,  S. M. Sharada,  S. Sharma,  D. W. Small,  T. Stauch,  
 T. Stein,  Yu-Chuan Su,  A. J. W. Thom,  T. Tsuchimochi,  L. Vogt,  
 O. Vydrov,  M. A. Watson,  J. Wenzel,  M. de Wergifosse,  T. A. Wesolowski,  
 A. White,  J. Witte,  A. Yamada,  Jun Yang,  K. Yao,  S. Yeganeh,  
 S. R. Yost,  Zhi-Qiang You,  A. Zech,  Igor Ying Zhang,  Xing Zhang,  
 Yan Zhao,  Ying Zhu,  B. R. Brooks,  G. K. L. Chan,  C. J. Cramer,  
 M. S. Gordon,  W. J. Hehre,  A. Klamt,  M. W. Schmidt,  C. D. Sherrill,  
 D. G. Truhlar,  A. Aspuru-Guzik,  R. Baer,  A. T. Bell,  N. A. Besley,  
 Jeng-Da Chai,  A. Dreuw,  B. D. Dunietz,  T. R. Furlani,  Chao-Ping Hsu,  
 Yousung Jung,  Jing Kong,  D. S. Lambrecht,  WanZhen Liang,  C. Ochsenfeld,  
 V. A. Rassolov,  L. V. Slipchenko,  J. E. Subotnik,  T. Van Voorhis,  
 J. M. Herbert,  A. I. Krylov,  P. M. W. Gill,  M. Head-Gordon

 Contributors to earlier versions of Q-Chem not listed above: 
 R. D. Adamson,  B. Austin,  J. Baker,  G. J. O. Beran,  K. Brandhorst,  
 S. T. Brown,  E. F. C. Byrd,  A. K. Chakraborty,  C.-L. Cheng,  
 Siu Hung Chien,  D. M. Chipman,  D. L. Crittenden,  H. Dachsel,  
 R. A. DiStasio Jr.,  R. J. Doerksen,  A. D. Dutoi,  L. Fusti-Molnar,  
 W. A. Goddard III,  A. Golubeva-Zadorozhnaya,  S. R. Gwaltney,  G. Hawkins,  
 A. Heyden,  S. Hirata,  G. Kedziora,  F. J. Keil,  C. Kelley,  Jihan Kim,  
 R. A. King,  R. Z. Khaliullin,  P. P. Korambath,  W. Kurlancheek,  
 A. M. Lee,  M. S. Lee,  S. V. Levchenko,  Ching Yeh Lin,  D. Liotard,  
 R. C. Lochan,  I. Lotan,  P. E. Maslen,  N. Nair,  D. P. O'Neill,  
 D. Neuhauser,  E. Neuscamman,  C. M. Oana,  R. Olson,  B. Peters,  
 R. Peverati,  P. A. Pieniazek,  Y. M. Rhee,  J. Ritchie,  M. A. Rohrdanz,  
 E. Rosta,  N. J. Russ,  H. F. Schaefer III,  N. E. Schultz,  N. Shenvi,  
 A. C. Simmonett,  A. Sodt,  D. Stuck,  K. S. Thanthiriwatte,  V. Vanovschi,  
 Tao Wang,  A. Warshel,  C. F. Williams,  Q. Wu,  X. Xu,  W. Zhang

 Please cite Q-Chem as follows:
 Y. Shao et al., Mol. Phys. 113, 184-215 (2015)
 DOI: 10.1080/00268976.2014.952696

 Q-Chem 5.0.1 for Intel X86 EM64T Linux

 Parts of Q-Chem use Armadillo 5.200.1 (Boston Tea Smuggler).
 http://arma.sourceforge.net/

 Q-Chem begins on Mon Apr 16 23:11:30 2018  

Host: vega03.cac.cornell.edu
0

     Scratch files written to /scratch/jj585/vdw/0000_distance_10.000_10.save//
 Parallel job on  1  processors

Checking the input file for inconsistencies... 	...done.

--------------------------------------------------------------
User input:
--------------------------------------------------------------
$molecule
0  1
C        +0.22270000        +1.04488000        +0.58595000
C        +0.62626000        -0.41353000        +0.99871000
C        +1.33008000        +1.39974000        -0.43491000
C        +2.63070000        +1.71700000        +0.32855000
C        +3.04336000        +0.29351000        +0.80300000
C        +1.94423000        -0.59299000        +0.15262000
O        +1.62840000        +0.13663000        -1.04376000
H        +3.37234000        +2.13782000        -0.35195000
H        +2.48236000        +2.42488000        +1.14651000
H        +4.02182000        +0.00994000        +0.41161000
H        +3.07359000        +0.18738000        +1.88928000
H        +1.03270000        +2.19943000        -1.08064000
H        +2.24339000        -1.61496000        +0.04786000
H        +0.81693000        -0.48905000        +2.04887000
H        -0.12524000        -1.15356000        +0.81843000
H        -0.74673000        +1.06811000        +0.13365000
H        +0.15552000        +1.72617000        +1.40828000
@C        +6.99518000        +4.98754000        +6.79795000
@C        +7.39874000        +3.52913000        +7.21071000
@C        +8.10256000        +5.34240000        +5.77709000
@C        +9.40318000        +5.65966000        +6.54055000
@C        +9.81584000        +4.23617000        +7.01500000
@C        +8.71671000        +3.34967000        +6.36462000
@O        +8.40088000        +4.07929000        +5.16824000
@H       +10.14482000        +6.08048000        +5.86005000
@H        +9.25484000        +6.36754000        +7.35851000
@H       +10.79430000        +3.95260000        +6.62361000
@H        +9.84607000        +4.13004000        +8.10128000
@H        +7.80518000        +6.14209000        +5.13136000
@H        +9.01587000        +2.32770000        +6.25986000
@H        +7.58941000        +3.45361000        +8.26087000
@H        +6.64724000        +2.78910000        +7.03043000
@H        +6.02575000        +5.01077000        +6.34565000
@H        +6.92800000        +5.66883000        +7.62028000
$end

$rem
JOBTYPE                   SP
METHOD                    B3LYP
DFT_D                     d3_op
BASIS                     6-311++G(d,p)
SYMMETRY                  False
THRESH                    12
SCF_CONVERGENCE           8
MAX_SUB_FILE_NUM          128
MEM_STATIC                400
MEM_TOTAL                 4000
$end
--------------------------------------------------------------
 Adding empirical dispersion correction 
 ----------------------------------------------------------------
 Doing -D3(op) with
 s6 =   1.00000
 s8 =   0.78311
 a1 =   0.30000
 a2 =   4.25000
 n  =  10.00000
 -D3 energy without 3body term =     -0.0133866839 hartrees
 ----------------------------------------------------------------
             Standard Nuclear Orientation (Angstroms)
    I     Atom           X                Y                Z
 ----------------------------------------------------------------
    1      C       0.2227000000     1.0448800000     0.5859500000
    2      C       0.6262600000    -0.4135300000     0.9987100000
    3      C       1.3300800000     1.3997400000    -0.4349100000
    4      C       2.6307000000     1.7170000000     0.3285500000
    5      C       3.0433600000     0.2935100000     0.8030000000
    6      C       1.9442300000    -0.5929900000     0.1526200000
    7      O       1.6284000000     0.1366300000    -1.0437600000
    8      H       3.3723400000     2.1378200000    -0.3519500000
    9      H       2.4823600000     2.4248800000     1.1465100000
   10      H       4.0218200000     0.0099400000     0.4116100000
   11      H       3.0735900000     0.1873800000     1.8892800000
   12      H       1.0327000000     2.1994300000    -1.0806400000
   13      H       2.2433900000    -1.6149600000     0.0478600000
   14      H       0.8169300000    -0.4890500000     2.0488700000
   15      H      -0.1252400000    -1.1535600000     0.8184300000
   16      H      -0.7467300000     1.0681100000     0.1336500000
   17      H       0.1555200000     1.7261700000     1.4082800000
   18      GH      6.9951800000     4.9875400000     6.7979500000
   19      GH      7.3987400000     3.5291300000     7.2107100000
   20      GH      8.1025600000     5.3424000000     5.7770900000
   21      GH      9.4031800000     5.6596600000     6.5405500000
   22      GH      9.8158400000     4.2361700000     7.0150000000
   23      GH      8.7167100000     3.3496700000     6.3646200000
   24      GH      8.4008800000     4.0792900000     5.1682400000
   25      GH     10.1448200000     6.0804800000     5.8600500000
   26      GH      9.2548400000     6.3675400000     7.3585100000
   27      GH     10.7943000000     3.9526000000     6.6236100000
   28      GH      9.8460700000     4.1300400000     8.1012800000
   29      GH      7.8051800000     6.1420900000     5.1313600000
   30      GH      9.0158700000     2.3277000000     6.2598600000
   31      GH      7.5894100000     3.4536100000     8.2608700000
   32      GH      6.6472400000     2.7891000000     7.0304300000
   33      GH      6.0257500000     5.0107700000     6.3456500000
   34      GH      6.9280000000     5.6688300000     7.6202800000
 ----------------------------------------------------------------
 Nuclear Repulsion Energy =   331.2533536408 hartrees
 There are       27 alpha and       27 beta electrons
 Requested basis set is 6-311++G(d,p)
 There are 184 shells and 448 basis functions

 Total QAlloc Memory Limit   4000 MB
 Mega-Array Size       392 MB
 MEM_STATIC part       400 MB
 A cutoff of  1.0D-12 yielded  11528 shell pairs
 There are     66364 function pairs (     70146 Cartesian)
 
 -------------------------------------------------------
 OpenMP Integral Computing Module                       
 Release: version 1.0, May 2013, Q-Chem Inc. Pittsburgh 
 -------------------------------------------------------
 Integral Job Info:
 Integral job number is                      11
 Integral operator is                         1
 short-range coefficients                     0
 long-range coefficients              100000000
 Omega coefficients                           0
 if combine SR and LR in K                    0
 Integral screening is                        0
 Integral computing path is                   2
 max size of driver memory is            800000
 size of driver memory is                593474
 size of scratch memory is              2361544
 max col of scratch BK array               1296
 max len of scratch array in speh3          155
 max len of scratch index in speh4           18
 max int batch size is                      520
 min int batch size is                       52
 fixed nKL is                                52
 max L of basis functions is                  2
 order of int derivative is                   0
 number of shells is                        184
 number of basis is                         462
 number of cartesian basis is               462
 number of contracted shell pairs         11528
 number of primitive shell pairs          25405
 maxK2 (contraction) of shell pair           36
 max number of K2 of shell pair               1
 max number of CS2 of shell pair           2150
 max number of PS2 of shell pair           3498
 mem total for path MDJ                   94698
 -------------------------------------------------------
 Smallest overlap matrix eigenvalue = 5.73E-06

 Scale SEOQF with 1.000000e-02/1.000000e-02/1.000000e-02

 Standard Electronic Orientation quadrupole field applied
 Nucleus-field energy     =     0.0000000008 hartrees
 Guess from superposition of atomic densities
 Warning:  Energy on first SCF cycle will be non-variational

 Q-Chem warning in module /opt/software/qchem/qchem-5.0.1/libgen/Atomic_PolEc.C, line 58:

 No atomic polarizability available.


 Q-Chem warning in module /opt/software/qchem/qchem-5.0.1/libgen/Atomic_PolEc.C, line 73:

 No atomic polarizability available.


 Q-Chem warning in module /opt/software/qchem/qchem-5.0.1/libgen/Atomic_PolEc.C, line 58:

 No atomic polarizability available.


 Q-Chem warning in module /opt/software/qchem/qchem-5.0.1/libgen/Atomic_PolEc.C, line 73:

 No atomic polarizability available.


 Q-Chem warning in module /opt/software/qchem/qchem-5.0.1/libgen/Atomic_PolEc.C, line 58:

 No atomic polarizability available.


 Q-Chem warning in module /opt/software/qchem/qchem-5.0.1/libgen/Atomic_PolEc.C, line 73:

 No atomic polarizability available.


 Q-Chem warning in module /opt/software/qchem/qchem-5.0.1/libgen/Atomic_PolEc.C, line 58:

 No atomic polarizability available.


 Q-Chem warning in module /opt/software/qchem/qchem-5.0.1/libgen/Atomic_PolEc.C, line 73:

 No atomic polarizability available.


 Q-Chem warning in module /opt/software/qchem/qchem-5.0.1/libgen/Atomic_PolEc.C, line 58:

 No atomic polarizability available.


 Q-Chem warning in module /opt/software/qchem/qchem-5.0.1/libgen/Atomic_PolEc.C, line 73:

 No atomic polarizability available.


 Q-Chem warning in module /opt/software/qchem/qchem-5.0.1/libgen/Atomic_PolEc.C, line 58:

 No atomic polarizability available.


 Q-Chem warning in module /opt/software/qchem/qchem-5.0.1/libgen/Atomic_PolEc.C, line 73:

 No atomic polarizability available.


 Q-Chem warning in module /opt/software/qchem/qchem-5.0.1/libgen/Atomic_PolEc.C, line 58:

 No atomic polarizability available.


 Q-Chem warning in module /opt/software/qchem/qchem-5.0.1/libgen/Atomic_PolEc.C, line 73:

 No atomic polarizability available.


 Q-Chem warning in module /opt/software/qchem/qchem-5.0.1/libgen/Atomic_PolEc.C, line 58:

 No atomic polarizability available.


 Q-Chem warning in module /opt/software/qchem/qchem-5.0.1/libgen/Atomic_PolEc.C, line 73:

 No atomic polarizability available.


 Q-Chem warning in module /opt/software/qchem/qchem-5.0.1/libgen/Atomic_PolEc.C, line 58:

 No atomic polarizability available.


 Q-Chem warning in module /opt/software/qchem/qchem-5.0.1/libgen/Atomic_PolEc.C, line 73:

 No atomic polarizability available.


 Q-Chem warning in module /opt/software/qchem/qchem-5.0.1/libgen/Atomic_PolEc.C, line 58:

 No atomic polarizability available.


 Q-Chem warning in module /opt/software/qchem/qchem-5.0.1/libgen/Atomic_PolEc.C, line 73:

 No atomic polarizability available.


 Q-Chem warning in module /opt/software/qchem/qchem-5.0.1/libgen/Atomic_PolEc.C, line 58:

 No atomic polarizability available.


 Q-Chem warning in module /opt/software/qchem/qchem-5.0.1/libgen/Atomic_PolEc.C, line 73:

 No atomic polarizability available.


 Q-Chem warning in module /opt/software/qchem/qchem-5.0.1/libgen/Atomic_PolEc.C, line 58:

 No atomic polarizability available.


 Q-Chem warning in module /opt/software/qchem/qchem-5.0.1/libgen/Atomic_PolEc.C, line 73:

 No atomic polarizability available.


 Q-Chem warning in module /opt/software/qchem/qchem-5.0.1/libgen/Atomic_PolEc.C, line 58:

 No atomic polarizability available.


 Q-Chem warning in module /opt/software/qchem/qchem-5.0.1/libgen/Atomic_PolEc.C, line 73:

 No atomic polarizability available.


 Q-Chem warning in module /opt/software/qchem/qchem-5.0.1/libgen/Atomic_PolEc.C, line 58:

 No atomic polarizability available.


 Q-Chem warning in module /opt/software/qchem/qchem-5.0.1/libgen/Atomic_PolEc.C, line 73:

 No atomic polarizability available.


 Q-Chem warning in module /opt/software/qchem/qchem-5.0.1/libgen/Atomic_PolEc.C, line 58:

 No atomic polarizability available.


 Q-Chem warning in module /opt/software/qchem/qchem-5.0.1/libgen/Atomic_PolEc.C, line 73:

 No atomic polarizability available.


 Q-Chem warning in module /opt/software/qchem/qchem-5.0.1/libgen/Atomic_PolEc.C, line 58:

 No atomic polarizability available.


 Q-Chem warning in module /opt/software/qchem/qchem-5.0.1/libgen/Atomic_PolEc.C, line 73:

 No atomic polarizability available.


 Q-Chem warning in module /opt/software/qchem/qchem-5.0.1/libgen/Atomic_PolEc.C, line 58:

 No atomic polarizability available.


 Q-Chem warning in module /opt/software/qchem/qchem-5.0.1/libgen/Atomic_PolEc.C, line 73:

 No atomic polarizability available.

 A restricted hybrid HF-DFT SCF calculation will be
 performed using Pulay DIIS extrapolation
 Exchange:     0.2000 Hartree-Fock + 0.0800 Slater + 0.7200 B88
 Correlation:  0.1900 VWN1RPA + 0.8100 LYP
 Using SG-1 standard quadrature grid
 Dispersion:   Grimme D3
 SCF converges when DIIS error is below 1.0E-08
 using 4 threads for integral computing
 -------------------------------------------------------
 OpenMP Integral computing Module                
 Release: version 1.0, May 2013, Q-Chem Inc. Pittsburgh 
 -------------------------------------------------------
 -------------------------------------------------------
 OpenMP BLAS3 based DFT computing Module                
 Release: version 1.0, May 2013, Q-Chem Inc. Pittsburgh 
 -------------------------------------------------------
 ---------------------------------------
  Cycle       Energy         DIIS Error
 ---------------------------------------
    1    -311.4034131755      2.06E-02
    2    -309.8163930506      2.36E-03
    3    -309.7371655626      3.02E-03
    4    -309.9567469738      3.71E-04
    5    -309.9588715257      1.65E-04
    6    -309.9593538164      4.77E-05
    7    -309.9593925085      1.33E-05
    8    -309.9593963007      1.58E-06
    9    -309.9593963613      3.95E-07
   10    -309.9593963654      7.37E-08
   11    -309.9593963655      2.72E-08
   12    -309.9593963655      6.17E-09 Convergence criterion met
 ---------------------------------------
 SCF time:  CPU 238.42 s  wall 59.81 s
 SCF   energy in the final basis set = -309.95939637
 Total energy in the final basis set = -309.95939637
 
 --------------------------------------------------------------
 
                    Orbital Energies (a.u.)
 --------------------------------------------------------------
 
 Alpha MOs
 -- Occupied --
-19.123 -10.221 -10.218 -10.168 -10.167 -10.165 -10.163  -1.050
 -0.798  -0.749  -0.747  -0.614  -0.578  -0.574  -0.527  -0.478
 -0.465  -0.431  -0.406  -0.395  -0.364  -0.360  -0.352  -0.339
 -0.317  -0.304  -0.264
 -- Virtual --
 -0.010   0.007   0.010   0.012   0.020   0.030   0.031   0.036
  0.038   0.040   0.044   0.046   0.055   0.064   0.066   0.071
  0.072   0.079   0.081   0.084   0.087   0.090   0.099   0.100
  0.106   0.108   0.109   0.111   0.114   0.119   0.123   0.127
  0.130   0.134   0.140   0.143   0.144   0.148   0.150   0.153
  0.155   0.156   0.157   0.158   0.163   0.165   0.166   0.167
  0.172   0.176   0.177   0.183   0.190   0.192   0.194   0.196
  0.197   0.199   0.204   0.206   0.210   0.215   0.219   0.219
  0.223   0.228   0.236   0.237   0.248   0.249   0.250   0.251
  0.259   0.268   0.270   0.278   0.279   0.288   0.308   0.314
  0.322   0.327   0.334   0.336   0.342   0.348   0.350   0.363
  0.367   0.369   0.370   0.372   0.378   0.395   0.398   0.400
  0.406   0.409   0.414   0.419   0.421   0.428   0.442   0.448
  0.465   0.475   0.483   0.487   0.490   0.500   0.517   0.524
  0.528   0.537   0.542   0.544   0.546   0.554   0.570   0.606
  0.609   0.617   0.627   0.631   0.644   0.647   0.650   0.654
  0.665   0.671   0.677   0.682   0.695   0.700   0.704   0.709
  0.715   0.725   0.730   0.734   0.739   0.746   0.750   0.760
  0.761   0.767   0.773   0.784   0.793   0.802   0.814   0.842
  0.856   0.874   0.896   0.905   0.918   0.920   0.942   0.953
  0.956   0.978   1.031   1.037   1.076   1.079   1.111   1.134
  1.148   1.150   1.157   1.172   1.184   1.189   1.191   1.203
  1.209   1.236   1.241   1.246   1.303   1.309   1.348   1.400
  1.420   1.421   1.427   1.435   1.452   1.467   1.492   1.507
  1.508   1.514   1.525   1.545   1.556   1.568   1.571   1.587
  1.610   1.619   1.637   1.653   1.668   1.671   1.679   1.683
  1.707   1.713   1.717   1.731   1.739   1.741   1.748   1.760
  1.770   1.772   1.795   1.802   1.816   1.830   1.837   1.857
  1.860   1.872   1.878   1.885   1.890   1.894   1.898   1.900
  1.908   1.921   1.934   1.939   1.945   1.960   1.984   2.003
  2.011   2.016   2.017   2.032   2.058   2.124   2.124   2.133
  2.145   2.150   2.160   2.166   2.188   2.215   2.238   2.246
  2.251   2.256   2.313   2.322   2.328   2.336   2.364   2.376
  2.419   2.434   2.440   2.452   2.453   2.461   2.467   2.468
  2.476   2.482   2.493   2.500   2.501   2.511   2.519   2.523
  2.543   2.548   2.587   2.606   2.626   2.640   2.651   2.699
  2.710   2.715   2.731   2.738   2.753   2.756   2.770   2.780
  2.788   2.814   2.815   2.822   2.830   2.855   2.857   2.890
  2.894   2.901   2.928   2.935   2.945   2.955   2.996   3.025
  3.034   3.040   3.064   3.084   3.100   3.111   3.132   3.141
  3.154   3.193   3.213   3.226   3.279   3.284   3.292   3.303
  3.309   3.369   3.383   3.398   3.455   3.523   3.529   3.575
  3.585   3.589   3.611   3.636   3.654   3.675   3.688   3.759
  3.767   3.792   3.806   3.860   3.911   3.934   3.955   3.973
  3.994   4.013   4.076   4.088   4.132   4.182   4.210   4.360
  4.477   4.554   4.602   4.749   4.772   4.809   4.841   4.870
  4.877   4.903   4.971   5.073   5.103   5.152   5.153   5.336
  5.472   5.630   5.699   7.291   7.337   7.465   7.508   7.563
  7.591   7.598   7.702   7.898   7.938   7.985   8.007   8.152
  8.271   8.389   8.394   8.657   8.720   9.873   9.909   9.949
 10.000  10.003  10.128  13.591  13.880  14.010  18.514  23.827
 23.847  23.936  23.987  23.995  24.056  49.939  69.875  69.883
 69.999  70.020  70.052  70.077 139.806
 --------------------------------------------------------------
 
          Ground-State Mulliken Net Atomic Charges

     Atom                 Charge (a.u.)
  ----------------------------------------
      1 C                    -0.433127
      2 C                    -0.426255
      3 C                     0.154376
      4 C                    -0.451555
      5 C                    -0.409872
      6 C                     0.155617
      7 O                    -0.161328
      8 H                     0.162200
      9 H                     0.116334
     10 H                     0.156842
     11 H                     0.117667
     12 H                     0.223958
     13 H                     0.227696
     14 H                     0.119067
     15 H                     0.163156
     16 H                     0.158083
     17 H                     0.127060
     18 GH                   -0.000013
     19 GH                   -0.000006
     20 GH                   -0.000003
     21 GH                    0.000000
     22 GH                   -0.000001
     23 GH                   -0.000007
     24 GH                   -0.000001
     25 GH                   -0.000000
     26 GH                    0.000000
     27 GH                   -0.000000
     28 GH                    0.000000
     29 GH                    0.000003
     30 GH                    0.000003
     31 GH                   -0.000001
     32 GH                    0.000062
     33 GH                    0.000047
     34 GH                   -0.000001
  ----------------------------------------
  Sum of atomic charges =    -0.000000

 -----------------------------------------------------------------
                    Cartesian Multipole Moments
 -----------------------------------------------------------------
    Charge (ESU x 10^10)
                -0.0000
    Dipole Moment (Debye)
         X      -0.0137      Y       0.5184      Z       1.7264
       Tot       1.8026
    Quadrupole Moments (Debye-Ang)
        XX     -43.2232     XY      -0.0544     YY     -40.6190
        XZ       2.7828     YZ      -0.8640     ZZ     -46.2412
    Octopole Moments (Debye-Ang^2)
       XXX    -212.4181    XXY     -25.3259    XYY     -67.3474
       YYY     -68.2883    XXZ      -8.9729    XYZ      -1.1000
       YYZ     -13.9584    XZZ     -75.8039    YZZ     -21.4036
       ZZZ     -30.2630
    Hexadecapole Moments (Debye-Ang^3)
      XXXX   -1041.7946   XXXY    -131.8739   XXYY    -228.7661
      XYYY    -125.9132   YYYY    -349.0504   XXXZ     -56.0891
      XXYZ      -5.1321   XYYZ     -21.7856   YYYZ      -7.1485
      XXZZ    -221.6682   XYZZ     -39.7706   YYZZ     -91.5397
      XZZZ     -43.3643   YZZZ      -4.3022   ZZZZ    -219.0879
 -----------------------------------------------------------------
Archival summary:
1\1\vega03.cac.cornell.edu\SP\ProcedureUnspecified\BasisUnspecified\1610h17\jj585\MonApr1623:12:302018MonApr1623:12:302018\0\\#,ProcedureUnspecified,BasisUnspecified,\\0,1\O\C,1,1.43358\H,2,1.07,1,117.389\C,1,1.43646,2,98.0224,3,-179.253,0\H,4,1.07,1,117.714,2,-178.733,0\C,2,1.54115,1,102.483,3,-123.548,0\H,6,1.09096,2,110.128,1,81.1589,0\H,6,1.09186,2,112.95,1,-157.962,0\C,2,1.54738,1,103.124,3,123.327,0\H,9,1.07,2,113.95,1,155.255,0\H,9,1.07,2,111.379,1,-86.5463,0\C,4,1.55466,1,102.371,2,-54.4128,0\H,12,1.09132,4,109.614,1,-87.4148,0\H,12,1.09187,4,112.355,1,152.676,0\C,9,1.5685,2,101.696,1,32.1918,0\H,15,1.07,9,111.7,2,120.458,0\H,15,1.07,9,114.71,2,-121.541,0\Gh,14,6.78022,12,137.027,4,-179.174,0\Gh,18,1.07,14,139.758,12,5.0392,0\Gh,19,1.07,18,103.987,14,-178.173,0\Gh,19,1.5685,18,114.71,14,59.5452,0\Gh,21,1.07,19,113.95,18,115.396,0\Gh,21,1.07,19,111.379,18,-2.80271,0\Gh,21,1.54738,19,101.696,18,-121.541,0\Gh,24,1.07,21,111.755,19,159.179,0\Gh,24,1.43358,21,103.124,19,32.1918,0\Gh,26,1.43646,24,98.0224,21,-55.9256,0\Gh,27,1.07,26,117.714,24,-178.733,0\Gh,24,1.54115,21,108.926,19,-76.1436,0\Gh,29,1.09096,24,110.128,21,-170.072,0\Gh,29,1.09186,24,112.95,21,-49.1929,0\Gh,27,1.55466,26,102.371,24,-54.4128,0\Gh,32,1.09132,27,109.614,26,-87.4148,0\Gh,32,1.09187,27,112.355,26,152.676,0\\\@

 Total job time:  60.52s(wall), 240.62s(cpu) 
 Mon Apr 16 23:12:30 2018

        *************************************************************
        *                                                           *
        *  Thank you very much for using Q-Chem.  Have a nice day.  *
        *                                                           *
        *************************************************************


0 sent ACK to 0 
now end server 0 ... 
