mFile = /opt/software/qchem/qchem-5.0.1//bin/mpi/machines
Process 0 of 1 is on vega03.cac.cornell.edu - thread support 0
initial socket setup ...start
initial socket setup ...done 
now start server 0 ... 
vega03 10.84.3
Q-Chem Developer Version! Running on 10.84.3.*
                  Welcome to Q-Chem
     A Quantum Leap Into The Future Of Chemistry


 Q-Chem 5.0, Q-Chem, Inc., Pleasanton, CA (2017)

 Yihan Shao,  Zhengting Gan,  E. Epifanovsky,  A. T. B. Gilbert,  M. Wormit,  
 J. Kussmann,  A. W. Lange,  A. Behn,  Jia Deng,  Xintian Feng,  D. Ghosh,  
 M. Goldey,  P. R. Horn,  L. D. Jacobson,  I. Kaliman,  T. Kus,  A. Landau,  
 Jie Liu,  E. I. Proynov,  R. M. Richard,  R. P. Steele,  E. J. Sundstrom,  
 H. L. Woodcock III,  P. M. Zimmerman,  D. Zuev,  B. Albrecht,  E. Alguire,  
 S. A. Baeppler,  Z. Benda,  Y. A. Bernard,  E. J. Berquist,  K. B. Bravaya,  
 D. Casanova,  Chun-Min Chang,  Yunqing Chen,  A. Chien,  K. D. Closser,  
 M. P. Coons,  S. Dasgupta,  M. Diedenhofen,  Hainam Do,  R. G. Edgar,  
 Po-Tung Fang,  S. Fatehi,  Qingguo Feng,  Qinghui Ge,  A. Ghysels,  
 J. Gomes,  J. Gonthier,  A. Gunina,  M. W. D. Hanson-Heine,  
 P. H. P. Harbach,  A. W. Hauser,  J. E. Herr,  E. G. Hohenstein,  
 Z. C. Holden,  Kerwin Hui,  T.-C. Jagau,  Hyunjun Ji,  B. Kaduk,  
 K. Khistyaev,  Jaehoon Kim,  P. Klunzinger,  K. Koh,  D. Kosenkov,  
 T. Kowalczyk,  C. M. Krauter,  A. Kunitsa,  Ka Un Lao,  A. Laurent,  
 K. V. Lawler,  Joonho Lee,  D. Lefrancois,  S. Lehtola,  D. S. Levine,  
 Yi-Pei Li,  You-Sheng Lin,  Fenglai Liu,  E. Livshits,  A. Luenser,  
 P. Manohar,  E. Mansoor,  S. F. Manzer,  Shan-Ping Mao,  Yuezhi Mao,  
 N. Mardirossian,  A. V. Marenich,  L. A. Martinez-Martinez,  S. A. Maurer,  
 N. J. Mayhall,  S. C. McKenzie,  J.-M. Mewes,  A. F. Morrison,  K. Nanda,  
 T. S. Nguyen-Beck,  R. Olivares-Amaya,  J. A. Parkhill,  T. M. Perrine,  
 F. Plasser,  S. Prager,  A. Prociuk,  D. R. Rehn,  F. Rob,  M. Schneider,  
 N. Sergueev,  S. M. Sharada,  S. Sharma,  D. W. Small,  T. Stauch,  
 T. Stein,  Yu-Chuan Su,  A. J. W. Thom,  T. Tsuchimochi,  L. Vogt,  
 O. Vydrov,  M. A. Watson,  J. Wenzel,  M. de Wergifosse,  T. A. Wesolowski,  
 A. White,  J. Witte,  A. Yamada,  Jun Yang,  K. Yao,  S. Yeganeh,  
 S. R. Yost,  Zhi-Qiang You,  A. Zech,  Igor Ying Zhang,  Xing Zhang,  
 Yan Zhao,  Ying Zhu,  B. R. Brooks,  G. K. L. Chan,  C. J. Cramer,  
 M. S. Gordon,  W. J. Hehre,  A. Klamt,  M. W. Schmidt,  C. D. Sherrill,  
 D. G. Truhlar,  A. Aspuru-Guzik,  R. Baer,  A. T. Bell,  N. A. Besley,  
 Jeng-Da Chai,  A. Dreuw,  B. D. Dunietz,  T. R. Furlani,  Chao-Ping Hsu,  
 Yousung Jung,  Jing Kong,  D. S. Lambrecht,  WanZhen Liang,  C. Ochsenfeld,  
 V. A. Rassolov,  L. V. Slipchenko,  J. E. Subotnik,  T. Van Voorhis,  
 J. M. Herbert,  A. I. Krylov,  P. M. W. Gill,  M. Head-Gordon

 Contributors to earlier versions of Q-Chem not listed above: 
 R. D. Adamson,  B. Austin,  J. Baker,  G. J. O. Beran,  K. Brandhorst,  
 S. T. Brown,  E. F. C. Byrd,  A. K. Chakraborty,  C.-L. Cheng,  
 Siu Hung Chien,  D. M. Chipman,  D. L. Crittenden,  H. Dachsel,  
 R. A. DiStasio Jr.,  R. J. Doerksen,  A. D. Dutoi,  L. Fusti-Molnar,  
 W. A. Goddard III,  A. Golubeva-Zadorozhnaya,  S. R. Gwaltney,  G. Hawkins,  
 A. Heyden,  S. Hirata,  G. Kedziora,  F. J. Keil,  C. Kelley,  Jihan Kim,  
 R. A. King,  R. Z. Khaliullin,  P. P. Korambath,  W. Kurlancheek,  
 A. M. Lee,  M. S. Lee,  S. V. Levchenko,  Ching Yeh Lin,  D. Liotard,  
 R. C. Lochan,  I. Lotan,  P. E. Maslen,  N. Nair,  D. P. O'Neill,  
 D. Neuhauser,  E. Neuscamman,  C. M. Oana,  R. Olson,  B. Peters,  
 R. Peverati,  P. A. Pieniazek,  Y. M. Rhee,  J. Ritchie,  M. A. Rohrdanz,  
 E. Rosta,  N. J. Russ,  H. F. Schaefer III,  N. E. Schultz,  N. Shenvi,  
 A. C. Simmonett,  A. Sodt,  D. Stuck,  K. S. Thanthiriwatte,  V. Vanovschi,  
 Tao Wang,  A. Warshel,  C. F. Williams,  Q. Wu,  X. Xu,  W. Zhang

 Please cite Q-Chem as follows:
 Y. Shao et al., Mol. Phys. 113, 184-215 (2015)
 DOI: 10.1080/00268976.2014.952696

 Q-Chem 5.0.1 for Intel X86 EM64T Linux

 Parts of Q-Chem use Armadillo 5.200.1 (Boston Tea Smuggler).
 http://arma.sourceforge.net/

 Q-Chem begins on Mon Apr 16 23:24:07 2018  

Host: vega03.cac.cornell.edu
0

     Scratch files written to /scratch/jj585/vdw/0100_distance_3.900_01.save//
 Parallel job on  1  processors

Checking the input file for inconsistencies... 	...done.

--------------------------------------------------------------
User input:
--------------------------------------------------------------
$molecule
0  1
C        +3.04308000        +2.43503000        +2.89310000
C        +3.44664000        +0.97662000        +3.30586000
C        +4.15046000        +2.78989000        +1.87224000
C        +5.45108000        +3.10715000        +2.63570000
C        +5.86374000        +1.68366000        +3.11015000
C        +4.76461000        +0.79716000        +2.45977000
O        +4.44878000        +1.52678000        +1.26339000
H        +6.19272000        +3.52797000        +1.95520000
H        +5.30274000        +3.81503000        +3.45366000
H        +6.84220000        +1.40009000        +2.71876000
H        +5.89397000        +1.57753000        +4.19643000
H        +3.85308000        +3.58958000        +1.22651000
C        +5.17488000        -0.62252000        +2.13903000
H        +6.07781000        -0.61180000        +1.56500000
H        +4.39989000        -1.09917000        +1.57592000
H        +5.33725000        -1.16114000        +3.04921000
H        +2.07365000        +2.45826000        +2.44080000
H        +2.97590000        +3.11632000        +3.71543000
H        +3.63731000        +0.90110000        +4.35602000
H        +2.69514000        +0.23659000        +3.12558000
@C        +0.22270000        +1.04488000        +0.58595000
@C        +0.62626000        -0.41353000        +0.99871000
@C        +1.33008000        +1.39974000        -0.43491000
@C        +2.63070000        +1.71700000        +0.32855000
@C        +3.04336000        +0.29351000        +0.80300000
@C        +1.94423000        -0.59299000        +0.15262000
@O        +1.62840000        +0.13663000        -1.04376000
@H        +3.37234000        +2.13782000        -0.35195000
@H        +2.48236000        +2.42488000        +1.14651000
@H        +4.02182000        +0.00994000        +0.41161000
@H        +3.07359000        +0.18738000        +1.88928000
@H        +1.03270000        +2.19943000        -1.08064000
@C        +2.35450000        -2.01267000        -0.16812000
@H        +3.25743000        -2.00195000        -0.74215000
@H        +1.57951000        -2.48932000        -0.73123000
@H        +2.51687000        -2.55129000        +0.74206000
@H        -0.74673000        +1.06811000        +0.13365000
@H        +0.15552000        +1.72617000        +1.40828000
@H        +0.81693000        -0.48905000        +2.04887000
@H        -0.12524000        -1.15356000        +0.81843000
$end

$rem
JOBTYPE                   SP
METHOD                    B3LYP
DFT_D                     d3_op
BASIS                     6-311++G(d,p)
SYMMETRY                  False
THRESH                    12
SCF_CONVERGENCE           8
MAX_SUB_FILE_NUM          128
MEM_STATIC                400
MEM_TOTAL                 4000
$end
--------------------------------------------------------------
 Adding empirical dispersion correction 
 ----------------------------------------------------------------
 Doing -D3(op) with
 s6 =   1.00000
 s8 =   0.78311
 a1 =   0.30000
 a2 =   4.25000
 n  =  10.00000
 -D3 energy without 3body term =     -0.0174576512 hartrees
 ----------------------------------------------------------------
             Standard Nuclear Orientation (Angstroms)
    I     Atom           X                Y                Z
 ----------------------------------------------------------------
    1      C       3.0430800000     2.4350300000     2.8931000000
    2      C       3.4466400000     0.9766200000     3.3058600000
    3      C       4.1504600000     2.7898900000     1.8722400000
    4      C       5.4510800000     3.1071500000     2.6357000000
    5      C       5.8637400000     1.6836600000     3.1101500000
    6      C       4.7646100000     0.7971600000     2.4597700000
    7      O       4.4487800000     1.5267800000     1.2633900000
    8      H       6.1927200000     3.5279700000     1.9552000000
    9      H       5.3027400000     3.8150300000     3.4536600000
   10      H       6.8422000000     1.4000900000     2.7187600000
   11      H       5.8939700000     1.5775300000     4.1964300000
   12      H       3.8530800000     3.5895800000     1.2265100000
   13      C       5.1748800000    -0.6225200000     2.1390300000
   14      H       6.0778100000    -0.6118000000     1.5650000000
   15      H       4.3998900000    -1.0991700000     1.5759200000
   16      H       5.3372500000    -1.1611400000     3.0492100000
   17      H       2.0736500000     2.4582600000     2.4408000000
   18      H       2.9759000000     3.1163200000     3.7154300000
   19      H       3.6373100000     0.9011000000     4.3560200000
   20      H       2.6951400000     0.2365900000     3.1255800000
   21      GH      0.2227000000     1.0448800000     0.5859500000
   22      GH      0.6262600000    -0.4135300000     0.9987100000
   23      GH      1.3300800000     1.3997400000    -0.4349100000
   24      GH      2.6307000000     1.7170000000     0.3285500000
   25      GH      3.0433600000     0.2935100000     0.8030000000
   26      GH      1.9442300000    -0.5929900000     0.1526200000
   27      GH      1.6284000000     0.1366300000    -1.0437600000
   28      GH      3.3723400000     2.1378200000    -0.3519500000
   29      GH      2.4823600000     2.4248800000     1.1465100000
   30      GH      4.0218200000     0.0099400000     0.4116100000
   31      GH      3.0735900000     0.1873800000     1.8892800000
   32      GH      1.0327000000     2.1994300000    -1.0806400000
   33      GH      2.3545000000    -2.0126700000    -0.1681200000
   34      GH      3.2574300000    -2.0019500000    -0.7421500000
   35      GH      1.5795100000    -2.4893200000    -0.7312300000
   36      GH      2.5168700000    -2.5512900000     0.7420600000
   37      GH     -0.7467300000     1.0681100000     0.1336500000
   38      GH      0.1555200000     1.7261700000     1.4082800000
   39      GH      0.8169300000    -0.4890500000     2.0488700000
   40      GH     -0.1252400000    -1.1535600000     0.8184300000
 ----------------------------------------------------------------
 Nuclear Repulsion Energy =   415.4951797453 hartrees
 There are       31 alpha and       31 beta electrons
 Requested basis set is 6-311++G(d,p)
 There are 216 shells and 520 basis functions

 Total QAlloc Memory Limit   4000 MB
 Mega-Array Size       392 MB
 MEM_STATIC part       400 MB
 A cutoff of  1.0D-12 yielded  20511 shell pairs
 There are    119320 function pairs (    126548 Cartesian)
 
 -------------------------------------------------------
 OpenMP Integral Computing Module                       
 Release: version 1.0, May 2013, Q-Chem Inc. Pittsburgh 
 -------------------------------------------------------
 Integral Job Info:
 Integral job number is                      11
 Integral operator is                         1
 short-range coefficients                     0
 long-range coefficients              100000000
 Omega coefficients                           0
 if combine SR and LR in K                    0
 Integral screening is                        0
 Integral computing path is                   2
 max size of driver memory is            800000
 size of driver memory is                593474
 size of scratch memory is              2361544
 max col of scratch BK array               1296
 max len of scratch array in speh3          155
 max len of scratch index in speh4           18
 max int batch size is                      520
 min int batch size is                       52
 fixed nKL is                                52
 max L of basis functions is                  2
 order of int derivative is                   0
 number of shells is                        216
 number of basis is                         536
 number of cartesian basis is               536
 number of contracted shell pairs         20511
 number of primitive shell pairs          43763
 maxK2 (contraction) of shell pair           36
 max number of K2 of shell pair               1
 max number of CS2 of shell pair           3614
 max number of PS2 of shell pair           6450
 mem total for path MDJ                  166062
 -------------------------------------------------------
 Smallest overlap matrix eigenvalue = 4.80E-07
 Linear dependence detected in AO basis
 Number of orthogonalized atomic orbitals = 519
 Maximum deviation from orthogonality = 1.381E-10

 Scale SEOQF with 1.000000e-02/1.000000e-01/1.000000e-01

 Standard Electronic Orientation quadrupole field applied
 Nucleus-field energy     =    -0.0000000220 hartrees
 Guess from superposition of atomic densities
 Warning:  Energy on first SCF cycle will be non-variational

 Q-Chem warning in module /opt/software/qchem/qchem-5.0.1/libgen/Atomic_PolEc.C, line 58:

 No atomic polarizability available.


 Q-Chem warning in module /opt/software/qchem/qchem-5.0.1/libgen/Atomic_PolEc.C, line 73:

 No atomic polarizability available.


 Q-Chem warning in module /opt/software/qchem/qchem-5.0.1/libgen/Atomic_PolEc.C, line 58:

 No atomic polarizability available.


 Q-Chem warning in module /opt/software/qchem/qchem-5.0.1/libgen/Atomic_PolEc.C, line 73:

 No atomic polarizability available.


 Q-Chem warning in module /opt/software/qchem/qchem-5.0.1/libgen/Atomic_PolEc.C, line 58:

 No atomic polarizability available.


 Q-Chem warning in module /opt/software/qchem/qchem-5.0.1/libgen/Atomic_PolEc.C, line 73:

 No atomic polarizability available.


 Q-Chem warning in module /opt/software/qchem/qchem-5.0.1/libgen/Atomic_PolEc.C, line 58:

 No atomic polarizability available.


 Q-Chem warning in module /opt/software/qchem/qchem-5.0.1/libgen/Atomic_PolEc.C, line 73:

 No atomic polarizability available.


 Q-Chem warning in module /opt/software/qchem/qchem-5.0.1/libgen/Atomic_PolEc.C, line 58:

 No atomic polarizability available.


 Q-Chem warning in module /opt/software/qchem/qchem-5.0.1/libgen/Atomic_PolEc.C, line 73:

 No atomic polarizability available.


 Q-Chem warning in module /opt/software/qchem/qchem-5.0.1/libgen/Atomic_PolEc.C, line 58:

 No atomic polarizability available.


 Q-Chem warning in module /opt/software/qchem/qchem-5.0.1/libgen/Atomic_PolEc.C, line 73:

 No atomic polarizability available.


 Q-Chem warning in module /opt/software/qchem/qchem-5.0.1/libgen/Atomic_PolEc.C, line 58:

 No atomic polarizability available.


 Q-Chem warning in module /opt/software/qchem/qchem-5.0.1/libgen/Atomic_PolEc.C, line 73:

 No atomic polarizability available.


 Q-Chem warning in module /opt/software/qchem/qchem-5.0.1/libgen/Atomic_PolEc.C, line 58:

 No atomic polarizability available.


 Q-Chem warning in module /opt/software/qchem/qchem-5.0.1/libgen/Atomic_PolEc.C, line 73:

 No atomic polarizability available.


 Q-Chem warning in module /opt/software/qchem/qchem-5.0.1/libgen/Atomic_PolEc.C, line 58:

 No atomic polarizability available.


 Q-Chem warning in module /opt/software/qchem/qchem-5.0.1/libgen/Atomic_PolEc.C, line 73:

 No atomic polarizability available.


 Q-Chem warning in module /opt/software/qchem/qchem-5.0.1/libgen/Atomic_PolEc.C, line 58:

 No atomic polarizability available.


 Q-Chem warning in module /opt/software/qchem/qchem-5.0.1/libgen/Atomic_PolEc.C, line 73:

 No atomic polarizability available.


 Q-Chem warning in module /opt/software/qchem/qchem-5.0.1/libgen/Atomic_PolEc.C, line 58:

 No atomic polarizability available.


 Q-Chem warning in module /opt/software/qchem/qchem-5.0.1/libgen/Atomic_PolEc.C, line 73:

 No atomic polarizability available.


 Q-Chem warning in module /opt/software/qchem/qchem-5.0.1/libgen/Atomic_PolEc.C, line 58:

 No atomic polarizability available.


 Q-Chem warning in module /opt/software/qchem/qchem-5.0.1/libgen/Atomic_PolEc.C, line 73:

 No atomic polarizability available.


 Q-Chem warning in module /opt/software/qchem/qchem-5.0.1/libgen/Atomic_PolEc.C, line 58:

 No atomic polarizability available.


 Q-Chem warning in module /opt/software/qchem/qchem-5.0.1/libgen/Atomic_PolEc.C, line 73:

 No atomic polarizability available.


 Q-Chem warning in module /opt/software/qchem/qchem-5.0.1/libgen/Atomic_PolEc.C, line 58:

 No atomic polarizability available.


 Q-Chem warning in module /opt/software/qchem/qchem-5.0.1/libgen/Atomic_PolEc.C, line 73:

 No atomic polarizability available.


 Q-Chem warning in module /opt/software/qchem/qchem-5.0.1/libgen/Atomic_PolEc.C, line 58:

 No atomic polarizability available.


 Q-Chem warning in module /opt/software/qchem/qchem-5.0.1/libgen/Atomic_PolEc.C, line 73:

 No atomic polarizability available.


 Q-Chem warning in module /opt/software/qchem/qchem-5.0.1/libgen/Atomic_PolEc.C, line 58:

 No atomic polarizability available.


 Q-Chem warning in module /opt/software/qchem/qchem-5.0.1/libgen/Atomic_PolEc.C, line 73:

 No atomic polarizability available.


 Q-Chem warning in module /opt/software/qchem/qchem-5.0.1/libgen/Atomic_PolEc.C, line 58:

 No atomic polarizability available.


 Q-Chem warning in module /opt/software/qchem/qchem-5.0.1/libgen/Atomic_PolEc.C, line 73:

 No atomic polarizability available.


 Q-Chem warning in module /opt/software/qchem/qchem-5.0.1/libgen/Atomic_PolEc.C, line 58:

 No atomic polarizability available.


 Q-Chem warning in module /opt/software/qchem/qchem-5.0.1/libgen/Atomic_PolEc.C, line 73:

 No atomic polarizability available.


 Q-Chem warning in module /opt/software/qchem/qchem-5.0.1/libgen/Atomic_PolEc.C, line 58:

 No atomic polarizability available.


 Q-Chem warning in module /opt/software/qchem/qchem-5.0.1/libgen/Atomic_PolEc.C, line 73:

 No atomic polarizability available.


 Q-Chem warning in module /opt/software/qchem/qchem-5.0.1/libgen/Atomic_PolEc.C, line 58:

 No atomic polarizability available.


 Q-Chem warning in module /opt/software/qchem/qchem-5.0.1/libgen/Atomic_PolEc.C, line 73:

 No atomic polarizability available.

 A restricted hybrid HF-DFT SCF calculation will be
 performed using Pulay DIIS extrapolation
 Exchange:     0.2000 Hartree-Fock + 0.0800 Slater + 0.7200 B88
 Correlation:  0.1900 VWN1RPA + 0.8100 LYP
 Using SG-1 standard quadrature grid
 Dispersion:   Grimme D3
 SCF converges when DIIS error is below 1.0E-08
 using 4 threads for integral computing
 -------------------------------------------------------
 OpenMP Integral computing Module                
 Release: version 1.0, May 2013, Q-Chem Inc. Pittsburgh 
 -------------------------------------------------------
 -------------------------------------------------------
 OpenMP BLAS3 based DFT computing Module                
 Release: version 1.0, May 2013, Q-Chem Inc. Pittsburgh 
 -------------------------------------------------------
 ---------------------------------------
  Cycle       Energy         DIIS Error
 ---------------------------------------
    1    -350.9522254407      1.92E-02
    2    -349.1132682243      2.32E-03
    3    -349.0363037705      2.81E-03
    4    -349.2932895890      4.11E-04
    5    -349.2971104533      1.60E-04
    6    -349.2977152761      4.52E-05
    7    -349.2977591183      1.69E-05
    8    -349.2977672663      1.60E-06
    9    -349.2977673379      7.51E-07
   10    -349.2977673555      1.40E-07
   11    -349.2977673561      2.88E-08
   12    -349.2977673561      1.08E-08
   13    -349.2977673561      2.63E-09 Convergence criterion met
 ---------------------------------------
 SCF time:  CPU 1145.08 s  wall 288.68 s
 SCF   energy in the final basis set = -349.29776736
 Total energy in the final basis set = -349.29776736
 
 --------------------------------------------------------------
 
                    Orbital Energies (a.u.)
 --------------------------------------------------------------
 
 Alpha MOs
 -- Occupied --
-19.119 -10.225 -10.216 -10.166 -10.166 -10.163 -10.162 -10.154
 -1.049  -0.798  -0.775  -0.748  -0.683  -0.614  -0.575  -0.556
 -0.503  -0.482  -0.464  -0.440  -0.417  -0.405  -0.392  -0.377
 -0.360  -0.348  -0.343  -0.336  -0.316  -0.301  -0.262
 -- Virtual --
 -0.010   0.003   0.009   0.011   0.026   0.029   0.031   0.032
  0.037   0.050   0.052   0.054   0.060   0.062   0.067   0.068
  0.077   0.078   0.086   0.087   0.092   0.095   0.099   0.107
  0.108   0.110   0.114   0.116   0.118   0.122   0.126   0.129
  0.130   0.132   0.134   0.138   0.141   0.143   0.150   0.153
  0.155   0.157   0.162   0.164   0.165   0.167   0.170   0.173
  0.178   0.180   0.184   0.188   0.190   0.192   0.195   0.197
  0.201   0.206   0.208   0.212   0.216   0.220   0.223   0.225
  0.229   0.231   0.233   0.236   0.240   0.243   0.247   0.249
  0.254   0.256   0.260   0.267   0.270   0.273   0.279   0.280
  0.283   0.290   0.295   0.299   0.306   0.308   0.314   0.319
  0.326   0.334   0.339   0.344   0.349   0.352   0.354   0.361
  0.364   0.370   0.371   0.377   0.383   0.386   0.388   0.396
  0.401   0.406   0.411   0.425   0.428   0.432   0.436   0.442
  0.445   0.450   0.460   0.467   0.480   0.487   0.488   0.490
  0.503   0.513   0.519   0.534   0.543   0.552   0.564   0.569
  0.579   0.582   0.584   0.596   0.603   0.613   0.615   0.624
  0.631   0.634   0.639   0.648   0.652   0.665   0.670   0.678
  0.682   0.688   0.691   0.700   0.707   0.711   0.715   0.721
  0.729   0.740   0.744   0.748   0.758   0.766   0.768   0.770
  0.779   0.784   0.797   0.799   0.810   0.813   0.817   0.821
  0.829   0.838   0.853   0.868   0.872   0.884   0.893   0.900
  0.903   0.919   0.941   0.972   0.983   0.994   1.006   1.013
  1.020   1.028   1.042   1.049   1.073   1.089   1.106   1.116
  1.150   1.158   1.177   1.187   1.201   1.212   1.222   1.244
  1.255   1.264   1.270   1.286   1.293   1.316   1.325   1.363
  1.368   1.387   1.403   1.420   1.456   1.470   1.492   1.502
  1.510   1.513   1.526   1.528   1.540   1.554   1.558   1.575
  1.582   1.592   1.598   1.604   1.612   1.636   1.639   1.650
  1.662   1.668   1.674   1.690   1.692   1.707   1.726   1.730
  1.732   1.753   1.758   1.772   1.779   1.784   1.797   1.797
  1.811   1.816   1.817   1.831   1.832   1.845   1.847   1.863
  1.873   1.875   1.888   1.894   1.901   1.907   1.912   1.920
  1.922   1.938   1.956   1.966   1.970   1.984   1.988   2.003
  2.011   2.023   2.036   2.042   2.050   2.068   2.074   2.094
  2.118   2.120   2.129   2.136   2.153   2.160   2.173   2.177
  2.198   2.217   2.219   2.230   2.242   2.261   2.262   2.284
  2.298   2.309   2.329   2.338   2.342   2.364   2.377   2.384
  2.399   2.411   2.434   2.436   2.458   2.469   2.477   2.490
  2.494   2.500   2.506   2.523   2.531   2.535   2.548   2.562
  2.565   2.579   2.582   2.595   2.617   2.626   2.632   2.657
  2.667   2.687   2.692   2.708   2.717   2.724   2.738   2.745
  2.749   2.761   2.778   2.787   2.802   2.807   2.821   2.850
  2.852   2.870   2.881   2.893   2.905   2.912   2.929   2.933
  2.946   2.954   2.987   2.989   3.015   3.032   3.036   3.050
  3.059   3.077   3.089   3.099   3.120   3.154   3.167   3.175
  3.179   3.204   3.226   3.246   3.263   3.274   3.289   3.294
  3.319   3.329   3.352   3.367   3.384   3.411   3.415   3.444
  3.478   3.510   3.523   3.564   3.575   3.578   3.594   3.602
  3.626   3.638   3.653   3.676   3.713   3.744   3.772   3.790
  3.815   3.871   3.884   3.901   3.941   3.949   3.971   3.977
  4.015   4.034   4.065   4.108   4.121   4.172   4.186   4.217
  4.291   4.388   4.473   4.506   4.619   4.713   4.824   4.834
  4.867   4.892   4.915   4.932   4.965   4.973   5.021   5.060
  5.121   5.149   5.240   5.378   5.473   5.681   5.720   5.735
  7.388   7.528   7.528   7.555   7.630   7.651   7.699   7.711
  7.762   7.831   7.855   7.932   7.975   8.016   8.218   8.322
  8.365   8.413   8.453   8.739   8.807   9.896   9.959  10.025
 10.040  10.060  10.077  10.185  13.656  13.936  14.066  18.613
 23.846  23.889  23.972  24.032  24.080  24.110  24.181  50.118
 69.809  69.839  69.926  69.974  69.989  70.007  70.062 139.726
 --------------------------------------------------------------
 
          Ground-State Mulliken Net Atomic Charges

     Atom                 Charge (a.u.)
  ----------------------------------------
      1 C                    -0.297997
      2 C                    -0.576510
      3 C                     0.250621
      4 C                    -0.674600
      5 C                    -0.405602
      6 C                     0.581296
      7 O                    -0.037732
      8 H                     0.157449
      9 H                     0.126955
     10 H                     0.159181
     11 H                     0.132852
     12 H                     0.219885
     13 C                    -0.520045
     14 H                     0.148544
     15 H                     0.083265
     16 H                     0.155672
     17 H                     0.123583
     18 H                     0.197254
     19 H                     0.184570
     20 H                     0.204160
     21 GH                   -0.019493
     22 GH                   -0.019942
     23 GH                   -0.123847
     24 GH                    0.061726
     25 GH                    0.015077
     26 GH                   -0.135086
     27 GH                   -0.008165
     28 GH                   -0.006336
     29 GH                    0.001823
     30 GH                    0.053242
     31 GH                   -0.048486
     32 GH                   -0.003238
     33 GH                    0.024863
     34 GH                   -0.003583
     35 GH                   -0.000399
     36 GH                    0.009423
     37 GH                   -0.000305
     38 GH                    0.000476
     39 GH                   -0.009867
     40 GH                   -0.000686
  ----------------------------------------
  Sum of atomic charges =     0.000000

 -----------------------------------------------------------------
                    Cartesian Multipole Moments
 -----------------------------------------------------------------
    Charge (ESU x 10^10)
                 0.0000
    Dipole Moment (Debye)
         X      -0.0150      Y       0.3918      Z       1.5895
       Tot       1.6371
    Quadrupole Moments (Debye-Ang)
        XX     -49.9167     XY       1.0004     YY     -46.5662
        XZ       6.9937     YZ       2.4679     ZZ     -45.2544
    Octopole Moments (Debye-Ang^2)
       XXX    -681.8367    XXY     -77.4645    XYY    -216.3140
       YYY    -219.9706    XXZ     -96.6673    XYZ       9.3082
       YYZ    -118.5994    XZZ    -207.0486    YZZ     -71.4865
       ZZZ    -364.2905
    Hexadecapole Moments (Debye-Ang^3)
      XXXX   -6595.5615   XXXY   -1059.6829   XXYY   -1283.1659
      XYYY    -991.1655   YYYY   -1236.2438   XXXZ   -1599.2526
      XXYZ    -170.7098   XYYZ    -545.4642   YYYZ    -575.4648
      XXZZ   -1375.6166   XYZZ    -323.7930   YYZZ    -548.1298
      XZZZ   -1649.8453   YZZZ    -578.6598   ZZZZ   -2073.5292
 -----------------------------------------------------------------
Archival summary:
1\1\vega03.cac.cornell.edu\SP\ProcedureUnspecified\BasisUnspecified\1712h20\jj585\MonApr1623:28:572018MonApr1623:28:572018\0\\#,ProcedureUnspecified,BasisUnspecified,\\0,1\O\C,1,1.43358\H,2,1.07,1,117.389\C,1,1.43646,2,98.0224,3,-179.253,0\C,4,1.51218,1,111.091,2,-178.393,0\H,5,1.07,4,109.471,1,-56.0506,0\H,5,1.07,4,109.472,1,-176.051,0\H,5,1.07,4,109.471,1,63.9491,0\C,2,1.54115,1,102.483,3,-123.548,0\H,9,1.09096,2,110.128,1,81.1589,0\H,9,1.09186,2,112.95,1,-157.962,0\C,2,1.54738,1,103.124,3,123.327,0\H,12,1.07,2,113.95,1,155.255,0\H,12,1.07,2,111.379,1,-86.5463,0\Gh,14,1.3577,12,97.4521,2,16.3477,0\Gh,15,1.09186,14,140.443,12,97.2334,0\Gh,16,1.09096,15,108.033,14,-155.518,0\Gh,16,1.54115,15,112.95,14,82.419,0\Gh,18,1.07,16,112.312,15,75.1568,0\Gh,18,1.43358,16,102.483,15,-157.962,0\Gh,20,1.43646,18,98.0224,16,57.1986,0\Gh,21,1.51218,20,111.091,18,-178.393,0\Gh,22,1.07,21,109.471,20,-56.0506,0\Gh,22,1.07,21,109.472,20,-176.051,0\Gh,22,1.07,21,109.471,20,63.9491,0\Gh,18,1.54738,16,108.926,15,-49.1929,0\Gh,26,1.07,18,113.95,16,46.9191,0\Gh,26,1.07,18,111.379,16,165.118,0\Gh,21,1.55466,20,102.371,18,-54.4128,0\Gh,29,1.09132,21,109.614,20,-87.4148,0\Gh,29,1.09187,21,112.355,20,152.676,0\H,31,1.29386,29,159.855,21,-63.4331,0\C,32,1.07,31,88.9608,29,-113.421,0\H,33,1.07,32,103.987,31,-156.154,0\C,4,1.55466,1,102.371,2,-54.4128,0\H,35,1.09132,4,109.614,1,-87.4148,0\H,35,1.09187,4,112.355,1,152.676,0\Gh,26,1.5685,18,101.696,16,-76.1436,0\Gh,38,1.07,26,111.7,18,120.458,0\Gh,38,1.07,26,114.71,18,-121.541,0\\\@

 Total job time:  289.87s(wall), 1148.00s(cpu) 
 Mon Apr 16 23:28:57 2018

        *************************************************************
        *                                                           *
        *  Thank you very much for using Q-Chem.  Have a nice day.  *
        *                                                           *
        *************************************************************


0 sent ACK to 0 
now end server 0 ... 
