mFile = /opt/software/qchem/qchem-5.0.1//bin/mpi/machines
Process 0 of 1 is on vega02.cac.cornell.edu - thread support 0
initial socket setup ...start
initial socket setup ...done 
now start server 0 ... 
vega02.cac.cornell.edu 10.84.3
Q-Chem Developer Version! Running on 10.84.3.*
                  Welcome to Q-Chem
     A Quantum Leap Into The Future Of Chemistry


 Q-Chem 5.0, Q-Chem, Inc., Pleasanton, CA (2017)

 Yihan Shao,  Zhengting Gan,  E. Epifanovsky,  A. T. B. Gilbert,  M. Wormit,  
 J. Kussmann,  A. W. Lange,  A. Behn,  Jia Deng,  Xintian Feng,  D. Ghosh,  
 M. Goldey,  P. R. Horn,  L. D. Jacobson,  I. Kaliman,  T. Kus,  A. Landau,  
 Jie Liu,  E. I. Proynov,  R. M. Richard,  R. P. Steele,  E. J. Sundstrom,  
 H. L. Woodcock III,  P. M. Zimmerman,  D. Zuev,  B. Albrecht,  E. Alguire,  
 S. A. Baeppler,  Z. Benda,  Y. A. Bernard,  E. J. Berquist,  K. B. Bravaya,  
 D. Casanova,  Chun-Min Chang,  Yunqing Chen,  A. Chien,  K. D. Closser,  
 M. P. Coons,  S. Dasgupta,  M. Diedenhofen,  Hainam Do,  R. G. Edgar,  
 Po-Tung Fang,  S. Fatehi,  Qingguo Feng,  Qinghui Ge,  A. Ghysels,  
 J. Gomes,  J. Gonthier,  A. Gunina,  M. W. D. Hanson-Heine,  
 P. H. P. Harbach,  A. W. Hauser,  J. E. Herr,  E. G. Hohenstein,  
 Z. C. Holden,  Kerwin Hui,  T.-C. Jagau,  Hyunjun Ji,  B. Kaduk,  
 K. Khistyaev,  Jaehoon Kim,  P. Klunzinger,  K. Koh,  D. Kosenkov,  
 T. Kowalczyk,  C. M. Krauter,  A. Kunitsa,  Ka Un Lao,  A. Laurent,  
 K. V. Lawler,  Joonho Lee,  D. Lefrancois,  S. Lehtola,  D. S. Levine,  
 Yi-Pei Li,  You-Sheng Lin,  Fenglai Liu,  E. Livshits,  A. Luenser,  
 P. Manohar,  E. Mansoor,  S. F. Manzer,  Shan-Ping Mao,  Yuezhi Mao,  
 N. Mardirossian,  A. V. Marenich,  L. A. Martinez-Martinez,  S. A. Maurer,  
 N. J. Mayhall,  S. C. McKenzie,  J.-M. Mewes,  A. F. Morrison,  K. Nanda,  
 T. S. Nguyen-Beck,  R. Olivares-Amaya,  J. A. Parkhill,  T. M. Perrine,  
 F. Plasser,  S. Prager,  A. Prociuk,  D. R. Rehn,  F. Rob,  M. Schneider,  
 N. Sergueev,  S. M. Sharada,  S. Sharma,  D. W. Small,  T. Stauch,  
 T. Stein,  Yu-Chuan Su,  A. J. W. Thom,  T. Tsuchimochi,  L. Vogt,  
 O. Vydrov,  M. A. Watson,  J. Wenzel,  M. de Wergifosse,  T. A. Wesolowski,  
 A. White,  J. Witte,  A. Yamada,  Jun Yang,  K. Yao,  S. Yeganeh,  
 S. R. Yost,  Zhi-Qiang You,  A. Zech,  Igor Ying Zhang,  Xing Zhang,  
 Yan Zhao,  Ying Zhu,  B. R. Brooks,  G. K. L. Chan,  C. J. Cramer,  
 M. S. Gordon,  W. J. Hehre,  A. Klamt,  M. W. Schmidt,  C. D. Sherrill,  
 D. G. Truhlar,  A. Aspuru-Guzik,  R. Baer,  A. T. Bell,  N. A. Besley,  
 Jeng-Da Chai,  A. Dreuw,  B. D. Dunietz,  T. R. Furlani,  Chao-Ping Hsu,  
 Yousung Jung,  Jing Kong,  D. S. Lambrecht,  WanZhen Liang,  C. Ochsenfeld,  
 V. A. Rassolov,  L. V. Slipchenko,  J. E. Subotnik,  T. Van Voorhis,  
 J. M. Herbert,  A. I. Krylov,  P. M. W. Gill,  M. Head-Gordon

 Contributors to earlier versions of Q-Chem not listed above: 
 R. D. Adamson,  B. Austin,  J. Baker,  G. J. O. Beran,  K. Brandhorst,  
 S. T. Brown,  E. F. C. Byrd,  A. K. Chakraborty,  C.-L. Cheng,  
 Siu Hung Chien,  D. M. Chipman,  D. L. Crittenden,  H. Dachsel,  
 R. A. DiStasio Jr.,  R. J. Doerksen,  A. D. Dutoi,  L. Fusti-Molnar,  
 W. A. Goddard III,  A. Golubeva-Zadorozhnaya,  S. R. Gwaltney,  G. Hawkins,  
 A. Heyden,  S. Hirata,  G. Kedziora,  F. J. Keil,  C. Kelley,  Jihan Kim,  
 R. A. King,  R. Z. Khaliullin,  P. P. Korambath,  W. Kurlancheek,  
 A. M. Lee,  M. S. Lee,  S. V. Levchenko,  Ching Yeh Lin,  D. Liotard,  
 R. C. Lochan,  I. Lotan,  P. E. Maslen,  N. Nair,  D. P. O'Neill,  
 D. Neuhauser,  E. Neuscamman,  C. M. Oana,  R. Olson,  B. Peters,  
 R. Peverati,  P. A. Pieniazek,  Y. M. Rhee,  J. Ritchie,  M. A. Rohrdanz,  
 E. Rosta,  N. J. Russ,  H. F. Schaefer III,  N. E. Schultz,  N. Shenvi,  
 A. C. Simmonett,  A. Sodt,  D. Stuck,  K. S. Thanthiriwatte,  V. Vanovschi,  
 Tao Wang,  A. Warshel,  C. F. Williams,  Q. Wu,  X. Xu,  W. Zhang

 Please cite Q-Chem as follows:
 Y. Shao et al., Mol. Phys. 113, 184-215 (2015)
 DOI: 10.1080/00268976.2014.952696

 Q-Chem 5.0.1 for Intel X86 EM64T Linux

 Parts of Q-Chem use Armadillo 5.200.1 (Boston Tea Smuggler).
 http://arma.sourceforge.net/

 Q-Chem begins on Tue Apr 17 22:51:22 2018  

Host: vega02.cac.cornell.edu
0

     Scratch files written to /scratch/jj585/vdw/0100_distance_3.900_01.save//
 Parallel job on  1  processors

Checking the input file for inconsistencies... 	...done.

--------------------------------------------------------------
User input:
--------------------------------------------------------------
$molecule
0  1
C        +0.21976000        +2.15985000        +4.31887000
C        +0.66423000        +0.72914000        +4.74358000
C        +1.34371000        +2.53582000        +3.32893000
C        +2.64342000        +2.84595000        +4.10240000
C        +3.08206000        +1.41489000        +4.53097000
C        +1.96074000        +0.53933000        +3.91326000
O        +1.64479000        +1.27541000        +2.70498000
H        +3.38190000        +3.30512000        +3.44270000
H        +2.47742000        +3.52108000        +4.94491000
H        +4.04721000        +1.14838000        +4.09562000
H        +3.15342000        +1.28999000        +5.61378000
H        +1.06998000        +3.26261000        +2.56572000
C        +2.33851000        -0.88627000        +3.58412000
H        +3.21384000        -0.91067000        +2.93037000
H        +1.51444000        -1.39674000        +3.07988000
H        +2.57677000        -1.43595000        +4.49914000
H        -0.74602000        +2.13890000        +3.81091000
H        +0.14904000        +2.85922000        +5.15464000
H        +0.84370000        +0.63297000        +5.81668000
H        -0.07699000        -0.02009000        +4.45690000
@C        +0.20553000        +1.04146000        +0.58269000
@C        +0.65000000        -0.38925000        +1.00740000
@C        +1.32948000        +1.41743000        -0.40725000
@C        +2.62919000        +1.72756000        +0.36622000
@C        +3.06783000        +0.29650000        +0.79479000
@C        +1.94651000        -0.57906000        +0.17708000
@O        +1.63056000        +0.15702000        -1.03120000
@H        +3.36767000        +2.18673000        -0.29348000
@H        +2.46319000        +2.40269000        +1.20873000
@H        +4.03298000        +0.02999000        +0.35944000
@H        +3.13919000        +0.17160000        +1.87760000
@H        +1.05575000        +2.14422000        -1.17046000
@C        +2.32428000        -2.00466000        -0.15206000
@H        +3.19961000        -2.02906000        -0.80581000
@H        +1.50021000        -2.51513000        -0.65630000
@H        +2.56254000        -2.55434000        +0.76296000
@H        -0.76025000        +1.02051000        +0.07473000
@H        +0.13481000        +1.74083000        +1.41846000
@H        +0.82947000        -0.48542000        +2.08050000
@H        -0.09122000        -1.13848000        +0.72072000
$end

$rem
JOBTYPE                   SP
METHOD                    B3LYP
DFT_D                     d3_op
BASIS                     6-311++G(d,p)
SYMMETRY                  False
THRESH                    12
SCF_CONVERGENCE           8
MAX_SUB_FILE_NUM          128
MEM_STATIC                400
MEM_TOTAL                 4000
$end
--------------------------------------------------------------
 Adding empirical dispersion correction 
 ----------------------------------------------------------------
 Doing -D3(op) with
 s6 =   1.00000
 s8 =   0.78311
 a1 =   0.30000
 a2 =   4.25000
 n  =  10.00000
 -D3 energy without 3body term =     -0.0174425452 hartrees
 ----------------------------------------------------------------
             Standard Nuclear Orientation (Angstroms)
    I     Atom           X                Y                Z
 ----------------------------------------------------------------
    1      C       0.2197600000     2.1598500000     4.3188700000
    2      C       0.6642300000     0.7291400000     4.7435800000
    3      C       1.3437100000     2.5358200000     3.3289300000
    4      C       2.6434200000     2.8459500000     4.1024000000
    5      C       3.0820600000     1.4148900000     4.5309700000
    6      C       1.9607400000     0.5393300000     3.9132600000
    7      O       1.6447900000     1.2754100000     2.7049800000
    8      H       3.3819000000     3.3051200000     3.4427000000
    9      H       2.4774200000     3.5210800000     4.9449100000
   10      H       4.0472100000     1.1483800000     4.0956200000
   11      H       3.1534200000     1.2899900000     5.6137800000
   12      H       1.0699800000     3.2626100000     2.5657200000
   13      C       2.3385100000    -0.8862700000     3.5841200000
   14      H       3.2138400000    -0.9106700000     2.9303700000
   15      H       1.5144400000    -1.3967400000     3.0798800000
   16      H       2.5767700000    -1.4359500000     4.4991400000
   17      H      -0.7460200000     2.1389000000     3.8109100000
   18      H       0.1490400000     2.8592200000     5.1546400000
   19      H       0.8437000000     0.6329700000     5.8166800000
   20      H      -0.0769900000    -0.0200900000     4.4569000000
   21      GH      0.2055300000     1.0414600000     0.5826900000
   22      GH      0.6500000000    -0.3892500000     1.0074000000
   23      GH      1.3294800000     1.4174300000    -0.4072500000
   24      GH      2.6291900000     1.7275600000     0.3662200000
   25      GH      3.0678300000     0.2965000000     0.7947900000
   26      GH      1.9465100000    -0.5790600000     0.1770800000
   27      GH      1.6305600000     0.1570200000    -1.0312000000
   28      GH      3.3676700000     2.1867300000    -0.2934800000
   29      GH      2.4631900000     2.4026900000     1.2087300000
   30      GH      4.0329800000     0.0299900000     0.3594400000
   31      GH      3.1391900000     0.1716000000     1.8776000000
   32      GH      1.0557500000     2.1442200000    -1.1704600000
   33      GH      2.3242800000    -2.0046600000    -0.1520600000
   34      GH      3.1996100000    -2.0290600000    -0.8058100000
   35      GH      1.5002100000    -2.5151300000    -0.6563000000
   36      GH      2.5625400000    -2.5543400000     0.7629600000
   37      GH     -0.7602500000     1.0205100000     0.0747300000
   38      GH      0.1348100000     1.7408300000     1.4184600000
   39      GH      0.8294700000    -0.4854200000     2.0805000000
   40      GH     -0.0912200000    -1.1384800000     0.7207200000
 ----------------------------------------------------------------
 Nuclear Repulsion Energy =   415.1590146406 hartrees
 There are       31 alpha and       31 beta electrons
 Requested basis set is 6-311++G(d,p)
 There are 216 shells and 520 basis functions

 Total QAlloc Memory Limit   4000 MB
 Mega-Array Size       392 MB
 MEM_STATIC part       400 MB
 A cutoff of  1.0D-12 yielded  20463 shell pairs
 There are    119381 function pairs (    126733 Cartesian)
 
 -------------------------------------------------------
 OpenMP Integral Computing Module                       
 Release: version 1.0, May 2013, Q-Chem Inc. Pittsburgh 
 -------------------------------------------------------
 Integral Job Info:
 Integral job number is                      11
 Integral operator is                         1
 short-range coefficients                     0
 long-range coefficients              100000000
 Omega coefficients                           0
 if combine SR and LR in K                    0
 Integral screening is                        0
 Integral computing path is                   2
 max size of driver memory is            800000
 size of driver memory is                593474
 size of scratch memory is              2361544
 max col of scratch BK array               1296
 max len of scratch array in speh3          155
 max len of scratch index in speh4           18
 max int batch size is                      520
 min int batch size is                       52
 fixed nKL is                                52
 max L of basis functions is                  2
 order of int derivative is                   0
 number of shells is                        216
 number of basis is                         536
 number of cartesian basis is               536
 number of contracted shell pairs         20463
 number of primitive shell pairs          43428
 maxK2 (contraction) of shell pair           36
 max number of K2 of shell pair               1
 max number of CS2 of shell pair           3623
 max number of PS2 of shell pair           6390
 mem total for path MDJ                  168888
 -------------------------------------------------------
 Smallest overlap matrix eigenvalue = 5.23E-07
 Linear dependence detected in AO basis
 Number of orthogonalized atomic orbitals = 519
 Maximum deviation from orthogonality = 1.411E-10

 Scale SEOQF with 1.000000e-01/1.000000e-01/1.000000e-02

 Standard Electronic Orientation quadrupole field applied
 Nucleus-field energy     =     0.0000000132 hartrees
 Guess from superposition of atomic densities
 Warning:  Energy on first SCF cycle will be non-variational

 Q-Chem warning in module /opt/software/qchem/qchem-5.0.1/libgen/Atomic_PolEc.C, line 58:

 No atomic polarizability available.


 Q-Chem warning in module /opt/software/qchem/qchem-5.0.1/libgen/Atomic_PolEc.C, line 73:

 No atomic polarizability available.


 Q-Chem warning in module /opt/software/qchem/qchem-5.0.1/libgen/Atomic_PolEc.C, line 58:

 No atomic polarizability available.


 Q-Chem warning in module /opt/software/qchem/qchem-5.0.1/libgen/Atomic_PolEc.C, line 73:

 No atomic polarizability available.


 Q-Chem warning in module /opt/software/qchem/qchem-5.0.1/libgen/Atomic_PolEc.C, line 58:

 No atomic polarizability available.


 Q-Chem warning in module /opt/software/qchem/qchem-5.0.1/libgen/Atomic_PolEc.C, line 73:

 No atomic polarizability available.


 Q-Chem warning in module /opt/software/qchem/qchem-5.0.1/libgen/Atomic_PolEc.C, line 58:

 No atomic polarizability available.


 Q-Chem warning in module /opt/software/qchem/qchem-5.0.1/libgen/Atomic_PolEc.C, line 73:

 No atomic polarizability available.


 Q-Chem warning in module /opt/software/qchem/qchem-5.0.1/libgen/Atomic_PolEc.C, line 58:

 No atomic polarizability available.


 Q-Chem warning in module /opt/software/qchem/qchem-5.0.1/libgen/Atomic_PolEc.C, line 73:

 No atomic polarizability available.


 Q-Chem warning in module /opt/software/qchem/qchem-5.0.1/libgen/Atomic_PolEc.C, line 58:

 No atomic polarizability available.


 Q-Chem warning in module /opt/software/qchem/qchem-5.0.1/libgen/Atomic_PolEc.C, line 73:

 No atomic polarizability available.


 Q-Chem warning in module /opt/software/qchem/qchem-5.0.1/libgen/Atomic_PolEc.C, line 58:

 No atomic polarizability available.


 Q-Chem warning in module /opt/software/qchem/qchem-5.0.1/libgen/Atomic_PolEc.C, line 73:

 No atomic polarizability available.


 Q-Chem warning in module /opt/software/qchem/qchem-5.0.1/libgen/Atomic_PolEc.C, line 58:

 No atomic polarizability available.


 Q-Chem warning in module /opt/software/qchem/qchem-5.0.1/libgen/Atomic_PolEc.C, line 73:

 No atomic polarizability available.


 Q-Chem warning in module /opt/software/qchem/qchem-5.0.1/libgen/Atomic_PolEc.C, line 58:

 No atomic polarizability available.


 Q-Chem warning in module /opt/software/qchem/qchem-5.0.1/libgen/Atomic_PolEc.C, line 73:

 No atomic polarizability available.


 Q-Chem warning in module /opt/software/qchem/qchem-5.0.1/libgen/Atomic_PolEc.C, line 58:

 No atomic polarizability available.


 Q-Chem warning in module /opt/software/qchem/qchem-5.0.1/libgen/Atomic_PolEc.C, line 73:

 No atomic polarizability available.


 Q-Chem warning in module /opt/software/qchem/qchem-5.0.1/libgen/Atomic_PolEc.C, line 58:

 No atomic polarizability available.


 Q-Chem warning in module /opt/software/qchem/qchem-5.0.1/libgen/Atomic_PolEc.C, line 73:

 No atomic polarizability available.


 Q-Chem warning in module /opt/software/qchem/qchem-5.0.1/libgen/Atomic_PolEc.C, line 58:

 No atomic polarizability available.


 Q-Chem warning in module /opt/software/qchem/qchem-5.0.1/libgen/Atomic_PolEc.C, line 73:

 No atomic polarizability available.


 Q-Chem warning in module /opt/software/qchem/qchem-5.0.1/libgen/Atomic_PolEc.C, line 58:

 No atomic polarizability available.


 Q-Chem warning in module /opt/software/qchem/qchem-5.0.1/libgen/Atomic_PolEc.C, line 73:

 No atomic polarizability available.


 Q-Chem warning in module /opt/software/qchem/qchem-5.0.1/libgen/Atomic_PolEc.C, line 58:

 No atomic polarizability available.


 Q-Chem warning in module /opt/software/qchem/qchem-5.0.1/libgen/Atomic_PolEc.C, line 73:

 No atomic polarizability available.


 Q-Chem warning in module /opt/software/qchem/qchem-5.0.1/libgen/Atomic_PolEc.C, line 58:

 No atomic polarizability available.


 Q-Chem warning in module /opt/software/qchem/qchem-5.0.1/libgen/Atomic_PolEc.C, line 73:

 No atomic polarizability available.


 Q-Chem warning in module /opt/software/qchem/qchem-5.0.1/libgen/Atomic_PolEc.C, line 58:

 No atomic polarizability available.


 Q-Chem warning in module /opt/software/qchem/qchem-5.0.1/libgen/Atomic_PolEc.C, line 73:

 No atomic polarizability available.


 Q-Chem warning in module /opt/software/qchem/qchem-5.0.1/libgen/Atomic_PolEc.C, line 58:

 No atomic polarizability available.


 Q-Chem warning in module /opt/software/qchem/qchem-5.0.1/libgen/Atomic_PolEc.C, line 73:

 No atomic polarizability available.


 Q-Chem warning in module /opt/software/qchem/qchem-5.0.1/libgen/Atomic_PolEc.C, line 58:

 No atomic polarizability available.


 Q-Chem warning in module /opt/software/qchem/qchem-5.0.1/libgen/Atomic_PolEc.C, line 73:

 No atomic polarizability available.


 Q-Chem warning in module /opt/software/qchem/qchem-5.0.1/libgen/Atomic_PolEc.C, line 58:

 No atomic polarizability available.


 Q-Chem warning in module /opt/software/qchem/qchem-5.0.1/libgen/Atomic_PolEc.C, line 73:

 No atomic polarizability available.


 Q-Chem warning in module /opt/software/qchem/qchem-5.0.1/libgen/Atomic_PolEc.C, line 58:

 No atomic polarizability available.


 Q-Chem warning in module /opt/software/qchem/qchem-5.0.1/libgen/Atomic_PolEc.C, line 73:

 No atomic polarizability available.

 A restricted hybrid HF-DFT SCF calculation will be
 performed using Pulay DIIS extrapolation
 Exchange:     0.2000 Hartree-Fock + 0.0800 Slater + 0.7200 B88
 Correlation:  0.1900 VWN1RPA + 0.8100 LYP
 Using SG-1 standard quadrature grid
 Dispersion:   Grimme D3
 SCF converges when DIIS error is below 1.0E-08
 using 4 threads for integral computing
 -------------------------------------------------------
 OpenMP Integral computing Module                
 Release: version 1.0, May 2013, Q-Chem Inc. Pittsburgh 
 -------------------------------------------------------
 -------------------------------------------------------
 OpenMP BLAS3 based DFT computing Module                
 Release: version 1.0, May 2013, Q-Chem Inc. Pittsburgh 
 -------------------------------------------------------
 ---------------------------------------
  Cycle       Energy         DIIS Error
 ---------------------------------------
    1    -350.9006885749      1.90E-02
    2    -349.1246180071      2.29E-03
    3    -349.0340869834      2.85E-03
    4    -349.2994657082      4.30E-04
    5    -349.3036231747      1.65E-04
    6    -349.3042637994      4.80E-05
    7    -349.3043143646      1.74E-05
    8    -349.3043231077      1.51E-06
    9    -349.3043231737      6.81E-07
   10    -349.3043231882      1.50E-07
   11    -349.3043231889      2.92E-08
   12    -349.3043231889      1.04E-08
   13    -349.3043231889      2.93E-09 Convergence criterion met
 ---------------------------------------
 SCF time:  CPU 1022.11 s  wall 257.58 s
 SCF   energy in the final basis set = -349.30432319
 Total energy in the final basis set = -349.30432319
 
 --------------------------------------------------------------
 
                    Orbital Energies (a.u.)
 --------------------------------------------------------------
 
 Alpha MOs
 -- Occupied --
-19.115 -10.224 -10.217 -10.168 -10.168 -10.168 -10.167 -10.161
 -1.044  -0.799  -0.773  -0.750  -0.679  -0.613  -0.573  -0.554
 -0.498  -0.481  -0.467  -0.434  -0.413  -0.405  -0.391  -0.371
 -0.362  -0.346  -0.344  -0.339  -0.319  -0.302  -0.262
 -- Virtual --
 -0.011   0.003   0.009   0.011   0.026   0.029   0.031   0.032
  0.033   0.049   0.054   0.058   0.059   0.060   0.063   0.073
  0.074   0.074   0.085   0.085   0.089   0.096   0.099   0.105
  0.108   0.109   0.110   0.112   0.117   0.121   0.123   0.127
  0.129   0.134   0.138   0.138   0.140   0.147   0.149   0.152
  0.153   0.158   0.163   0.163   0.166   0.168   0.169   0.173
  0.173   0.178   0.179   0.185   0.189   0.191   0.194   0.194
  0.202   0.203   0.207   0.208   0.211   0.214   0.214   0.223
  0.224   0.227   0.234   0.235   0.239   0.245   0.247   0.253
  0.254   0.255   0.255   0.265   0.269   0.273   0.275   0.277
  0.279   0.282   0.291   0.295   0.298   0.307   0.308   0.316
  0.322   0.330   0.334   0.339   0.348   0.351   0.358   0.359
  0.368   0.371   0.374   0.380   0.381   0.389   0.396   0.398
  0.400   0.406   0.408   0.417   0.422   0.424   0.429   0.443
  0.444   0.455   0.458   0.465   0.484   0.486   0.488   0.495
  0.506   0.524   0.529   0.533   0.549   0.553   0.558   0.563
  0.573   0.580   0.586   0.594   0.605   0.609   0.613   0.635
  0.639   0.639   0.645   0.650   0.663   0.664   0.667   0.679
  0.679   0.683   0.687   0.696   0.719   0.720   0.728   0.729
  0.733   0.741   0.750   0.750   0.758   0.762   0.767   0.771
  0.780   0.791   0.793   0.795   0.797   0.808   0.818   0.823
  0.825   0.840   0.842   0.850   0.859   0.874   0.883   0.906
  0.921   0.924   0.938   0.955   0.960   0.993   1.000   1.009
  1.012   1.025   1.034   1.041   1.064   1.088   1.109   1.120
  1.140   1.153   1.166   1.187   1.187   1.210   1.214   1.228
  1.243   1.249   1.263   1.275   1.285   1.312   1.328   1.340
  1.348   1.359   1.389   1.399   1.442   1.447   1.467   1.486
  1.509   1.514   1.529   1.531   1.540   1.547   1.566   1.579
  1.588   1.598   1.612   1.612   1.626   1.642   1.651   1.656
  1.667   1.671   1.686   1.698   1.699   1.707   1.716   1.717
  1.726   1.732   1.750   1.755   1.761   1.777   1.783   1.804
  1.811   1.813   1.828   1.829   1.837   1.838   1.838   1.851
  1.864   1.870   1.875   1.895   1.902   1.903   1.907   1.920
  1.928   1.947   1.950   1.961   1.973   1.977   1.992   2.005
  2.012   2.025   2.026   2.029   2.047   2.056   2.082   2.089
  2.095   2.101   2.102   2.130   2.135   2.157   2.165   2.167
  2.177   2.184   2.193   2.226   2.231   2.232   2.246   2.259
  2.281   2.300   2.307   2.319   2.328   2.345   2.355   2.363
  2.370   2.395   2.396   2.413   2.431   2.443   2.448   2.464
  2.479   2.489   2.495   2.496   2.506   2.523   2.525   2.528
  2.540   2.542   2.564   2.564   2.572   2.587   2.603   2.637
  2.638   2.655   2.658   2.673   2.682   2.699   2.702   2.717
  2.734   2.757   2.760   2.762   2.796   2.801   2.818   2.823
  2.841   2.842   2.863   2.871   2.887   2.889   2.915   2.916
  2.917   2.936   2.955   2.980   2.985   2.987   3.007   3.033
  3.052   3.056   3.067   3.089   3.097   3.098   3.115   3.152
  3.166   3.167   3.185   3.207   3.215   3.234   3.248   3.288
  3.291   3.305   3.319   3.339   3.340   3.363   3.369   3.389
  3.436   3.476   3.496   3.554   3.559   3.588   3.590   3.596
  3.604   3.622   3.639   3.668   3.701   3.707   3.742   3.756
  3.771   3.842   3.865   3.910   3.914   3.918   3.923   3.975
  3.979   3.989   4.065   4.101   4.124   4.139   4.164   4.180
  4.247   4.391   4.458   4.461   4.642   4.644   4.750   4.805
  4.839   4.846   4.861   4.897   4.907   4.915   4.927   5.005
  5.086   5.134   5.142   5.342   5.360   5.678   5.714   5.723
  7.359   7.480   7.531   7.538   7.661   7.722   7.728   7.743
  7.813   7.824   7.902   7.940   7.982   8.066   8.192   8.304
  8.331   8.392   8.460   8.684   8.767   9.929   9.938  10.021
 10.031  10.039  10.124  10.169  13.621  13.952  14.033  18.667
 23.837  23.857  23.967  23.987  23.994  24.005  24.135  50.033
 69.778  69.835  69.904  69.936  69.975  69.997  70.191 139.587
 --------------------------------------------------------------
 
          Ground-State Mulliken Net Atomic Charges

     Atom                 Charge (a.u.)
  ----------------------------------------
      1 C                    -0.635737
      2 C                    -0.309456
      3 C                     0.524609
      4 C                    -0.641004
      5 C                    -0.302337
      6 C                    -0.027261
      7 O                     0.017241
      8 H                     0.149254
      9 H                     0.144491
     10 H                     0.167517
     11 H                     0.145937
     12 H                     0.236180
     13 C                    -0.487551
     14 H                     0.163771
     15 H                     0.164376
     16 H                     0.182195
     17 H                     0.148975
     18 H                     0.143823
     19 H                     0.146066
     20 H                     0.167868
     21 GH                    0.011902
     22 GH                    0.055646
     23 GH                   -0.114873
     24 GH                    0.011332
     25 GH                    0.056638
     26 GH                    0.012823
     27 GH                   -0.008006
     28 GH                    0.004867
     29 GH                   -0.076502
     30 GH                    0.002869
     31 GH                   -0.035027
     32 GH                   -0.005587
     33 GH                    0.090421
     34 GH                    0.000196
     35 GH                    0.000190
     36 GH                   -0.000156
     37 GH                    0.005126
     38 GH                   -0.078034
     39 GH                   -0.035454
     40 GH                    0.002671
  ----------------------------------------
  Sum of atomic charges =     0.000000

 -----------------------------------------------------------------
                    Cartesian Multipole Moments
 -----------------------------------------------------------------
    Charge (ESU x 10^10)
                 0.0000
    Dipole Moment (Debye)
         X       0.0410      Y       0.3593      Z       1.5823
       Tot       1.6231
    Quadrupole Moments (Debye-Ang)
        XX     -49.7910     XY       0.0837     YY     -47.3379
        XZ       2.9139     YZ       2.5626     ZZ     -40.7020
    Octopole Moments (Debye-Ang^2)
       XXX    -261.7609    XXY     -66.3330    XYY     -85.2635
       YYY    -185.5603    XXZ    -194.9905    XYZ       2.4702
       YYZ    -189.3300    XZZ     -70.1939    YZZ     -52.2111
       ZZZ    -549.7658
    Hexadecapole Moments (Debye-Ang^3)
      XXXX   -1300.8204   XXXY    -321.4860   XXYY    -396.0229
      XYYY    -306.2206   YYYY   -1037.1386   XXXZ   -1033.4899
      XXYZ    -265.4604   XYYZ    -336.2690   YYYZ    -754.2968
      XXZZ   -1027.6047   XYZZ     -92.8954   YYZZ    -963.0472
      XZZZ    -943.7709   YZZZ    -719.2874   ZZZZ   -4711.9061
 -----------------------------------------------------------------
Archival summary:
1\1\vega02.cac.cornell.edu\SP\ProcedureUnspecified\BasisUnspecified\1712h20\jj585\TueApr1722:55:412018TueApr1722:55:412018\0\\#,ProcedureUnspecified,BasisUnspecified,\\0,1\O\C,1,1.43826\H,2,1.08887,1,109.48\C,1,1.44968,2,97.4122,3,-179.997,0\C,4,1.51109,1,110.608,2,-179.857,0\H,5,1.09267,4,110.654,1,-60.1503,0\H,5,1.09279,4,110.587,1,60.1246,0\H,5,1.0937,4,110.266,1,179.936,0\Gh,7,1.51169,5,111.167,4,-40.5778,0\Gh,9,1.09232,7,140.845,5,-116.003,0\Gh,10,1.09182,9,108.035,7,-72.474,0\Gh,6,1.51606,5,111.354,4,40.2751,0\Gh,12,1.09225,6,140.787,5,115.561,0\Gh,13,1.09222,12,107.998,6,73.3667,0\C,2,1.54392,1,102.541,3,-122.992,0\H,15,1.09151,2,110.565,1,82.9957,0\H,15,1.09233,2,112.496,1,-156.17,0\C,2,1.54421,1,102.539,3,123.004,0\H,18,1.09142,2,110.51,1,-83.1176,0\H,18,1.09208,2,112.447,1,155.951,0\Gh,10,1.55098,9,112.178,7,48.9724,0\Gh,21,1.44968,10,101.706,9,155.019,0\Gh,22,1.43826,21,97.4122,10,-56.0474,0\Gh,23,1.08887,22,109.48,21,-179.997,0\Gh,21,1.51109,10,116.014,9,-84.9089,0\Gh,25,1.09267,21,110.654,10,-175.282,0\Gh,25,1.09279,21,110.587,10,-55.0073,0\Gh,25,1.0937,21,110.266,10,64.8037,0\Gh,23,1.54392,22,102.541,21,57.0109,0\Gh,29,1.09151,23,110.565,22,82.9957,0\Gh,29,1.09233,23,112.496,22,-156.17,0\Gh,23,1.54421,22,102.539,21,-56.9923,0\Gh,32,1.09142,23,110.51,22,-83.1176,0\Gh,32,1.09208,23,112.447,22,155.951,0\C,4,1.55098,1,101.706,2,-56.0474,0\H,35,1.09182,4,110.029,1,-84.6846,0\H,35,1.09232,4,112.178,1,155.019,0\C,4,1.55126,1,101.645,2,56.1901,0\H,38,1.09222,4,110.045,1,84.5395,0\H,38,1.09225,4,112.196,1,-155.189,0\\\@

 Total job time:  258.53s(wall), 1024.86s(cpu) 
 Tue Apr 17 22:55:41 2018

        *************************************************************
        *                                                           *
        *  Thank you very much for using Q-Chem.  Have a nice day.  *
        *                                                           *
        *************************************************************


0 sent ACK to 0 
now end server 0 ... 
