mFile = /opt/software/qchem/qchem-5.0.1//bin/mpi/machines
Process 0 of 1 is on vega02.cac.cornell.edu - thread support 0
initial socket setup ...start
initial socket setup ...done 
now start server 0 ... 
vega02.cac.cornell.edu 10.84.3
Q-Chem Developer Version! Running on 10.84.3.*
                  Welcome to Q-Chem
     A Quantum Leap Into The Future Of Chemistry


 Q-Chem 5.0, Q-Chem, Inc., Pleasanton, CA (2017)

 Yihan Shao,  Zhengting Gan,  E. Epifanovsky,  A. T. B. Gilbert,  M. Wormit,  
 J. Kussmann,  A. W. Lange,  A. Behn,  Jia Deng,  Xintian Feng,  D. Ghosh,  
 M. Goldey,  P. R. Horn,  L. D. Jacobson,  I. Kaliman,  T. Kus,  A. Landau,  
 Jie Liu,  E. I. Proynov,  R. M. Richard,  R. P. Steele,  E. J. Sundstrom,  
 H. L. Woodcock III,  P. M. Zimmerman,  D. Zuev,  B. Albrecht,  E. Alguire,  
 S. A. Baeppler,  Z. Benda,  Y. A. Bernard,  E. J. Berquist,  K. B. Bravaya,  
 D. Casanova,  Chun-Min Chang,  Yunqing Chen,  A. Chien,  K. D. Closser,  
 M. P. Coons,  S. Dasgupta,  M. Diedenhofen,  Hainam Do,  R. G. Edgar,  
 Po-Tung Fang,  S. Fatehi,  Qingguo Feng,  Qinghui Ge,  A. Ghysels,  
 J. Gomes,  J. Gonthier,  A. Gunina,  M. W. D. Hanson-Heine,  
 P. H. P. Harbach,  A. W. Hauser,  J. E. Herr,  E. G. Hohenstein,  
 Z. C. Holden,  Kerwin Hui,  T.-C. Jagau,  Hyunjun Ji,  B. Kaduk,  
 K. Khistyaev,  Jaehoon Kim,  P. Klunzinger,  K. Koh,  D. Kosenkov,  
 T. Kowalczyk,  C. M. Krauter,  A. Kunitsa,  Ka Un Lao,  A. Laurent,  
 K. V. Lawler,  Joonho Lee,  D. Lefrancois,  S. Lehtola,  D. S. Levine,  
 Yi-Pei Li,  You-Sheng Lin,  Fenglai Liu,  E. Livshits,  A. Luenser,  
 P. Manohar,  E. Mansoor,  S. F. Manzer,  Shan-Ping Mao,  Yuezhi Mao,  
 N. Mardirossian,  A. V. Marenich,  L. A. Martinez-Martinez,  S. A. Maurer,  
 N. J. Mayhall,  S. C. McKenzie,  J.-M. Mewes,  A. F. Morrison,  K. Nanda,  
 T. S. Nguyen-Beck,  R. Olivares-Amaya,  J. A. Parkhill,  T. M. Perrine,  
 F. Plasser,  S. Prager,  A. Prociuk,  D. R. Rehn,  F. Rob,  M. Schneider,  
 N. Sergueev,  S. M. Sharada,  S. Sharma,  D. W. Small,  T. Stauch,  
 T. Stein,  Yu-Chuan Su,  A. J. W. Thom,  T. Tsuchimochi,  L. Vogt,  
 O. Vydrov,  M. A. Watson,  J. Wenzel,  M. de Wergifosse,  T. A. Wesolowski,  
 A. White,  J. Witte,  A. Yamada,  Jun Yang,  K. Yao,  S. Yeganeh,  
 S. R. Yost,  Zhi-Qiang You,  A. Zech,  Igor Ying Zhang,  Xing Zhang,  
 Yan Zhao,  Ying Zhu,  B. R. Brooks,  G. K. L. Chan,  C. J. Cramer,  
 M. S. Gordon,  W. J. Hehre,  A. Klamt,  M. W. Schmidt,  C. D. Sherrill,  
 D. G. Truhlar,  A. Aspuru-Guzik,  R. Baer,  A. T. Bell,  N. A. Besley,  
 Jeng-Da Chai,  A. Dreuw,  B. D. Dunietz,  T. R. Furlani,  Chao-Ping Hsu,  
 Yousung Jung,  Jing Kong,  D. S. Lambrecht,  WanZhen Liang,  C. Ochsenfeld,  
 V. A. Rassolov,  L. V. Slipchenko,  J. E. Subotnik,  T. Van Voorhis,  
 J. M. Herbert,  A. I. Krylov,  P. M. W. Gill,  M. Head-Gordon

 Contributors to earlier versions of Q-Chem not listed above: 
 R. D. Adamson,  B. Austin,  J. Baker,  G. J. O. Beran,  K. Brandhorst,  
 S. T. Brown,  E. F. C. Byrd,  A. K. Chakraborty,  C.-L. Cheng,  
 Siu Hung Chien,  D. M. Chipman,  D. L. Crittenden,  H. Dachsel,  
 R. A. DiStasio Jr.,  R. J. Doerksen,  A. D. Dutoi,  L. Fusti-Molnar,  
 W. A. Goddard III,  A. Golubeva-Zadorozhnaya,  S. R. Gwaltney,  G. Hawkins,  
 A. Heyden,  S. Hirata,  G. Kedziora,  F. J. Keil,  C. Kelley,  Jihan Kim,  
 R. A. King,  R. Z. Khaliullin,  P. P. Korambath,  W. Kurlancheek,  
 A. M. Lee,  M. S. Lee,  S. V. Levchenko,  Ching Yeh Lin,  D. Liotard,  
 R. C. Lochan,  I. Lotan,  P. E. Maslen,  N. Nair,  D. P. O'Neill,  
 D. Neuhauser,  E. Neuscamman,  C. M. Oana,  R. Olson,  B. Peters,  
 R. Peverati,  P. A. Pieniazek,  Y. M. Rhee,  J. Ritchie,  M. A. Rohrdanz,  
 E. Rosta,  N. J. Russ,  H. F. Schaefer III,  N. E. Schultz,  N. Shenvi,  
 A. C. Simmonett,  A. Sodt,  D. Stuck,  K. S. Thanthiriwatte,  V. Vanovschi,  
 Tao Wang,  A. Warshel,  C. F. Williams,  Q. Wu,  X. Xu,  W. Zhang

 Please cite Q-Chem as follows:
 Y. Shao et al., Mol. Phys. 113, 184-215 (2015)
 DOI: 10.1080/00268976.2014.952696

 Q-Chem 5.0.1 for Intel X86 EM64T Linux

 Parts of Q-Chem use Armadillo 5.200.1 (Boston Tea Smuggler).
 http://arma.sourceforge.net/

 Q-Chem begins on Tue Apr 17 23:23:41 2018  

Host: vega02.cac.cornell.edu
0

     Scratch files written to /scratch/jj585/vdw/0110_distance_3.900_10.save//
 Parallel job on  1  processors

Checking the input file for inconsistencies... 	...done.

--------------------------------------------------------------
User input:
--------------------------------------------------------------
$molecule
0  1
C        +0.20186000        +1.01419000        +0.57588000
C        +0.65458000        -0.40740000        +1.00877000
C        +1.31047000        +1.40432000        -0.43622000
C        +2.61036000        +1.71622000        +0.34904000
C        +3.06420000        +0.29616000        +0.78527000
C        +1.94960000        -0.59295000        +0.17632000
O        +1.62620000        +0.12693000        -1.03574000
H        +3.34518000        +2.18171000        -0.31153000
H        +2.43386000        +2.39558000        +1.18603000
H        +4.02983000        +0.03650000        +0.34656000
H        +3.14253000        +0.17627000        +1.86830000
C        +0.91819000        +2.41036000        -1.49368000
C        +2.33867000        -2.01935000        -0.13734000
H        +3.21332000        -2.04461000        -0.79203000
H        +2.58239000        -2.55643000        +0.78377000
H        +1.51806000        -2.54232000        -0.63447000
H        +1.73500000        +2.55908000        -2.20400000
H        +0.68341000        +3.37378000        -1.03196000
H        +0.03753000        +2.06800000        -2.04235000
H        +0.83643000        -0.49892000        +2.08202000
H        -0.08220000        -1.16297000        +0.72684000
H        -0.76801000        +0.98583000        +0.07445000
H        +0.13288000        +1.72189000        +1.40479000
@C        +0.21633000        +2.15906000        +4.30402000
@C        +0.66905000        +0.73747000        +4.73691000
@C        +1.32494000        +2.54919000        +3.29192000
@C        +2.62483000        +2.86109000        +4.07718000
@C        +3.07867000        +1.44103000        +4.51341000
@C        +1.96407000        +0.55192000        +3.90446000
@O        +1.64067000        +1.27180000        +2.69240000
@H        +3.35965000        +3.32658000        +3.41661000
@H        +2.44833000        +3.54045000        +4.91417000
@H        +4.04430000        +1.18137000        +4.07470000
@H        +3.15700000        +1.32114000        +5.59644000
@C        +0.93266000        +3.55523000        +2.23446000
@C        +2.35314000        -0.87448000        +3.59080000
@H        +3.22779000        -0.89974000        +2.93611000
@H        +2.59686000        -1.41156000        +4.51191000
@H        +1.53253000        -1.39745000        +3.09367000
@H        +1.74947000        +3.70395000        +1.52414000
@H        +0.69788000        +4.51865000        +2.69618000
@H        +0.05200000        +3.21287000        +1.68579000
@H        +0.85090000        +0.64595000        +5.81016000
@H        -0.06773000        -0.01810000        +4.45498000
@H        -0.75354000        +2.13070000        +3.80259000
@H        +0.14735000        +2.86676000        +5.13293000
$end

$rem
JOBTYPE                   SP
METHOD                    B3LYP
DFT_D                     d3_op
BASIS                     6-311++G(d,p)
SYMMETRY                  False
THRESH                    12
SCF_CONVERGENCE           8
MAX_SUB_FILE_NUM          128
MEM_STATIC                400
MEM_TOTAL                 4000
$end
--------------------------------------------------------------
 Adding empirical dispersion correction 
 ----------------------------------------------------------------
 Doing -D3(op) with
 s6 =   1.00000
 s8 =   0.78311
 a1 =   0.30000
 a2 =   4.25000
 n  =  10.00000
 -D3 energy without 3body term =     -0.0215647334 hartrees
 ----------------------------------------------------------------
             Standard Nuclear Orientation (Angstroms)
    I     Atom           X                Y                Z
 ----------------------------------------------------------------
    1      C       0.2018600000     1.0141900000     0.5758800000
    2      C       0.6545800000    -0.4074000000     1.0087700000
    3      C       1.3104700000     1.4043200000    -0.4362200000
    4      C       2.6103600000     1.7162200000     0.3490400000
    5      C       3.0642000000     0.2961600000     0.7852700000
    6      C       1.9496000000    -0.5929500000     0.1763200000
    7      O       1.6262000000     0.1269300000    -1.0357400000
    8      H       3.3451800000     2.1817100000    -0.3115300000
    9      H       2.4338600000     2.3955800000     1.1860300000
   10      H       4.0298300000     0.0365000000     0.3465600000
   11      H       3.1425300000     0.1762700000     1.8683000000
   12      C       0.9181900000     2.4103600000    -1.4936800000
   13      C       2.3386700000    -2.0193500000    -0.1373400000
   14      H       3.2133200000    -2.0446100000    -0.7920300000
   15      H       2.5823900000    -2.5564300000     0.7837700000
   16      H       1.5180600000    -2.5423200000    -0.6344700000
   17      H       1.7350000000     2.5590800000    -2.2040000000
   18      H       0.6834100000     3.3737800000    -1.0319600000
   19      H       0.0375300000     2.0680000000    -2.0423500000
   20      H       0.8364300000    -0.4989200000     2.0820200000
   21      H      -0.0822000000    -1.1629700000     0.7268400000
   22      H      -0.7680100000     0.9858300000     0.0744500000
   23      H       0.1328800000     1.7218900000     1.4047900000
   24      GH      0.2163300000     2.1590600000     4.3040200000
   25      GH      0.6690500000     0.7374700000     4.7369100000
   26      GH      1.3249400000     2.5491900000     3.2919200000
   27      GH      2.6248300000     2.8610900000     4.0771800000
   28      GH      3.0786700000     1.4410300000     4.5134100000
   29      GH      1.9640700000     0.5519200000     3.9044600000
   30      GH      1.6406700000     1.2718000000     2.6924000000
   31      GH      3.3596500000     3.3265800000     3.4166100000
   32      GH      2.4483300000     3.5404500000     4.9141700000
   33      GH      4.0443000000     1.1813700000     4.0747000000
   34      GH      3.1570000000     1.3211400000     5.5964400000
   35      GH      0.9326600000     3.5552300000     2.2344600000
   36      GH      2.3531400000    -0.8744800000     3.5908000000
   37      GH      3.2277900000    -0.8997400000     2.9361100000
   38      GH      2.5968600000    -1.4115600000     4.5119100000
   39      GH      1.5325300000    -1.3974500000     3.0936700000
   40      GH      1.7494700000     3.7039500000     1.5241400000
   41      GH      0.6978800000     4.5186500000     2.6961800000
   42      GH      0.0520000000     3.2128700000     1.6857900000
   43      GH      0.8509000000     0.6459500000     5.8101600000
   44      GH     -0.0677300000    -0.0181000000     4.4549800000
   45      GH     -0.7535400000     2.1307000000     3.8025900000
   46      GH      0.1473500000     2.8667600000     5.1329300000
 ----------------------------------------------------------------
 Nuclear Repulsion Energy =   505.5140981702 hartrees
 There are       35 alpha and       35 beta electrons
 Requested basis set is 6-311++G(d,p)
 There are 248 shells and 592 basis functions

 Total QAlloc Memory Limit   4000 MB
 Mega-Array Size       392 MB
 MEM_STATIC part       400 MB
 A cutoff of  1.0D-12 yielded  26468 shell pairs
 There are    151552 function pairs (    160698 Cartesian)
 
 -------------------------------------------------------
 OpenMP Integral Computing Module                       
 Release: version 1.0, May 2013, Q-Chem Inc. Pittsburgh 
 -------------------------------------------------------
 Integral Job Info:
 Integral job number is                      11
 Integral operator is                         1
 short-range coefficients                     0
 long-range coefficients              100000000
 Omega coefficients                           0
 if combine SR and LR in K                    0
 Integral screening is                        0
 Integral computing path is                   2
 max size of driver memory is            800000
 size of driver memory is                593474
 size of scratch memory is              2361544
 max col of scratch BK array               1296
 max len of scratch array in speh3          155
 max len of scratch index in speh4           18
 max int batch size is                      520
 min int batch size is                       52
 fixed nKL is                                52
 max L of basis functions is                  2
 order of int derivative is                   0
 number of shells is                        248
 number of basis is                         610
 number of cartesian basis is               610
 number of contracted shell pairs         26468
 number of primitive shell pairs          55238
 maxK2 (contraction) of shell pair           36
 max number of K2 of shell pair               1
 max number of CS2 of shell pair           4738
 max number of PS2 of shell pair           8268
 mem total for path MDJ                  210072
 -------------------------------------------------------
 Smallest overlap matrix eigenvalue = 2.48E-07
 Linear dependence detected in AO basis
 Number of orthogonalized atomic orbitals = 589
 Maximum deviation from orthogonality = 1.911E-10

 Scale SEOQF with 1.000000e-01/1.000000e-01/1.000000e-02

 Standard Electronic Orientation quadrupole field applied
 Nucleus-field energy     =     0.0000000196 hartrees
 Guess from superposition of atomic densities
 Warning:  Energy on first SCF cycle will be non-variational

 Q-Chem warning in module /opt/software/qchem/qchem-5.0.1/libgen/Atomic_PolEc.C, line 58:

 No atomic polarizability available.


 Q-Chem warning in module /opt/software/qchem/qchem-5.0.1/libgen/Atomic_PolEc.C, line 73:

 No atomic polarizability available.


 Q-Chem warning in module /opt/software/qchem/qchem-5.0.1/libgen/Atomic_PolEc.C, line 58:

 No atomic polarizability available.


 Q-Chem warning in module /opt/software/qchem/qchem-5.0.1/libgen/Atomic_PolEc.C, line 73:

 No atomic polarizability available.


 Q-Chem warning in module /opt/software/qchem/qchem-5.0.1/libgen/Atomic_PolEc.C, line 58:

 No atomic polarizability available.


 Q-Chem warning in module /opt/software/qchem/qchem-5.0.1/libgen/Atomic_PolEc.C, line 73:

 No atomic polarizability available.


 Q-Chem warning in module /opt/software/qchem/qchem-5.0.1/libgen/Atomic_PolEc.C, line 58:

 No atomic polarizability available.


 Q-Chem warning in module /opt/software/qchem/qchem-5.0.1/libgen/Atomic_PolEc.C, line 73:

 No atomic polarizability available.


 Q-Chem warning in module /opt/software/qchem/qchem-5.0.1/libgen/Atomic_PolEc.C, line 58:

 No atomic polarizability available.


 Q-Chem warning in module /opt/software/qchem/qchem-5.0.1/libgen/Atomic_PolEc.C, line 73:

 No atomic polarizability available.


 Q-Chem warning in module /opt/software/qchem/qchem-5.0.1/libgen/Atomic_PolEc.C, line 58:

 No atomic polarizability available.


 Q-Chem warning in module /opt/software/qchem/qchem-5.0.1/libgen/Atomic_PolEc.C, line 73:

 No atomic polarizability available.


 Q-Chem warning in module /opt/software/qchem/qchem-5.0.1/libgen/Atomic_PolEc.C, line 58:

 No atomic polarizability available.


 Q-Chem warning in module /opt/software/qchem/qchem-5.0.1/libgen/Atomic_PolEc.C, line 73:

 No atomic polarizability available.


 Q-Chem warning in module /opt/software/qchem/qchem-5.0.1/libgen/Atomic_PolEc.C, line 58:

 No atomic polarizability available.


 Q-Chem warning in module /opt/software/qchem/qchem-5.0.1/libgen/Atomic_PolEc.C, line 73:

 No atomic polarizability available.


 Q-Chem warning in module /opt/software/qchem/qchem-5.0.1/libgen/Atomic_PolEc.C, line 58:

 No atomic polarizability available.


 Q-Chem warning in module /opt/software/qchem/qchem-5.0.1/libgen/Atomic_PolEc.C, line 73:

 No atomic polarizability available.


 Q-Chem warning in module /opt/software/qchem/qchem-5.0.1/libgen/Atomic_PolEc.C, line 58:

 No atomic polarizability available.


 Q-Chem warning in module /opt/software/qchem/qchem-5.0.1/libgen/Atomic_PolEc.C, line 73:

 No atomic polarizability available.


 Q-Chem warning in module /opt/software/qchem/qchem-5.0.1/libgen/Atomic_PolEc.C, line 58:

 No atomic polarizability available.


 Q-Chem warning in module /opt/software/qchem/qchem-5.0.1/libgen/Atomic_PolEc.C, line 73:

 No atomic polarizability available.


 Q-Chem warning in module /opt/software/qchem/qchem-5.0.1/libgen/Atomic_PolEc.C, line 58:

 No atomic polarizability available.


 Q-Chem warning in module /opt/software/qchem/qchem-5.0.1/libgen/Atomic_PolEc.C, line 73:

 No atomic polarizability available.


 Q-Chem warning in module /opt/software/qchem/qchem-5.0.1/libgen/Atomic_PolEc.C, line 58:

 No atomic polarizability available.


 Q-Chem warning in module /opt/software/qchem/qchem-5.0.1/libgen/Atomic_PolEc.C, line 73:

 No atomic polarizability available.


 Q-Chem warning in module /opt/software/qchem/qchem-5.0.1/libgen/Atomic_PolEc.C, line 58:

 No atomic polarizability available.


 Q-Chem warning in module /opt/software/qchem/qchem-5.0.1/libgen/Atomic_PolEc.C, line 73:

 No atomic polarizability available.


 Q-Chem warning in module /opt/software/qchem/qchem-5.0.1/libgen/Atomic_PolEc.C, line 58:

 No atomic polarizability available.


 Q-Chem warning in module /opt/software/qchem/qchem-5.0.1/libgen/Atomic_PolEc.C, line 73:

 No atomic polarizability available.


 Q-Chem warning in module /opt/software/qchem/qchem-5.0.1/libgen/Atomic_PolEc.C, line 58:

 No atomic polarizability available.


 Q-Chem warning in module /opt/software/qchem/qchem-5.0.1/libgen/Atomic_PolEc.C, line 73:

 No atomic polarizability available.


 Q-Chem warning in module /opt/software/qchem/qchem-5.0.1/libgen/Atomic_PolEc.C, line 58:

 No atomic polarizability available.


 Q-Chem warning in module /opt/software/qchem/qchem-5.0.1/libgen/Atomic_PolEc.C, line 73:

 No atomic polarizability available.


 Q-Chem warning in module /opt/software/qchem/qchem-5.0.1/libgen/Atomic_PolEc.C, line 58:

 No atomic polarizability available.


 Q-Chem warning in module /opt/software/qchem/qchem-5.0.1/libgen/Atomic_PolEc.C, line 73:

 No atomic polarizability available.


 Q-Chem warning in module /opt/software/qchem/qchem-5.0.1/libgen/Atomic_PolEc.C, line 58:

 No atomic polarizability available.


 Q-Chem warning in module /opt/software/qchem/qchem-5.0.1/libgen/Atomic_PolEc.C, line 73:

 No atomic polarizability available.


 Q-Chem warning in module /opt/software/qchem/qchem-5.0.1/libgen/Atomic_PolEc.C, line 58:

 No atomic polarizability available.


 Q-Chem warning in module /opt/software/qchem/qchem-5.0.1/libgen/Atomic_PolEc.C, line 73:

 No atomic polarizability available.


 Q-Chem warning in module /opt/software/qchem/qchem-5.0.1/libgen/Atomic_PolEc.C, line 58:

 No atomic polarizability available.


 Q-Chem warning in module /opt/software/qchem/qchem-5.0.1/libgen/Atomic_PolEc.C, line 73:

 No atomic polarizability available.


 Q-Chem warning in module /opt/software/qchem/qchem-5.0.1/libgen/Atomic_PolEc.C, line 58:

 No atomic polarizability available.


 Q-Chem warning in module /opt/software/qchem/qchem-5.0.1/libgen/Atomic_PolEc.C, line 73:

 No atomic polarizability available.


 Q-Chem warning in module /opt/software/qchem/qchem-5.0.1/libgen/Atomic_PolEc.C, line 58:

 No atomic polarizability available.


 Q-Chem warning in module /opt/software/qchem/qchem-5.0.1/libgen/Atomic_PolEc.C, line 73:

 No atomic polarizability available.

 A restricted hybrid HF-DFT SCF calculation will be
 performed using Pulay DIIS extrapolation
 Exchange:     0.2000 Hartree-Fock + 0.0800 Slater + 0.7200 B88
 Correlation:  0.1900 VWN1RPA + 0.8100 LYP
 Using SG-1 standard quadrature grid
 Dispersion:   Grimme D3
 SCF converges when DIIS error is below 1.0E-08
 using 4 threads for integral computing
 -------------------------------------------------------
 OpenMP Integral computing Module                
 Release: version 1.0, May 2013, Q-Chem Inc. Pittsburgh 
 -------------------------------------------------------
 -------------------------------------------------------
 OpenMP BLAS3 based DFT computing Module                
 Release: version 1.0, May 2013, Q-Chem Inc. Pittsburgh 
 -------------------------------------------------------
 ---------------------------------------
  Cycle       Energy         DIIS Error
 ---------------------------------------
    1    -390.4184351490      1.78E-02
    2    -388.4201329173      2.22E-03
    3    -388.3274788152      2.68E-03
    4    -388.6323935027      4.33E-04
    5    -388.6380412240      1.47E-04
    6    -388.6386872707      4.34E-05
    7    -388.6387430461      1.46E-05
    8    -388.6387509354      1.26E-06
    9    -388.6387509991      4.76E-07
   10    -388.6387510075      1.59E-07
   11    -388.6387510086      1.47E-08
   12    -388.6387510086      3.26E-09 Convergence criterion met
 ---------------------------------------
 SCF time:  CPU 1440.14 s  wall 363.49 s
 SCF   energy in the final basis set = -388.63875101
 Total energy in the final basis set = -388.63875101
 
 --------------------------------------------------------------
 
                    Orbital Energies (a.u.)
 --------------------------------------------------------------
 
 Alpha MOs
 -- Occupied --
-19.113 -10.223 -10.223 -10.166 -10.166 -10.166 -10.166 -10.160
-10.160  -1.043  -0.799  -0.788  -0.749  -0.716  -0.650  -0.613
 -0.557  -0.553  -0.484  -0.475  -0.466  -0.440  -0.417  -0.408
 -0.404  -0.402  -0.383  -0.359  -0.344  -0.343  -0.341  -0.335
 -0.317  -0.298  -0.260
 -- Virtual --
 -0.012  -0.000   0.008   0.010   0.022   0.026   0.029   0.031
  0.036   0.039   0.053   0.053   0.054   0.056   0.059   0.064
  0.067   0.071   0.079   0.081   0.082   0.083   0.085   0.094
  0.098   0.099   0.102   0.105   0.110   0.111   0.113   0.113
  0.116   0.123   0.125   0.127   0.130   0.133   0.139   0.143
  0.146   0.148   0.149   0.154   0.154   0.156   0.159   0.159
  0.164   0.167   0.168   0.170   0.170   0.174   0.175   0.176
  0.178   0.182   0.183   0.187   0.200   0.200   0.201   0.205
  0.209   0.210   0.213   0.215   0.218   0.221   0.222   0.224
  0.227   0.236   0.236   0.240   0.241   0.248   0.252   0.258
  0.258   0.259   0.261   0.263   0.267   0.269   0.270   0.274
  0.277   0.279   0.290   0.290   0.293   0.298   0.303   0.305
  0.306   0.311   0.318   0.324   0.332   0.340   0.342   0.346
  0.353   0.355   0.356   0.368   0.369   0.370   0.372   0.380
  0.385   0.386   0.391   0.393   0.394   0.399   0.408   0.413
  0.423   0.426   0.428   0.433   0.441   0.448   0.454   0.454
  0.459   0.465   0.476   0.481   0.486   0.494   0.497   0.498
  0.500   0.504   0.521   0.527   0.530   0.541   0.542   0.558
  0.558   0.569   0.579   0.587   0.587   0.591   0.602   0.606
  0.613   0.625   0.628   0.630   0.635   0.639   0.646   0.662
  0.663   0.665   0.673   0.683   0.685   0.687   0.692   0.699
  0.707   0.719   0.720   0.725   0.737   0.740   0.747   0.752
  0.758   0.763   0.776   0.782   0.784   0.786   0.798   0.799
  0.807   0.812   0.817   0.824   0.826   0.829   0.835   0.839
  0.850   0.874   0.878   0.879   0.880   0.890   0.899   0.906
  0.907   0.922   0.937   0.943   0.949   0.979   0.987   0.998
  1.026   1.049   1.054   1.059   1.082   1.087   1.100   1.114
  1.124   1.135   1.148   1.160   1.188   1.206   1.207   1.211
  1.225   1.243   1.259   1.264   1.267   1.292   1.294   1.295
  1.322   1.325   1.326   1.367   1.390   1.396   1.403   1.427
  1.443   1.451   1.462   1.462   1.464   1.490   1.495   1.518
  1.525   1.543   1.544   1.545   1.556   1.574   1.585   1.587
  1.587   1.597   1.601   1.604   1.620   1.632   1.638   1.642
  1.645   1.659   1.662   1.669   1.683   1.694   1.696   1.713
  1.717   1.730   1.734   1.742   1.745   1.751   1.760   1.773
  1.788   1.809   1.810   1.812   1.814   1.828   1.830   1.843
  1.847   1.859   1.859   1.867   1.869   1.872   1.890   1.897
  1.900   1.904   1.916   1.918   1.920   1.924   1.933   1.952
  1.987   1.990   1.993   2.000   2.001   2.004   2.010   2.030
  2.031   2.033   2.039   2.049   2.059   2.059   2.087   2.093
  2.106   2.113   2.122   2.143   2.168   2.169   2.188   2.201
  2.206   2.208   2.217   2.220   2.228   2.231   2.244   2.279
  2.280   2.290   2.305   2.306   2.308   2.327   2.344   2.361
  2.367   2.373   2.395   2.401   2.406   2.413   2.421   2.434
  2.452   2.460   2.468   2.469   2.470   2.484   2.490   2.493
  2.493   2.508   2.528   2.529   2.532   2.534   2.541   2.542
  2.563   2.571   2.586   2.608   2.634   2.639   2.639   2.655
  2.668   2.669   2.676   2.685   2.692   2.704   2.715   2.716
  2.735   2.747   2.757   2.766   2.768   2.774   2.818   2.825
  2.852   2.861   2.864   2.869   2.873   2.908   2.911   2.922
  2.923   2.931   2.963   2.963   2.978   2.996   2.999   3.019
  3.039   3.042   3.058   3.070   3.082   3.084   3.103   3.128
  3.136   3.137   3.150   3.164   3.170   3.182   3.201   3.232
  3.252   3.255   3.265   3.290   3.299   3.303   3.317   3.327
  3.332   3.350   3.386   3.395   3.450   3.456   3.522   3.525
  3.553   3.560   3.572   3.587   3.594   3.606   3.642   3.674
  3.700   3.700   3.700   3.717   3.734   3.775   3.803   3.825
  3.832   3.834   3.838   3.852   3.866   3.898   3.925   3.931
  3.947   3.989   4.015   4.076   4.103   4.113   4.142   4.144
  4.208   4.220   4.280   4.306   4.452   4.489   4.601   4.630
  4.734   4.738   4.814   4.833   4.850   4.851   4.863   4.885
  4.889   4.923   4.931   4.958   5.024   5.057   5.129   5.212
  5.304   5.537   5.681   5.700   7.393   7.430   7.529   7.561
  7.590   7.633   7.675   7.748   7.759   7.797   7.814   7.839
  7.911   7.932   7.996   8.029   8.112   8.171   8.259   8.389
  8.493   8.494   8.645   8.769   9.903   9.904   9.971   9.983
 10.012  10.036  10.039  10.204  13.703  14.117  14.154  18.635
 23.804  23.911  23.982  23.983  24.006  24.021  24.089  24.135
 50.004  69.787  69.823  69.919  69.933  69.950  69.966  69.997
 70.090 139.766
 --------------------------------------------------------------
 
          Ground-State Mulliken Net Atomic Charges

     Atom                 Charge (a.u.)
  ----------------------------------------
      1 C                    -0.128645
      2 C                    -0.132935
      3 C                    -0.670851
      4 C                    -0.131643
      5 C                    -0.127881
      6 C                    -0.661232
      7 O                     0.101424
      8 H                     0.221304
      9 H                     0.084439
     10 H                     0.221264
     11 H                     0.081702
     12 C                    -0.185297
     13 C                    -0.186474
     14 H                     0.148124
     15 H                     0.150471
     16 H                     0.147979
     17 H                     0.148150
     18 H                     0.150388
     19 H                     0.147926
     20 H                     0.083867
     21 H                     0.221783
     22 H                     0.221171
     23 H                     0.082692
     24 GH                   -0.012563
     25 GH                   -0.011947
     26 GH                   -0.010233
     27 GH                   -0.013198
     28 GH                   -0.011752
     29 GH                   -0.013871
     30 GH                   -0.032714
     31 GH                    0.004342
     32 GH                   -0.000093
     33 GH                    0.004342
     34 GH                   -0.000062
     35 GH                    0.012453
     36 GH                    0.013192
     37 GH                    0.022834
     38 GH                   -0.007533
     39 GH                    0.022567
     40 GH                    0.022855
     41 GH                   -0.007615
     42 GH                    0.022685
     43 GH                   -0.000103
     44 GH                    0.004423
     45 GH                    0.004329
     46 GH                   -0.000064
  ----------------------------------------
  Sum of atomic charges =     0.000000

 -----------------------------------------------------------------
                    Cartesian Multipole Moments
 -----------------------------------------------------------------
    Charge (ESU x 10^10)
                 0.0000
    Dipole Moment (Debye)
         X       0.0087      Y       0.4547      Z       1.4776
       Tot       1.5460
    Quadrupole Moments (Debye-Ang)
        XX     -56.6067     XY       0.1811     YY     -54.8894
        XZ       2.5687     YZ      -0.6419     ZZ     -59.1432
    Octopole Moments (Debye-Ang^2)
       XXX    -277.0051    XXY     -26.8415    XYY     -90.4183
       YYY     -74.3728    XXZ       1.3048    XYZ      -1.5663
       YYZ      -1.0538    XZZ     -95.9769    YZZ     -23.9297
       ZZZ       5.8839
    Hexadecapole Moments (Debye-Ang^3)
      XXXX   -1330.0424   XXXY     -67.9632   XXYY    -360.8131
      XYYY     -60.2763   YYYY    -834.9770   XXXZ     -26.7335
      XXYZ      18.2498   XYYZ      -9.5745   YYYZ      73.0423
      XXZZ    -287.1994   XYZZ     -19.5378   YYZZ    -194.4487
      XZZZ      -7.6092   YZZZ      69.0500   ZZZZ    -353.0704
 -----------------------------------------------------------------
Archival summary:
1\1\vega02.cac.cornell.edu\SP\ProcedureUnspecified\BasisUnspecified\1814h23\jj585\TueApr1723:29:462018TueApr1723:29:462018\0\\#,ProcedureUnspecified,BasisUnspecified,\\0,1\O\C,1,1.44597\C,1,1.44634,2,98.1095\C,2,1.51136,1,110.77,3,-179.998,0\H,4,1.09262,2,110.608,1,60.2832,0\H,4,1.09263,2,110.575,1,-60.0402,0\H,4,1.09384,2,110.283,1,-179.869,0\C,3,1.51141,1,110.694,2,-179.879,0\H,8,1.09272,3,110.657,1,-60.1545,0\H,8,1.09283,3,110.62,1,60.1323,0\H,8,1.09375,3,110.244,1,179.953,0\C,2,1.55036,1,101.809,3,56.0867,0\H,12,1.09224,2,110.089,1,84.2905,0\H,12,1.09235,2,112.194,1,-155.556,0\Gh,14,1.51477,12,141.372,2,-47.9573,0\Gh,15,1.09263,14,111.426,12,115.359,0\Gh,16,1.09262,15,108.586,14,-81.199,0\Gh,16,1.09384,15,108.36,14,161.304,0\Gh,16,1.51136,15,110.575,14,40.3261,0\Gh,19,1.44597,16,110.77,15,-60.0402,0\Gh,20,1.44634,19,98.1095,16,-179.998,0\Gh,21,1.51141,20,110.694,19,-179.879,0\Gh,22,1.09272,21,110.657,20,-60.1545,0\Gh,22,1.09283,21,110.62,20,60.1323,0\Gh,22,1.09375,21,110.244,20,179.953,0\H,24,1.51832,22,111.1,21,-40.4865,0\C,26,1.09246,24,141.171,22,-115.685,0\H,27,1.09194,26,107.987,24,-72.8166,0\H,17,1.51938,16,110.944,15,80.8748,0\C,29,1.0921,17,141.227,16,-115.806,0\H,30,1.09219,29,108.011,17,-72.6149,0\H,23,1.52163,22,111.31,21,40.2558,0\C,32,1.09239,23,141.153,22,115.206,0\H,33,1.09234,32,107.933,23,73.639,0\Gh,19,1.55036,16,115.982,15,55.3209,0\Gh,35,1.09224,19,110.089,16,-36.0353,0\Gh,35,1.09235,19,112.194,16,84.118,0\Gh,21,1.55038,20,101.798,19,-56.0407,0\Gh,38,1.09194,21,109.973,20,-84.3583,0\Gh,38,1.09246,21,112.21,20,155.424,0\Gh,21,1.55064,20,101.747,19,56.1879,0\Gh,41,1.09234,21,109.998,20,84.2326,0\Gh,41,1.09239,21,112.234,20,-155.586,0\Gh,19,1.55099,16,116.007,15,-175.4,0\Gh,44,1.0921,19,112.175,16,-84.3324,0\Gh,44,1.09219,19,109.978,16,35.8962,0\\\@

 Total job time:  364.71s(wall), 1443.15s(cpu) 
 Tue Apr 17 23:29:46 2018

        *************************************************************
        *                                                           *
        *  Thank you very much for using Q-Chem.  Have a nice day.  *
        *                                                           *
        *************************************************************


0 sent ACK to 0 
now end server 0 ... 
