mFile = /opt/software/qchem/qchem-5.0.1//bin/mpi/machines
Process 0 of 1 is on vega02.cac.cornell.edu - thread support 0
initial socket setup ...start
initial socket setup ...done 
now start server 0 ... 
vega02.cac.cornell.edu 10.84.3
Q-Chem Developer Version! Running on 10.84.3.*
                  Welcome to Q-Chem
     A Quantum Leap Into The Future Of Chemistry


 Q-Chem 5.0, Q-Chem, Inc., Pleasanton, CA (2017)

 Yihan Shao,  Zhengting Gan,  E. Epifanovsky,  A. T. B. Gilbert,  M. Wormit,  
 J. Kussmann,  A. W. Lange,  A. Behn,  Jia Deng,  Xintian Feng,  D. Ghosh,  
 M. Goldey,  P. R. Horn,  L. D. Jacobson,  I. Kaliman,  T. Kus,  A. Landau,  
 Jie Liu,  E. I. Proynov,  R. M. Richard,  R. P. Steele,  E. J. Sundstrom,  
 H. L. Woodcock III,  P. M. Zimmerman,  D. Zuev,  B. Albrecht,  E. Alguire,  
 S. A. Baeppler,  Z. Benda,  Y. A. Bernard,  E. J. Berquist,  K. B. Bravaya,  
 D. Casanova,  Chun-Min Chang,  Yunqing Chen,  A. Chien,  K. D. Closser,  
 M. P. Coons,  S. Dasgupta,  M. Diedenhofen,  Hainam Do,  R. G. Edgar,  
 Po-Tung Fang,  S. Fatehi,  Qingguo Feng,  Qinghui Ge,  A. Ghysels,  
 J. Gomes,  J. Gonthier,  A. Gunina,  M. W. D. Hanson-Heine,  
 P. H. P. Harbach,  A. W. Hauser,  J. E. Herr,  E. G. Hohenstein,  
 Z. C. Holden,  Kerwin Hui,  T.-C. Jagau,  Hyunjun Ji,  B. Kaduk,  
 K. Khistyaev,  Jaehoon Kim,  P. Klunzinger,  K. Koh,  D. Kosenkov,  
 T. Kowalczyk,  C. M. Krauter,  A. Kunitsa,  Ka Un Lao,  A. Laurent,  
 K. V. Lawler,  Joonho Lee,  D. Lefrancois,  S. Lehtola,  D. S. Levine,  
 Yi-Pei Li,  You-Sheng Lin,  Fenglai Liu,  E. Livshits,  A. Luenser,  
 P. Manohar,  E. Mansoor,  S. F. Manzer,  Shan-Ping Mao,  Yuezhi Mao,  
 N. Mardirossian,  A. V. Marenich,  L. A. Martinez-Martinez,  S. A. Maurer,  
 N. J. Mayhall,  S. C. McKenzie,  J.-M. Mewes,  A. F. Morrison,  K. Nanda,  
 T. S. Nguyen-Beck,  R. Olivares-Amaya,  J. A. Parkhill,  T. M. Perrine,  
 F. Plasser,  S. Prager,  A. Prociuk,  D. R. Rehn,  F. Rob,  M. Schneider,  
 N. Sergueev,  S. M. Sharada,  S. Sharma,  D. W. Small,  T. Stauch,  
 T. Stein,  Yu-Chuan Su,  A. J. W. Thom,  T. Tsuchimochi,  L. Vogt,  
 O. Vydrov,  M. A. Watson,  J. Wenzel,  M. de Wergifosse,  T. A. Wesolowski,  
 A. White,  J. Witte,  A. Yamada,  Jun Yang,  K. Yao,  S. Yeganeh,  
 S. R. Yost,  Zhi-Qiang You,  A. Zech,  Igor Ying Zhang,  Xing Zhang,  
 Yan Zhao,  Ying Zhu,  B. R. Brooks,  G. K. L. Chan,  C. J. Cramer,  
 M. S. Gordon,  W. J. Hehre,  A. Klamt,  M. W. Schmidt,  C. D. Sherrill,  
 D. G. Truhlar,  A. Aspuru-Guzik,  R. Baer,  A. T. Bell,  N. A. Besley,  
 Jeng-Da Chai,  A. Dreuw,  B. D. Dunietz,  T. R. Furlani,  Chao-Ping Hsu,  
 Yousung Jung,  Jing Kong,  D. S. Lambrecht,  WanZhen Liang,  C. Ochsenfeld,  
 V. A. Rassolov,  L. V. Slipchenko,  J. E. Subotnik,  T. Van Voorhis,  
 J. M. Herbert,  A. I. Krylov,  P. M. W. Gill,  M. Head-Gordon

 Contributors to earlier versions of Q-Chem not listed above: 
 R. D. Adamson,  B. Austin,  J. Baker,  G. J. O. Beran,  K. Brandhorst,  
 S. T. Brown,  E. F. C. Byrd,  A. K. Chakraborty,  C.-L. Cheng,  
 Siu Hung Chien,  D. M. Chipman,  D. L. Crittenden,  H. Dachsel,  
 R. A. DiStasio Jr.,  R. J. Doerksen,  A. D. Dutoi,  L. Fusti-Molnar,  
 W. A. Goddard III,  A. Golubeva-Zadorozhnaya,  S. R. Gwaltney,  G. Hawkins,  
 A. Heyden,  S. Hirata,  G. Kedziora,  F. J. Keil,  C. Kelley,  Jihan Kim,  
 R. A. King,  R. Z. Khaliullin,  P. P. Korambath,  W. Kurlancheek,  
 A. M. Lee,  M. S. Lee,  S. V. Levchenko,  Ching Yeh Lin,  D. Liotard,  
 R. C. Lochan,  I. Lotan,  P. E. Maslen,  N. Nair,  D. P. O'Neill,  
 D. Neuhauser,  E. Neuscamman,  C. M. Oana,  R. Olson,  B. Peters,  
 R. Peverati,  P. A. Pieniazek,  Y. M. Rhee,  J. Ritchie,  M. A. Rohrdanz,  
 E. Rosta,  N. J. Russ,  H. F. Schaefer III,  N. E. Schultz,  N. Shenvi,  
 A. C. Simmonett,  A. Sodt,  D. Stuck,  K. S. Thanthiriwatte,  V. Vanovschi,  
 Tao Wang,  A. Warshel,  C. F. Williams,  Q. Wu,  X. Xu,  W. Zhang

 Please cite Q-Chem as follows:
 Y. Shao et al., Mol. Phys. 113, 184-215 (2015)
 DOI: 10.1080/00268976.2014.952696

 Q-Chem 5.0.1 for Intel X86 EM64T Linux

 Parts of Q-Chem use Armadillo 5.200.1 (Boston Tea Smuggler).
 http://arma.sourceforge.net/

 Q-Chem begins on Wed Apr 18 00:25:35 2018  

Host: vega02.cac.cornell.edu
0

     Scratch files written to /scratch/jj585/vdw/01n00_distance_3.900_10.save//
 Parallel job on  1  processors

Checking the input file for inconsistencies... 	...done.

--------------------------------------------------------------
User input:
--------------------------------------------------------------
$molecule
0  1
C        -0.55335000        -0.66344000        -0.04955000
C        -0.58369000        +0.72363000        +0.07143000
C        -1.74416000        -1.38805000        -0.12104000
C        -2.96100000        -0.71253000        -0.06974000
C        -2.98560000        +0.67733000        +0.05133000
C        -1.80096000        +1.41593000        +0.12202000
H        -3.93869000        +1.19496000        +0.09042000
H        -3.89285000        -1.26490000        -0.12448000
C        -1.82561000        +2.92062000        +0.24749000
H        -1.30124000        +3.39464000        -0.58804000
H        -1.33421000        +3.24931000        +1.16844000
H        -2.84892000        +3.30103000        +0.25949000
H        -1.72216000        -2.46788000        -0.21620000
H        +0.39889000        -1.18111000        -0.08841000
H        +0.34820000        +1.27792000        +0.12648000
@C        -0.57917000        -1.00260000        +3.83559000
@C        -0.60951000        +0.38447000        +3.95657000
@C        -1.76998000        -1.72721000        +3.76410000
@C        -2.98682000        -1.05169000        +3.81540000
@C        -3.01142000        +0.33817000        +3.93647000
@C        -1.82678000        +1.07677000        +4.00716000
@H        -3.96451000        +0.85580000        +3.97556000
@H        -3.91867000        -1.60406000        +3.76066000
@C        -1.85143000        +2.58146000        +4.13263000
@H        -1.32706000        +3.05548000        +3.29710000
@H        -1.36003000        +2.91015000        +5.05358000
@H        -2.87474000        +2.96187000        +4.14463000
@H        -1.74798000        -2.80704000        +3.66894000
@H        +0.37307000        -1.52027000        +3.79673000
@H        +0.32238000        +0.93876000        +4.01162000
$end

$rem
JOBTYPE                   SP
METHOD                    B3LYP
DFT_D                     d3_op
BASIS                     6-311++G(d,p)
SYMMETRY                  False
THRESH                    12
SCF_CONVERGENCE           8
MAX_SUB_FILE_NUM          128
MEM_STATIC                400
MEM_TOTAL                 4000
$end
--------------------------------------------------------------
 Adding empirical dispersion correction 
 ----------------------------------------------------------------
 Doing -D3(op) with
 s6 =   1.00000
 s8 =   0.78311
 a1 =   0.30000
 a2 =   4.25000
 n  =  10.00000
 -D3 energy without 3body term =     -0.0113715942 hartrees
 ----------------------------------------------------------------
             Standard Nuclear Orientation (Angstroms)
    I     Atom           X                Y                Z
 ----------------------------------------------------------------
    1      C      -0.5533500000    -0.6634400000    -0.0495500000
    2      C      -0.5836900000     0.7236300000     0.0714300000
    3      C      -1.7441600000    -1.3880500000    -0.1210400000
    4      C      -2.9610000000    -0.7125300000    -0.0697400000
    5      C      -2.9856000000     0.6773300000     0.0513300000
    6      C      -1.8009600000     1.4159300000     0.1220200000
    7      H      -3.9386900000     1.1949600000     0.0904200000
    8      H      -3.8928500000    -1.2649000000    -0.1244800000
    9      C      -1.8256100000     2.9206200000     0.2474900000
   10      H      -1.3012400000     3.3946400000    -0.5880400000
   11      H      -1.3342100000     3.2493100000     1.1684400000
   12      H      -2.8489200000     3.3010300000     0.2594900000
   13      H      -1.7221600000    -2.4678800000    -0.2162000000
   14      H       0.3988900000    -1.1811100000    -0.0884100000
   15      H       0.3482000000     1.2779200000     0.1264800000
   16      GH     -0.5791700000    -1.0026000000     3.8355900000
   17      GH     -0.6095100000     0.3844700000     3.9565700000
   18      GH     -1.7699800000    -1.7272100000     3.7641000000
   19      GH     -2.9868200000    -1.0516900000     3.8154000000
   20      GH     -3.0114200000     0.3381700000     3.9364700000
   21      GH     -1.8267800000     1.0767700000     4.0071600000
   22      GH     -3.9645100000     0.8558000000     3.9755600000
   23      GH     -3.9186700000    -1.6040600000     3.7606600000
   24      GH     -1.8514300000     2.5814600000     4.1326300000
   25      GH     -1.3270600000     3.0554800000     3.2971000000
   26      GH     -1.3600300000     2.9101500000     5.0535800000
   27      GH     -2.8747400000     2.9618700000     4.1446300000
   28      GH     -1.7479800000    -2.8070400000     3.6689400000
   29      GH      0.3730700000    -1.5202700000     3.7967300000
   30      GH      0.3223800000     0.9387600000     4.0116200000
 ----------------------------------------------------------------
 Nuclear Repulsion Energy =   268.9996227479 hartrees
 There are       25 alpha and       25 beta electrons
 Requested basis set is 6-311++G(d,p)
 There are 164 shells and 420 basis functions

 Total QAlloc Memory Limit   4000 MB
 Mega-Array Size       392 MB
 MEM_STATIC part       400 MB
 A cutoff of  1.0D-12 yielded  11506 shell pairs
 There are     77373 function pairs (     82630 Cartesian)
 
 -------------------------------------------------------
 OpenMP Integral Computing Module                       
 Release: version 1.0, May 2013, Q-Chem Inc. Pittsburgh 
 -------------------------------------------------------
 Integral Job Info:
 Integral job number is                      11
 Integral operator is                         1
 short-range coefficients                     0
 long-range coefficients              100000000
 Omega coefficients                           0
 if combine SR and LR in K                    0
 Integral screening is                        0
 Integral computing path is                   2
 max size of driver memory is            800000
 size of driver memory is                593474
 size of scratch memory is              2361544
 max col of scratch BK array               1296
 max len of scratch array in speh3          155
 max len of scratch index in speh4           18
 max int batch size is                      520
 min int batch size is                       52
 fixed nKL is                                52
 max L of basis functions is                  2
 order of int derivative is                   0
 number of shells is                        164
 number of basis is                         434
 number of cartesian basis is               434
 number of contracted shell pairs         11506
 number of primitive shell pairs          25134
 maxK2 (contraction) of shell pair           36
 max number of K2 of shell pair               1
 max number of CS2 of shell pair           2150
 max number of PS2 of shell pair           3576
 mem total for path MDJ                  136440
 -------------------------------------------------------
 Smallest overlap matrix eigenvalue = 1.85E-07
 Linear dependence detected in AO basis
 Number of orthogonalized atomic orbitals = 418
 Maximum deviation from orthogonality = 8.565E-11

 Scale SEOQF with 1.000000e-01/1.000000e-01/1.000000e-01

 Standard Electronic Orientation quadrupole field applied
 Nucleus-field energy     =     0.0000000167 hartrees
 Guess from superposition of atomic densities
 Warning:  Energy on first SCF cycle will be non-variational

 Q-Chem warning in module /opt/software/qchem/qchem-5.0.1/libgen/Atomic_PolEc.C, line 58:

 No atomic polarizability available.


 Q-Chem warning in module /opt/software/qchem/qchem-5.0.1/libgen/Atomic_PolEc.C, line 73:

 No atomic polarizability available.


 Q-Chem warning in module /opt/software/qchem/qchem-5.0.1/libgen/Atomic_PolEc.C, line 58:

 No atomic polarizability available.


 Q-Chem warning in module /opt/software/qchem/qchem-5.0.1/libgen/Atomic_PolEc.C, line 73:

 No atomic polarizability available.


 Q-Chem warning in module /opt/software/qchem/qchem-5.0.1/libgen/Atomic_PolEc.C, line 58:

 No atomic polarizability available.


 Q-Chem warning in module /opt/software/qchem/qchem-5.0.1/libgen/Atomic_PolEc.C, line 73:

 No atomic polarizability available.


 Q-Chem warning in module /opt/software/qchem/qchem-5.0.1/libgen/Atomic_PolEc.C, line 58:

 No atomic polarizability available.


 Q-Chem warning in module /opt/software/qchem/qchem-5.0.1/libgen/Atomic_PolEc.C, line 73:

 No atomic polarizability available.


 Q-Chem warning in module /opt/software/qchem/qchem-5.0.1/libgen/Atomic_PolEc.C, line 58:

 No atomic polarizability available.


 Q-Chem warning in module /opt/software/qchem/qchem-5.0.1/libgen/Atomic_PolEc.C, line 73:

 No atomic polarizability available.


 Q-Chem warning in module /opt/software/qchem/qchem-5.0.1/libgen/Atomic_PolEc.C, line 58:

 No atomic polarizability available.


 Q-Chem warning in module /opt/software/qchem/qchem-5.0.1/libgen/Atomic_PolEc.C, line 73:

 No atomic polarizability available.


 Q-Chem warning in module /opt/software/qchem/qchem-5.0.1/libgen/Atomic_PolEc.C, line 58:

 No atomic polarizability available.


 Q-Chem warning in module /opt/software/qchem/qchem-5.0.1/libgen/Atomic_PolEc.C, line 73:

 No atomic polarizability available.


 Q-Chem warning in module /opt/software/qchem/qchem-5.0.1/libgen/Atomic_PolEc.C, line 58:

 No atomic polarizability available.


 Q-Chem warning in module /opt/software/qchem/qchem-5.0.1/libgen/Atomic_PolEc.C, line 73:

 No atomic polarizability available.


 Q-Chem warning in module /opt/software/qchem/qchem-5.0.1/libgen/Atomic_PolEc.C, line 58:

 No atomic polarizability available.


 Q-Chem warning in module /opt/software/qchem/qchem-5.0.1/libgen/Atomic_PolEc.C, line 73:

 No atomic polarizability available.


 Q-Chem warning in module /opt/software/qchem/qchem-5.0.1/libgen/Atomic_PolEc.C, line 58:

 No atomic polarizability available.


 Q-Chem warning in module /opt/software/qchem/qchem-5.0.1/libgen/Atomic_PolEc.C, line 73:

 No atomic polarizability available.


 Q-Chem warning in module /opt/software/qchem/qchem-5.0.1/libgen/Atomic_PolEc.C, line 58:

 No atomic polarizability available.


 Q-Chem warning in module /opt/software/qchem/qchem-5.0.1/libgen/Atomic_PolEc.C, line 73:

 No atomic polarizability available.


 Q-Chem warning in module /opt/software/qchem/qchem-5.0.1/libgen/Atomic_PolEc.C, line 58:

 No atomic polarizability available.


 Q-Chem warning in module /opt/software/qchem/qchem-5.0.1/libgen/Atomic_PolEc.C, line 73:

 No atomic polarizability available.


 Q-Chem warning in module /opt/software/qchem/qchem-5.0.1/libgen/Atomic_PolEc.C, line 58:

 No atomic polarizability available.


 Q-Chem warning in module /opt/software/qchem/qchem-5.0.1/libgen/Atomic_PolEc.C, line 73:

 No atomic polarizability available.


 Q-Chem warning in module /opt/software/qchem/qchem-5.0.1/libgen/Atomic_PolEc.C, line 58:

 No atomic polarizability available.


 Q-Chem warning in module /opt/software/qchem/qchem-5.0.1/libgen/Atomic_PolEc.C, line 73:

 No atomic polarizability available.


 Q-Chem warning in module /opt/software/qchem/qchem-5.0.1/libgen/Atomic_PolEc.C, line 58:

 No atomic polarizability available.


 Q-Chem warning in module /opt/software/qchem/qchem-5.0.1/libgen/Atomic_PolEc.C, line 73:

 No atomic polarizability available.

 A restricted hybrid HF-DFT SCF calculation will be
 performed using Pulay DIIS extrapolation
 Exchange:     0.2000 Hartree-Fock + 0.0800 Slater + 0.7200 B88
 Correlation:  0.1900 VWN1RPA + 0.8100 LYP
 Using SG-1 standard quadrature grid
 Dispersion:   Grimme D3
 SCF converges when DIIS error is below 1.0E-08
 using 4 threads for integral computing
 -------------------------------------------------------
 OpenMP Integral computing Module                
 Release: version 1.0, May 2013, Q-Chem Inc. Pittsburgh 
 -------------------------------------------------------
 -------------------------------------------------------
 OpenMP BLAS3 based DFT computing Module                
 Release: version 1.0, May 2013, Q-Chem Inc. Pittsburgh 
 -------------------------------------------------------
 ---------------------------------------
  Cycle       Energy         DIIS Error
 ---------------------------------------
    1    -273.1175645652      2.18E-02
    2    -271.5019301033      2.46E-03
    3    -271.4676103109      2.75E-03
    4    -271.6496218032      2.11E-04
    5    -271.6502786035      1.13E-04
    6    -271.6505049960      4.34E-05
    7    -271.6505410443      1.76E-05
    8    -271.6505485672      1.32E-06
    9    -271.6505485994      7.25E-07
   10    -271.6505486101      1.27E-07
   11    -271.6505486104      3.57E-08
   12    -271.6505486104      1.67E-08
   13    -271.6505486104      8.98E-10 Convergence criterion met
 ---------------------------------------
 SCF time:  CPU 411.95 s  wall 103.34 s
 SCF   energy in the final basis set = -271.65054861
 Total energy in the final basis set = -271.65054861
 
 --------------------------------------------------------------
 
                    Orbital Energies (a.u.)
 --------------------------------------------------------------
 
 Alpha MOs
 -- Occupied --
-10.185 -10.176 -10.175 -10.173 -10.173 -10.173 -10.170  -0.860
 -0.775  -0.748  -0.689  -0.608  -0.587  -0.515  -0.464  -0.457
 -0.424  -0.423  -0.412  -0.389  -0.359  -0.346  -0.343  -0.257
 -0.248
 -- Virtual --
 -0.017  -0.012  -0.009   0.004   0.009   0.019   0.027   0.031
  0.036   0.040   0.048   0.054   0.059   0.063   0.065   0.067
  0.079   0.083   0.090   0.093   0.097   0.101   0.104   0.107
  0.111   0.113   0.119   0.123   0.126   0.127   0.130   0.131
  0.138   0.140   0.143   0.147   0.154   0.161   0.162   0.164
  0.169   0.173   0.175   0.178   0.179   0.181   0.185   0.186
  0.196   0.198   0.204   0.212   0.215   0.216   0.218   0.224
  0.231   0.235   0.237   0.243   0.245   0.250   0.251   0.259
  0.266   0.267   0.269   0.275   0.279   0.281   0.284   0.293
  0.298   0.302   0.305   0.311   0.314   0.325   0.330   0.332
  0.334   0.340   0.356   0.371   0.372   0.375   0.383   0.400
  0.409   0.413   0.418   0.427   0.437   0.441   0.447   0.464
  0.466   0.478   0.484   0.495   0.507   0.517   0.530   0.540
  0.549   0.551   0.560   0.569   0.577   0.583   0.593   0.603
  0.610   0.615   0.621   0.625   0.626   0.629   0.633   0.640
  0.645   0.657   0.660   0.667   0.677   0.701   0.706   0.713
  0.717   0.725   0.734   0.740   0.747   0.755   0.762   0.774
  0.781   0.791   0.806   0.818   0.827   0.848   0.857   0.863
  0.880   0.893   0.899   0.914   0.923   0.931   0.937   0.941
  0.957   0.962   0.972   1.003   1.014   1.018   1.024   1.046
  1.065   1.082   1.099   1.111   1.124   1.137   1.150   1.154
  1.174   1.184   1.203   1.219   1.275   1.347   1.370   1.376
  1.400   1.427   1.442   1.451   1.459   1.482   1.497   1.507
  1.519   1.526   1.534   1.542   1.544   1.549   1.562   1.569
  1.583   1.586   1.615   1.625   1.633   1.660   1.666   1.687
  1.698   1.709   1.719   1.726   1.734   1.745   1.747   1.760
  1.764   1.773   1.789   1.790   1.790   1.812   1.829   1.848
  1.855   1.862   1.873   1.889   1.892   1.904   1.910   1.938
  1.941   1.948   1.956   1.965   1.973   1.979   1.986   2.004
  2.028   2.037   2.041   2.046   2.047   2.070   2.090   2.096
  2.121   2.146   2.168   2.202   2.231   2.251   2.252   2.294
  2.301   2.306   2.316   2.323   2.371   2.392   2.398   2.402
  2.406   2.408   2.417   2.442   2.475   2.477   2.482   2.487
  2.500   2.522   2.539   2.554   2.560   2.566   2.575   2.578
  2.614   2.625   2.639   2.671   2.680   2.710   2.722   2.733
  2.744   2.759   2.767   2.781   2.790   2.816   2.831   2.845
  2.865   2.880   2.894   2.898   2.913   2.927   2.933   2.953
  2.969   2.974   2.988   3.000   3.026   3.038   3.085   3.106
  3.164   3.171   3.192   3.227   3.232   3.284   3.328   3.355
  3.385   3.401   3.411   3.432   3.443   3.489   3.516   3.530
  3.542   3.546   3.559   3.581   3.589   3.627   3.634   3.666
  3.726   3.758   3.803   3.835   3.850   4.005   4.019   4.053
  4.060   4.156   4.164   4.177   4.337   4.632   4.698   4.827
  4.847   4.854   4.869   4.922   4.983   5.084   5.494   7.066
  7.113   7.148   7.206   7.225   7.362   7.614   7.742   7.745
  7.772   7.778   7.792   7.822   7.838   7.873   7.970   7.989
  8.005   8.171   8.469   8.909   9.660   9.989  10.177  10.192
 10.239  10.244  10.305  23.643  23.937  23.983  24.005  24.088
 24.100  24.198  69.958  69.972  70.185  70.193  70.219  70.226
 70.267
 --------------------------------------------------------------
 
          Ground-State Mulliken Net Atomic Charges

     Atom                 Charge (a.u.)
  ----------------------------------------
      1 C                    -0.204404
      2 C                    -0.180904
      3 C                    -0.331139
      4 C                    -0.266493
      5 C                    -0.211605
      6 C                     0.587690
      7 H                     0.162183
      8 H                     0.173711
      9 C                    -0.731408
     10 H                     0.156165
     11 H                     0.172364
     12 H                     0.140316
     13 H                     0.154067
     14 H                     0.169585
     15 H                     0.180629
     16 GH                   -0.011591
     17 GH                    0.026397
     18 GH                    0.005952
     19 GH                   -0.006008
     20 GH                   -0.011998
     21 GH                   -0.004790
     22 GH                    0.005786
     23 GH                    0.003668
     24 GH                    0.015644
     25 GH                   -0.010166
     26 GH                    0.000158
     27 GH                    0.001578
     28 GH                    0.004043
     29 GH                    0.004378
     30 GH                    0.006189
  ----------------------------------------
  Sum of atomic charges =    -0.000000

 -----------------------------------------------------------------
                    Cartesian Multipole Moments
 -----------------------------------------------------------------
    Charge (ESU x 10^10)
                -0.0000
    Dipole Moment (Debye)
         X       0.0350      Y       0.4017      Z       0.0396
       Tot       0.4052
    Quadrupole Moments (Debye-Ang)
        XX     -39.2862     XY      -0.6424     YY     -38.4404
        XZ      -0.0162     YZ       0.7026     ZZ     -46.4525
    Octopole Moments (Debye-Ang^2)
       XXX     209.0652    XXY     -19.7794    XYY      68.6647
       YYY     -62.7304    XXZ      -1.8140    XYZ      -1.2892
       YYZ      -2.0069    XZZ      83.2551    YZZ     -19.5749
       ZZZ      -4.9610
    Hexadecapole Moments (Debye-Ang^3)
      XXXX   -1035.6852   XXXY     110.5118   XXYY    -282.4510
      XYYY     114.9615   YYYY    -684.9266   XXXZ       9.1615
      XXYZ      -5.3747   XYYZ       3.1359   YYYZ     -25.2505
      XXZZ    -220.0272   XYZZ      37.8481   YYZZ    -130.3352
      XZZZ       8.6029   YZZZ     -27.8156   ZZZZ     -68.3909
 -----------------------------------------------------------------
Archival summary:
1\1\vega02.cac.cornell.edu\SP\ProcedureUnspecified\BasisUnspecified\78h15\jj585\WedApr1800:27:192018WedApr1800:27:192018\0\\#,ProcedureUnspecified,BasisUnspecified,\\0,1\C\C,1,1.39782\H,2,1.08529,1,119.368\C,2,1.39534,1,121.049,3,179.94,0\H,4,1.08464,2,119.768,1,-179.901,0\C,4,1.39272,2,120.115,1,0.0547342,0\H,6,1.08424,4,120.267,2,-179.932,0\C,6,1.39578,4,119.454,2,0.0391297,0\H,8,1.08455,6,119.963,4,179.98,0\C,8,1.39267,6,120.193,4,-0.0300908,0\H,10,1.08567,8,119.617,6,179.987,0\C,1,1.51011,2,121.122,3,-0.187779,0\H,12,1.0918,1,111.308,2,-0.672818,0\H,12,1.09438,1,111.214,2,119.648,0\H,12,1.09443,1,111.119,2,-120.898,0\Gh,14,2.13748,12,144.324,1,-56.3063,0\Gh,16,1.09443,14,142.936,12,-3.14189,0\Gh,17,1.0918,16,107.852,14,-62.1046,0\Gh,17,1.09438,16,107.291,14,-178.081,0\Gh,17,1.51011,16,111.119,14,60.1481,0\Gh,20,1.39782,17,121.122,16,-120.898,0\Gh,21,1.08529,20,119.368,17,-0.187779,0\Gh,21,1.39534,20,121.049,17,179.752,0\Gh,23,1.08464,21,119.768,20,-179.901,0\Gh,23,1.39272,21,120.115,20,0.0547342,0\Gh,25,1.08424,23,120.267,21,-179.932,0\Gh,25,1.39578,23,119.454,21,0.0391297,0\Gh,27,1.08455,25,119.963,23,179.98,0\Gh,27,1.39267,25,120.193,23,-0.0300908,0\Gh,29,1.08567,27,119.617,25,179.987,0\\\@

 Total job time:  104.10s(wall), 414.31s(cpu) 
 Wed Apr 18 00:27:19 2018

        *************************************************************
        *                                                           *
        *  Thank you very much for using Q-Chem.  Have a nice day.  *
        *                                                           *
        *************************************************************


0 sent ACK to 0 
now end server 0 ... 
