mFile = /opt/software/qchem/qchem-5.0.1//bin/mpi/machines
Process 0 of 1 is on vega03.cac.cornell.edu - thread support 0
initial socket setup ...start
initial socket setup ...done 
now start server 0 ... 
vega03 10.84.3
Q-Chem Developer Version! Running on 10.84.3.*
                  Welcome to Q-Chem
     A Quantum Leap Into The Future Of Chemistry


 Q-Chem 5.0, Q-Chem, Inc., Pleasanton, CA (2017)

 Yihan Shao,  Zhengting Gan,  E. Epifanovsky,  A. T. B. Gilbert,  M. Wormit,  
 J. Kussmann,  A. W. Lange,  A. Behn,  Jia Deng,  Xintian Feng,  D. Ghosh,  
 M. Goldey,  P. R. Horn,  L. D. Jacobson,  I. Kaliman,  T. Kus,  A. Landau,  
 Jie Liu,  E. I. Proynov,  R. M. Richard,  R. P. Steele,  E. J. Sundstrom,  
 H. L. Woodcock III,  P. M. Zimmerman,  D. Zuev,  B. Albrecht,  E. Alguire,  
 S. A. Baeppler,  Z. Benda,  Y. A. Bernard,  E. J. Berquist,  K. B. Bravaya,  
 D. Casanova,  Chun-Min Chang,  Yunqing Chen,  A. Chien,  K. D. Closser,  
 M. P. Coons,  S. Dasgupta,  M. Diedenhofen,  Hainam Do,  R. G. Edgar,  
 Po-Tung Fang,  S. Fatehi,  Qingguo Feng,  Qinghui Ge,  A. Ghysels,  
 J. Gomes,  J. Gonthier,  A. Gunina,  M. W. D. Hanson-Heine,  
 P. H. P. Harbach,  A. W. Hauser,  J. E. Herr,  E. G. Hohenstein,  
 Z. C. Holden,  Kerwin Hui,  T.-C. Jagau,  Hyunjun Ji,  B. Kaduk,  
 K. Khistyaev,  Jaehoon Kim,  P. Klunzinger,  K. Koh,  D. Kosenkov,  
 T. Kowalczyk,  C. M. Krauter,  A. Kunitsa,  Ka Un Lao,  A. Laurent,  
 K. V. Lawler,  Joonho Lee,  D. Lefrancois,  S. Lehtola,  D. S. Levine,  
 Yi-Pei Li,  You-Sheng Lin,  Fenglai Liu,  E. Livshits,  A. Luenser,  
 P. Manohar,  E. Mansoor,  S. F. Manzer,  Shan-Ping Mao,  Yuezhi Mao,  
 N. Mardirossian,  A. V. Marenich,  L. A. Martinez-Martinez,  S. A. Maurer,  
 N. J. Mayhall,  S. C. McKenzie,  J.-M. Mewes,  A. F. Morrison,  K. Nanda,  
 T. S. Nguyen-Beck,  R. Olivares-Amaya,  J. A. Parkhill,  T. M. Perrine,  
 F. Plasser,  S. Prager,  A. Prociuk,  D. R. Rehn,  F. Rob,  M. Schneider,  
 N. Sergueev,  S. M. Sharada,  S. Sharma,  D. W. Small,  T. Stauch,  
 T. Stein,  Yu-Chuan Su,  A. J. W. Thom,  T. Tsuchimochi,  L. Vogt,  
 O. Vydrov,  M. A. Watson,  J. Wenzel,  M. de Wergifosse,  T. A. Wesolowski,  
 A. White,  J. Witte,  A. Yamada,  Jun Yang,  K. Yao,  S. Yeganeh,  
 S. R. Yost,  Zhi-Qiang You,  A. Zech,  Igor Ying Zhang,  Xing Zhang,  
 Yan Zhao,  Ying Zhu,  B. R. Brooks,  G. K. L. Chan,  C. J. Cramer,  
 M. S. Gordon,  W. J. Hehre,  A. Klamt,  M. W. Schmidt,  C. D. Sherrill,  
 D. G. Truhlar,  A. Aspuru-Guzik,  R. Baer,  A. T. Bell,  N. A. Besley,  
 Jeng-Da Chai,  A. Dreuw,  B. D. Dunietz,  T. R. Furlani,  Chao-Ping Hsu,  
 Yousung Jung,  Jing Kong,  D. S. Lambrecht,  WanZhen Liang,  C. Ochsenfeld,  
 V. A. Rassolov,  L. V. Slipchenko,  J. E. Subotnik,  T. Van Voorhis,  
 J. M. Herbert,  A. I. Krylov,  P. M. W. Gill,  M. Head-Gordon

 Contributors to earlier versions of Q-Chem not listed above: 
 R. D. Adamson,  B. Austin,  J. Baker,  G. J. O. Beran,  K. Brandhorst,  
 S. T. Brown,  E. F. C. Byrd,  A. K. Chakraborty,  C.-L. Cheng,  
 Siu Hung Chien,  D. M. Chipman,  D. L. Crittenden,  H. Dachsel,  
 R. A. DiStasio Jr.,  R. J. Doerksen,  A. D. Dutoi,  L. Fusti-Molnar,  
 W. A. Goddard III,  A. Golubeva-Zadorozhnaya,  S. R. Gwaltney,  G. Hawkins,  
 A. Heyden,  S. Hirata,  G. Kedziora,  F. J. Keil,  C. Kelley,  Jihan Kim,  
 R. A. King,  R. Z. Khaliullin,  P. P. Korambath,  W. Kurlancheek,  
 A. M. Lee,  M. S. Lee,  S. V. Levchenko,  Ching Yeh Lin,  D. Liotard,  
 R. C. Lochan,  I. Lotan,  P. E. Maslen,  N. Nair,  D. P. O'Neill,  
 D. Neuhauser,  E. Neuscamman,  C. M. Oana,  R. Olson,  B. Peters,  
 R. Peverati,  P. A. Pieniazek,  Y. M. Rhee,  J. Ritchie,  M. A. Rohrdanz,  
 E. Rosta,  N. J. Russ,  H. F. Schaefer III,  N. E. Schultz,  N. Shenvi,  
 A. C. Simmonett,  A. Sodt,  D. Stuck,  K. S. Thanthiriwatte,  V. Vanovschi,  
 Tao Wang,  A. Warshel,  C. F. Williams,  Q. Wu,  X. Xu,  W. Zhang

 Please cite Q-Chem as follows:
 Y. Shao et al., Mol. Phys. 113, 184-215 (2015)
 DOI: 10.1080/00268976.2014.952696

 Q-Chem 5.0.1 for Intel X86 EM64T Linux

 Parts of Q-Chem use Armadillo 5.200.1 (Boston Tea Smuggler).
 http://arma.sourceforge.net/

 Q-Chem begins on Tue Apr 17 00:52:58 2018  

Host: vega03.cac.cornell.edu
0

     Scratch files written to /scratch/jj585/vdw/01n00_distance_5.100_10.save//
 Parallel job on  1  processors

Checking the input file for inconsistencies... 	...done.

--------------------------------------------------------------
User input:
--------------------------------------------------------------
$molecule
0  1
C        -0.54444000        -0.68370000        -0.06689000
C        -0.55709000        +0.71878000        +0.05493000
C        -1.74320000        -1.41616000        -0.12552000
C        -2.93952000        -0.70056000        -0.05285000
C        -2.95313000        +0.68255000        +0.06934000
C        -1.77161000        +1.42404000        +0.12810000
H        -3.90354000        +1.20325000        +0.11710000
H        -3.87892000        -1.24211000        -0.08988000
C        -1.83960000        +2.92746000        +0.24839000
H        -1.24214000        +3.42352000        -0.52065000
H        -1.45503000        +3.26427000        +1.21284000
H        -2.87211000        +3.26623000        +0.14638000
H        -1.73878000        -2.44393000        -0.21875000
H        +0.35825000        -1.18166000        -0.11386000
H        +0.33551000        +1.23549000        +0.09097000
@C        -0.71875000        -1.04834000        +5.01707000
@C        -0.73140000        +0.35414000        +5.13889000
@C        -1.91751000        -1.78080000        +4.95844000
@C        -3.11383000        -1.06520000        +5.03111000
@C        -3.12744000        +0.31791000        +5.15330000
@C        -1.94592000        +1.05940000        +5.21206000
@H        -4.07785000        +0.83861000        +5.20106000
@H        -4.05323000        -1.60675000        +4.99408000
@C        -2.01391000        +2.56282000        +5.33235000
@H        -1.41645000        +3.05888000        +4.56331000
@H        -1.62934000        +2.89963000        +6.29680000
@H        -3.04642000        +2.90159000        +5.23034000
@H        -1.91309000        -2.80857000        +4.86521000
@H        +0.18394000        -1.54630000        +4.97010000
@H        +0.16120000        +0.87085000        +5.17493000
$end

$rem
JOBTYPE                   SP
METHOD                    B3LYP
DFT_D                     d3_op
BASIS                     6-311++G(d,p)
SYMMETRY                  False
THRESH                    12
SCF_CONVERGENCE           8
MAX_SUB_FILE_NUM          128
MEM_STATIC                400
MEM_TOTAL                 4000
$end
--------------------------------------------------------------
 Adding empirical dispersion correction 
 ----------------------------------------------------------------
 Doing -D3(op) with
 s6 =   1.00000
 s8 =   0.78311
 a1 =   0.30000
 a2 =   4.25000
 n  =  10.00000
 -D3 energy without 3body term =     -0.0113800034 hartrees
 ----------------------------------------------------------------
             Standard Nuclear Orientation (Angstroms)
    I     Atom           X                Y                Z
 ----------------------------------------------------------------
    1      C      -0.5444400000    -0.6837000000    -0.0668900000
    2      C      -0.5570900000     0.7187800000     0.0549300000
    3      C      -1.7432000000    -1.4161600000    -0.1255200000
    4      C      -2.9395200000    -0.7005600000    -0.0528500000
    5      C      -2.9531300000     0.6825500000     0.0693400000
    6      C      -1.7716100000     1.4240400000     0.1281000000
    7      H      -3.9035400000     1.2032500000     0.1171000000
    8      H      -3.8789200000    -1.2421100000    -0.0898800000
    9      C      -1.8396000000     2.9274600000     0.2483900000
   10      H      -1.2421400000     3.4235200000    -0.5206500000
   11      H      -1.4550300000     3.2642700000     1.2128400000
   12      H      -2.8721100000     3.2662300000     0.1463800000
   13      H      -1.7387800000    -2.4439300000    -0.2187500000
   14      H       0.3582500000    -1.1816600000    -0.1138600000
   15      H       0.3355100000     1.2354900000     0.0909700000
   16      GH     -0.7187500000    -1.0483400000     5.0170700000
   17      GH     -0.7314000000     0.3541400000     5.1388900000
   18      GH     -1.9175100000    -1.7808000000     4.9584400000
   19      GH     -3.1138300000    -1.0652000000     5.0311100000
   20      GH     -3.1274400000     0.3179100000     5.1533000000
   21      GH     -1.9459200000     1.0594000000     5.2120600000
   22      GH     -4.0778500000     0.8386100000     5.2010600000
   23      GH     -4.0532300000    -1.6067500000     4.9940800000
   24      GH     -2.0139100000     2.5628200000     5.3323500000
   25      GH     -1.4164500000     3.0588800000     4.5633100000
   26      GH     -1.6293400000     2.8996300000     6.2968000000
   27      GH     -3.0464200000     2.9015900000     5.2303400000
   28      GH     -1.9130900000    -2.8085700000     4.8652100000
   29      GH      0.1839400000    -1.5463000000     4.9701000000
   30      GH      0.1612000000     0.8708500000     5.1749300000
 ----------------------------------------------------------------
 Nuclear Repulsion Energy =   269.2168625664 hartrees
 There are       25 alpha and       25 beta electrons
 Requested basis set is 6-311++G(d,p)
 There are 164 shells and 420 basis functions

 Total QAlloc Memory Limit   4000 MB
 Mega-Array Size       392 MB
 MEM_STATIC part       400 MB
 A cutoff of  1.0D-12 yielded  10743 shell pairs
 There are     69903 function pairs (     74045 Cartesian)
 
 -------------------------------------------------------
 OpenMP Integral Computing Module                       
 Release: version 1.0, May 2013, Q-Chem Inc. Pittsburgh 
 -------------------------------------------------------
 Integral Job Info:
 Integral job number is                      11
 Integral operator is                         1
 short-range coefficients                     0
 long-range coefficients              100000000
 Omega coefficients                           0
 if combine SR and LR in K                    0
 Integral screening is                        0
 Integral computing path is                   2
 max size of driver memory is            800000
 size of driver memory is                593474
 size of scratch memory is              2361544
 max col of scratch BK array               1296
 max len of scratch array in speh3          155
 max len of scratch index in speh4           18
 max int batch size is                      520
 min int batch size is                       52
 fixed nKL is                                52
 max L of basis functions is                  2
 order of int derivative is                   0
 number of shells is                        164
 number of basis is                         434
 number of cartesian basis is               434
 number of contracted shell pairs         10743
 number of primitive shell pairs          23769
 maxK2 (contraction) of shell pair           36
 max number of K2 of shell pair               1
 max number of CS2 of shell pair           2052
 max number of PS2 of shell pair           3336
 mem total for path MDJ                  117498
 -------------------------------------------------------
 Smallest overlap matrix eigenvalue = 4.98E-07
 Linear dependence detected in AO basis
 Number of orthogonalized atomic orbitals = 419
 Maximum deviation from orthogonality = 1.034E-10

 Scale SEOQF with 1.000000e-01/1.000000e-01/1.000000e-02

 Standard Electronic Orientation quadrupole field applied
 Nucleus-field energy     =     0.0000000169 hartrees
 Guess from superposition of atomic densities
 Warning:  Energy on first SCF cycle will be non-variational

 Q-Chem warning in module /opt/software/qchem/qchem-5.0.1/libgen/Atomic_PolEc.C, line 58:

 No atomic polarizability available.


 Q-Chem warning in module /opt/software/qchem/qchem-5.0.1/libgen/Atomic_PolEc.C, line 73:

 No atomic polarizability available.


 Q-Chem warning in module /opt/software/qchem/qchem-5.0.1/libgen/Atomic_PolEc.C, line 58:

 No atomic polarizability available.


 Q-Chem warning in module /opt/software/qchem/qchem-5.0.1/libgen/Atomic_PolEc.C, line 73:

 No atomic polarizability available.


 Q-Chem warning in module /opt/software/qchem/qchem-5.0.1/libgen/Atomic_PolEc.C, line 58:

 No atomic polarizability available.


 Q-Chem warning in module /opt/software/qchem/qchem-5.0.1/libgen/Atomic_PolEc.C, line 73:

 No atomic polarizability available.


 Q-Chem warning in module /opt/software/qchem/qchem-5.0.1/libgen/Atomic_PolEc.C, line 58:

 No atomic polarizability available.


 Q-Chem warning in module /opt/software/qchem/qchem-5.0.1/libgen/Atomic_PolEc.C, line 73:

 No atomic polarizability available.


 Q-Chem warning in module /opt/software/qchem/qchem-5.0.1/libgen/Atomic_PolEc.C, line 58:

 No atomic polarizability available.


 Q-Chem warning in module /opt/software/qchem/qchem-5.0.1/libgen/Atomic_PolEc.C, line 73:

 No atomic polarizability available.


 Q-Chem warning in module /opt/software/qchem/qchem-5.0.1/libgen/Atomic_PolEc.C, line 58:

 No atomic polarizability available.


 Q-Chem warning in module /opt/software/qchem/qchem-5.0.1/libgen/Atomic_PolEc.C, line 73:

 No atomic polarizability available.


 Q-Chem warning in module /opt/software/qchem/qchem-5.0.1/libgen/Atomic_PolEc.C, line 58:

 No atomic polarizability available.


 Q-Chem warning in module /opt/software/qchem/qchem-5.0.1/libgen/Atomic_PolEc.C, line 73:

 No atomic polarizability available.


 Q-Chem warning in module /opt/software/qchem/qchem-5.0.1/libgen/Atomic_PolEc.C, line 58:

 No atomic polarizability available.


 Q-Chem warning in module /opt/software/qchem/qchem-5.0.1/libgen/Atomic_PolEc.C, line 73:

 No atomic polarizability available.


 Q-Chem warning in module /opt/software/qchem/qchem-5.0.1/libgen/Atomic_PolEc.C, line 58:

 No atomic polarizability available.


 Q-Chem warning in module /opt/software/qchem/qchem-5.0.1/libgen/Atomic_PolEc.C, line 73:

 No atomic polarizability available.


 Q-Chem warning in module /opt/software/qchem/qchem-5.0.1/libgen/Atomic_PolEc.C, line 58:

 No atomic polarizability available.


 Q-Chem warning in module /opt/software/qchem/qchem-5.0.1/libgen/Atomic_PolEc.C, line 73:

 No atomic polarizability available.


 Q-Chem warning in module /opt/software/qchem/qchem-5.0.1/libgen/Atomic_PolEc.C, line 58:

 No atomic polarizability available.


 Q-Chem warning in module /opt/software/qchem/qchem-5.0.1/libgen/Atomic_PolEc.C, line 73:

 No atomic polarizability available.


 Q-Chem warning in module /opt/software/qchem/qchem-5.0.1/libgen/Atomic_PolEc.C, line 58:

 No atomic polarizability available.


 Q-Chem warning in module /opt/software/qchem/qchem-5.0.1/libgen/Atomic_PolEc.C, line 73:

 No atomic polarizability available.


 Q-Chem warning in module /opt/software/qchem/qchem-5.0.1/libgen/Atomic_PolEc.C, line 58:

 No atomic polarizability available.


 Q-Chem warning in module /opt/software/qchem/qchem-5.0.1/libgen/Atomic_PolEc.C, line 73:

 No atomic polarizability available.


 Q-Chem warning in module /opt/software/qchem/qchem-5.0.1/libgen/Atomic_PolEc.C, line 58:

 No atomic polarizability available.


 Q-Chem warning in module /opt/software/qchem/qchem-5.0.1/libgen/Atomic_PolEc.C, line 73:

 No atomic polarizability available.


 Q-Chem warning in module /opt/software/qchem/qchem-5.0.1/libgen/Atomic_PolEc.C, line 58:

 No atomic polarizability available.


 Q-Chem warning in module /opt/software/qchem/qchem-5.0.1/libgen/Atomic_PolEc.C, line 73:

 No atomic polarizability available.

 A restricted hybrid HF-DFT SCF calculation will be
 performed using Pulay DIIS extrapolation
 Exchange:     0.2000 Hartree-Fock + 0.0800 Slater + 0.7200 B88
 Correlation:  0.1900 VWN1RPA + 0.8100 LYP
 Using SG-1 standard quadrature grid
 Dispersion:   Grimme D3
 SCF converges when DIIS error is below 1.0E-08
 using 4 threads for integral computing
 -------------------------------------------------------
 OpenMP Integral computing Module                
 Release: version 1.0, May 2013, Q-Chem Inc. Pittsburgh 
 -------------------------------------------------------
 -------------------------------------------------------
 OpenMP BLAS3 based DFT computing Module                
 Release: version 1.0, May 2013, Q-Chem Inc. Pittsburgh 
 -------------------------------------------------------
 ---------------------------------------
  Cycle       Energy         DIIS Error
 ---------------------------------------
    1    -273.1501369649      2.19E-02
    2    -271.4966287132      2.44E-03
    3    -271.4747830096      2.65E-03
    4    -271.6429168918      1.98E-04
    5    -271.6435077561      1.01E-04
    6    -271.6436833392      4.35E-05
    7    -271.6437218141      1.58E-05
    8    -271.6437278942      1.31E-06
    9    -271.6437279235      8.00E-07
   10    -271.6437279375      1.85E-07
   11    -271.6437279382      8.03E-08
   12    -271.6437279384      9.77E-09 Convergence criterion met
 ---------------------------------------
 SCF time:  CPU 308.14 s  wall 77.29 s
 SCF   energy in the final basis set = -271.64372794
 Total energy in the final basis set = -271.64372794
 
 --------------------------------------------------------------
 
                    Orbital Energies (a.u.)
 --------------------------------------------------------------
 
 Alpha MOs
 -- Occupied --
-10.185 -10.174 -10.172 -10.171 -10.170 -10.169 -10.169  -0.858
 -0.776  -0.747  -0.691  -0.611  -0.591  -0.521  -0.465  -0.462
 -0.424  -0.423  -0.418  -0.390  -0.358  -0.350  -0.342  -0.255
 -0.247
 -- Virtual --
 -0.017  -0.013  -0.008   0.005   0.009   0.018   0.028   0.031
  0.035   0.040   0.047   0.050   0.055   0.062   0.063   0.068
  0.073   0.082   0.086   0.087   0.092   0.100   0.105   0.106
  0.111   0.113   0.117   0.122   0.123   0.126   0.127   0.130
  0.135   0.136   0.140   0.141   0.149   0.153   0.159   0.161
  0.163   0.168   0.169   0.175   0.177   0.180   0.182   0.186
  0.187   0.189   0.192   0.195   0.202   0.211   0.214   0.218
  0.222   0.225   0.231   0.234   0.240   0.245   0.246   0.250
  0.254   0.258   0.261   0.265   0.267   0.274   0.281   0.289
  0.291   0.293   0.299   0.305   0.306   0.311   0.315   0.318
  0.329   0.333   0.346   0.352   0.354   0.357   0.367   0.372
  0.375   0.382   0.390   0.405   0.416   0.423   0.433   0.439
  0.451   0.478   0.484   0.487   0.503   0.516   0.521   0.523
  0.538   0.545   0.553   0.561   0.565   0.579   0.581   0.584
  0.589   0.597   0.609   0.610   0.618   0.626   0.628   0.637
  0.641   0.647   0.655   0.657   0.664   0.668   0.671   0.690
  0.704   0.711   0.718   0.731   0.736   0.736   0.746   0.754
  0.772   0.774   0.791   0.802   0.812   0.826   0.845   0.850
  0.859   0.882   0.883   0.895   0.902   0.915   0.920   0.933
  0.936   0.949   0.961   0.968   1.004   1.014   1.019   1.030
  1.039   1.044   1.080   1.085   1.092   1.124   1.129   1.146
  1.156   1.179   1.203   1.210   1.223   1.289   1.327   1.357
  1.366   1.405   1.415   1.423   1.441   1.451   1.465   1.477
  1.500   1.527   1.529   1.534   1.536   1.546   1.556   1.561
  1.568   1.577   1.589   1.598   1.609   1.625   1.646   1.661
  1.676   1.687   1.697   1.714   1.720   1.721   1.738   1.744
  1.756   1.762   1.769   1.774   1.794   1.803   1.811   1.825
  1.846   1.852   1.860   1.867   1.885   1.895   1.897   1.903
  1.920   1.936   1.940   1.955   1.960   1.962   1.969   1.981
  2.014   2.025   2.035   2.037   2.041   2.053   2.065   2.099
  2.104   2.115   2.144   2.163   2.196   2.240   2.251   2.259
  2.309   2.312   2.321   2.324   2.335   2.395   2.403   2.413
  2.414   2.419   2.429   2.447   2.447   2.479   2.481   2.490
  2.495   2.510   2.538   2.554   2.555   2.563   2.570   2.588
  2.599   2.604   2.638   2.643   2.674   2.685   2.700   2.732
  2.736   2.749   2.757   2.758   2.761   2.775   2.798   2.836
  2.839   2.860   2.900   2.905   2.916   2.926   2.931   2.941
  2.953   2.990   2.996   3.000   3.006   3.011   3.048   3.092
  3.118   3.153   3.175   3.209   3.225   3.248   3.282   3.347
  3.354   3.358   3.389   3.393   3.400   3.449   3.477   3.486
  3.512   3.516   3.547   3.560   3.568   3.587   3.621   3.654
  3.666   3.716   3.721   3.792   3.796   3.860   4.019   4.034
  4.037   4.121   4.179   4.186   4.204   4.342   4.627   4.736
  4.837   4.838   4.864   4.911   4.971   5.112   5.220   5.659
  7.079   7.128   7.156   7.224   7.236   7.370   7.617   7.717
  7.724   7.745   7.768   7.783   7.822   7.838   7.866   7.985
  8.027   8.053   8.176   8.485   8.916   9.728  10.017  10.215
 10.234  10.266  10.283  10.342  23.658  23.940  24.001  24.012
 24.096  24.108  24.206  69.752  69.910  70.008  70.020  70.043
 70.045  70.085
 --------------------------------------------------------------
 
          Ground-State Mulliken Net Atomic Charges

     Atom                 Charge (a.u.)
  ----------------------------------------
      1 C                    -0.050310
      2 C                    -0.427992
      3 C                    -0.341967
      4 C                    -0.097925
      5 C                    -0.606987
      6 C                     0.939936
      7 H                     0.147278
      8 H                     0.169921
      9 C                    -0.650702
     10 H                     0.146679
     11 H                     0.160125
     12 H                     0.144538
     13 H                     0.149945
     14 H                     0.160934
     15 H                     0.166840
     16 GH                   -0.012242
     17 GH                    0.015487
     18 GH                    0.018597
     19 GH                   -0.018217
     20 GH                   -0.007651
     21 GH                   -0.008274
     22 GH                   -0.000840
     23 GH                   -0.000492
     24 GH                    0.001828
     25 GH                   -0.000470
     26 GH                   -0.000352
     27 GH                    0.001053
     28 GH                    0.001508
     29 GH                   -0.000463
     30 GH                    0.000214
  ----------------------------------------
  Sum of atomic charges =     0.000000

 -----------------------------------------------------------------
                    Cartesian Multipole Moments
 -----------------------------------------------------------------
    Charge (ESU x 10^10)
                 0.0000
    Dipole Moment (Debye)
         X       0.0616      Y       0.3879      Z       0.0369
       Tot       0.3944
    Quadrupole Moments (Debye-Ang)
        XX     -39.3575     XY      -0.6308     YY     -38.0752
        XZ      -0.0957     YZ       0.7295     ZZ     -46.4115
    Octopole Moments (Debye-Ang^2)
       XXX     208.5618    XXY     -19.5351    XYY      67.8572
       YYY     -62.7653    XXZ      -1.7217    XYZ      -1.2496
       YYZ      -2.0916    XZZ      82.7519    YZZ     -19.5939
       ZZZ      -4.8518
    Hexadecapole Moments (Debye-Ang^3)
      XXXX   -1027.4140   XXXY     110.3991   XXYY    -280.2377
      XYYY     117.0195   YYYY    -684.1110   XXXZ      10.7108
      XXYZ      -6.4260   XYYZ       3.8999   YYYZ     -25.4650
      XXZZ    -217.4823   XYZZ      38.0893   YYZZ    -130.4462
      XZZZ      10.4344   YZZZ     -27.3370   ZZZZ     -68.0758
 -----------------------------------------------------------------
Archival summary:
1\1\vega03.cac.cornell.edu\SP\ProcedureUnspecified\BasisUnspecified\78h15\jj585\TueApr1700:54:162018TueApr1700:54:162018\0\\#,ProcedureUnspecified,BasisUnspecified,\\0,1\C\C,1,1.39616\H,2,1.08475,1,118.991\C,2,1.38856,1,121.629,3,179.783,0\H,4,1.08495,2,119.453,1,179.671,0\C,4,1.3959,2,121.575,1,-0.129654,0\H,6,1.032,4,121.26,2,-179.84,0\C,6,1.40604,4,117.481,2,0.160349,0\H,8,1.032,6,119.504,4,179.742,0\C,1,1.40634,2,117.536,3,-179.6,0\H,10,1.032,1,119.607,2,179.72,0\C,1,1.50976,2,119.611,3,-0.341033,0\H,12,1.09144,1,110.135,2,-7.24194,0\H,12,1.09156,1,111.21,2,113.289,0\H,12,1.09291,1,111.796,2,-127.427,0\Gh,14,3.35698,12,150.113,1,-50.4804,0\Gh,16,1.09291,14,136.368,12,-10.1472,0\Gh,17,1.09144,16,108.09,14,-57.9694,0\Gh,17,1.09156,16,106.802,14,-174.738,0\Gh,17,1.50976,16,111.796,14,63.406,0\Gh,20,1.39616,17,119.611,16,-127.427,0\Gh,21,1.08475,20,118.991,17,-0.341033,0\Gh,21,1.38856,20,121.629,17,179.442,0\Gh,23,1.08495,21,119.453,20,179.671,0\Gh,23,1.3959,21,121.575,20,-0.129654,0\Gh,25,1.032,23,121.26,21,-179.84,0\Gh,25,1.40604,23,117.481,21,0.160349,0\Gh,27,1.032,25,119.504,23,179.742,0\Gh,20,1.40634,17,122.848,16,51.7903,0\Gh,29,1.032,20,119.607,17,0.487832,0\\\@

 Total job time:  78.07s(wall), 310.43s(cpu) 
 Tue Apr 17 00:54:16 2018

        *************************************************************
        *                                                           *
        *  Thank you very much for using Q-Chem.  Have a nice day.  *
        *                                                           *
        *************************************************************


0 sent ACK to 0 
now end server 0 ... 
