mFile = /opt/software/qchem/qchem-5.0.1//bin/mpi/machines
Process 0 of 1 is on vega03.cac.cornell.edu - thread support 0
initial socket setup ...start
initial socket setup ...done 
now start server 0 ... 
vega03 10.84.3
Q-Chem Developer Version! Running on 10.84.3.*
                  Welcome to Q-Chem
     A Quantum Leap Into The Future Of Chemistry


 Q-Chem 5.0, Q-Chem, Inc., Pleasanton, CA (2017)

 Yihan Shao,  Zhengting Gan,  E. Epifanovsky,  A. T. B. Gilbert,  M. Wormit,  
 J. Kussmann,  A. W. Lange,  A. Behn,  Jia Deng,  Xintian Feng,  D. Ghosh,  
 M. Goldey,  P. R. Horn,  L. D. Jacobson,  I. Kaliman,  T. Kus,  A. Landau,  
 Jie Liu,  E. I. Proynov,  R. M. Richard,  R. P. Steele,  E. J. Sundstrom,  
 H. L. Woodcock III,  P. M. Zimmerman,  D. Zuev,  B. Albrecht,  E. Alguire,  
 S. A. Baeppler,  Z. Benda,  Y. A. Bernard,  E. J. Berquist,  K. B. Bravaya,  
 D. Casanova,  Chun-Min Chang,  Yunqing Chen,  A. Chien,  K. D. Closser,  
 M. P. Coons,  S. Dasgupta,  M. Diedenhofen,  Hainam Do,  R. G. Edgar,  
 Po-Tung Fang,  S. Fatehi,  Qingguo Feng,  Qinghui Ge,  A. Ghysels,  
 J. Gomes,  J. Gonthier,  A. Gunina,  M. W. D. Hanson-Heine,  
 P. H. P. Harbach,  A. W. Hauser,  J. E. Herr,  E. G. Hohenstein,  
 Z. C. Holden,  Kerwin Hui,  T.-C. Jagau,  Hyunjun Ji,  B. Kaduk,  
 K. Khistyaev,  Jaehoon Kim,  P. Klunzinger,  K. Koh,  D. Kosenkov,  
 T. Kowalczyk,  C. M. Krauter,  A. Kunitsa,  Ka Un Lao,  A. Laurent,  
 K. V. Lawler,  Joonho Lee,  D. Lefrancois,  S. Lehtola,  D. S. Levine,  
 Yi-Pei Li,  You-Sheng Lin,  Fenglai Liu,  E. Livshits,  A. Luenser,  
 P. Manohar,  E. Mansoor,  S. F. Manzer,  Shan-Ping Mao,  Yuezhi Mao,  
 N. Mardirossian,  A. V. Marenich,  L. A. Martinez-Martinez,  S. A. Maurer,  
 N. J. Mayhall,  S. C. McKenzie,  J.-M. Mewes,  A. F. Morrison,  K. Nanda,  
 T. S. Nguyen-Beck,  R. Olivares-Amaya,  J. A. Parkhill,  T. M. Perrine,  
 F. Plasser,  S. Prager,  A. Prociuk,  D. R. Rehn,  F. Rob,  M. Schneider,  
 N. Sergueev,  S. M. Sharada,  S. Sharma,  D. W. Small,  T. Stauch,  
 T. Stein,  Yu-Chuan Su,  A. J. W. Thom,  T. Tsuchimochi,  L. Vogt,  
 O. Vydrov,  M. A. Watson,  J. Wenzel,  M. de Wergifosse,  T. A. Wesolowski,  
 A. White,  J. Witte,  A. Yamada,  Jun Yang,  K. Yao,  S. Yeganeh,  
 S. R. Yost,  Zhi-Qiang You,  A. Zech,  Igor Ying Zhang,  Xing Zhang,  
 Yan Zhao,  Ying Zhu,  B. R. Brooks,  G. K. L. Chan,  C. J. Cramer,  
 M. S. Gordon,  W. J. Hehre,  A. Klamt,  M. W. Schmidt,  C. D. Sherrill,  
 D. G. Truhlar,  A. Aspuru-Guzik,  R. Baer,  A. T. Bell,  N. A. Besley,  
 Jeng-Da Chai,  A. Dreuw,  B. D. Dunietz,  T. R. Furlani,  Chao-Ping Hsu,  
 Yousung Jung,  Jing Kong,  D. S. Lambrecht,  WanZhen Liang,  C. Ochsenfeld,  
 V. A. Rassolov,  L. V. Slipchenko,  J. E. Subotnik,  T. Van Voorhis,  
 J. M. Herbert,  A. I. Krylov,  P. M. W. Gill,  M. Head-Gordon

 Contributors to earlier versions of Q-Chem not listed above: 
 R. D. Adamson,  B. Austin,  J. Baker,  G. J. O. Beran,  K. Brandhorst,  
 S. T. Brown,  E. F. C. Byrd,  A. K. Chakraborty,  C.-L. Cheng,  
 Siu Hung Chien,  D. M. Chipman,  D. L. Crittenden,  H. Dachsel,  
 R. A. DiStasio Jr.,  R. J. Doerksen,  A. D. Dutoi,  L. Fusti-Molnar,  
 W. A. Goddard III,  A. Golubeva-Zadorozhnaya,  S. R. Gwaltney,  G. Hawkins,  
 A. Heyden,  S. Hirata,  G. Kedziora,  F. J. Keil,  C. Kelley,  Jihan Kim,  
 R. A. King,  R. Z. Khaliullin,  P. P. Korambath,  W. Kurlancheek,  
 A. M. Lee,  M. S. Lee,  S. V. Levchenko,  Ching Yeh Lin,  D. Liotard,  
 R. C. Lochan,  I. Lotan,  P. E. Maslen,  N. Nair,  D. P. O'Neill,  
 D. Neuhauser,  E. Neuscamman,  C. M. Oana,  R. Olson,  B. Peters,  
 R. Peverati,  P. A. Pieniazek,  Y. M. Rhee,  J. Ritchie,  M. A. Rohrdanz,  
 E. Rosta,  N. J. Russ,  H. F. Schaefer III,  N. E. Schultz,  N. Shenvi,  
 A. C. Simmonett,  A. Sodt,  D. Stuck,  K. S. Thanthiriwatte,  V. Vanovschi,  
 Tao Wang,  A. Warshel,  C. F. Williams,  Q. Wu,  X. Xu,  W. Zhang

 Please cite Q-Chem as follows:
 Y. Shao et al., Mol. Phys. 113, 184-215 (2015)
 DOI: 10.1080/00268976.2014.952696

 Q-Chem 5.0.1 for Intel X86 EM64T Linux

 Parts of Q-Chem use Armadillo 5.200.1 (Boston Tea Smuggler).
 http://arma.sourceforge.net/

 Q-Chem begins on Tue Apr 17 00:55:40 2018  

Host: vega03.cac.cornell.edu
0

     Scratch files written to /scratch/jj585/vdw/01n00_distance_5.100_11.save//
 Parallel job on  1  processors

Checking the input file for inconsistencies... 	...done.

--------------------------------------------------------------
User input:
--------------------------------------------------------------
$molecule
0  1
--
0  1
C        -0.54444000        -0.68370000        -0.06689000
C        -0.55709000        +0.71878000        +0.05493000
C        -1.74320000        -1.41616000        -0.12552000
C        -2.93952000        -0.70056000        -0.05285000
C        -2.95313000        +0.68255000        +0.06934000
C        -1.77161000        +1.42404000        +0.12810000
H        -3.90354000        +1.20325000        +0.11710000
H        -3.87892000        -1.24211000        -0.08988000
C        -1.83960000        +2.92746000        +0.24839000
H        -1.24214000        +3.42352000        -0.52065000
H        -1.45503000        +3.26427000        +1.21284000
H        -2.87211000        +3.26623000        +0.14638000
H        -1.73878000        -2.44393000        -0.21875000
H        +0.35825000        -1.18166000        -0.11386000
H        +0.33551000        +1.23549000        +0.09097000
--
0  1
C        -0.71875000        -1.04834000        +5.01707000
C        -0.73140000        +0.35414000        +5.13889000
C        -1.91751000        -1.78080000        +4.95844000
C        -3.11383000        -1.06520000        +5.03111000
C        -3.12744000        +0.31791000        +5.15330000
C        -1.94592000        +1.05940000        +5.21206000
H        -4.07785000        +0.83861000        +5.20106000
H        -4.05323000        -1.60675000        +4.99408000
C        -2.01391000        +2.56282000        +5.33235000
H        -1.41645000        +3.05888000        +4.56331000
H        -1.62934000        +2.89963000        +6.29680000
H        -3.04642000        +2.90159000        +5.23034000
H        -1.91309000        -2.80857000        +4.86521000
H        +0.18394000        -1.54630000        +4.97010000
H        +0.16120000        +0.87085000        +5.17493000
$end

$rem
JOBTYPE                   SP
METHOD                    B3LYP
DFT_D                     d3_op
BASIS                     6-311++G(d,p)
SYMMETRY                  False
THRESH                    12
SCF_CONVERGENCE           8
MAX_SUB_FILE_NUM          128
MEM_STATIC                400
MEM_TOTAL                 4000
$end
--------------------------------------------------------------
 Adding empirical dispersion correction 
 ----------------------------------------------------------------
 Doing -D3(op) with
 s6 =   1.00000
 s8 =   0.78311
 a1 =   0.30000
 a2 =   4.25000
 n  =  10.00000
 -D3 energy without 3body term =     -0.0247644322 hartrees
 ----------------------------------------------------------------
             Standard Nuclear Orientation (Angstroms)
    I     Atom           X                Y                Z
 ----------------------------------------------------------------
    1      C       2.6363983128    -1.2039768457     1.1696161305
    2      C       2.6026745513     0.2031662448     1.1972080863
    3      C       2.5982087250    -1.9053402168    -0.0484116373
    4      C       2.5203479443    -1.1539149225    -1.2222274479
    5      C       2.4849955173     0.2339519182    -1.1960599367
    6      C       2.5228969434     0.9448078031     0.0049800547
    7      H       2.4300739949     0.7826063013    -2.1302176696
    8      H       2.4835733358    -1.6706195534    -2.1755290455
    9      C       2.4947190492     2.4540901780    -0.0202536465
   10      H       3.3179654842     2.8850056268     0.5551016176
   11      H       1.5704571602     2.8391468050     0.4144534019
   12      H       2.5742236528     2.8142364188    -1.0474935194
   13      H       2.6266638647    -2.9366383886    -0.0736490730
   14      H       2.6899513495    -1.7285792376     2.0567147616
   15      H       2.6368994136     0.6963165825     2.1031077877
   16      C      -2.4632518678    -1.2487040260     1.2091522153
   17      C      -2.4969756293     0.1584390645     1.2367441711
   18      C      -2.5014414556    -1.9500673972    -0.0088755525
   19      C      -2.5793022363    -1.1986421029    -1.1826913631
   20      C      -2.6146546633     0.1892247378    -1.1565238519
   21      C      -2.5767532372     0.9000806227     0.0445161395
   22      H      -2.6695761857     0.7378791209    -2.0906815848
   23      H      -2.6160768448    -1.7153467338    -2.1359929607
   24      C      -2.6049311314     2.4093629976     0.0192824382
   25      H      -1.7816846964     2.8402784464     0.5946377024
   26      H      -3.5291930204     2.7944196246     0.4539894867
   27      H      -2.5254265279     2.7695092384    -1.0079574346
   28      H      -2.4729863160    -2.9813655689    -0.0341129882
   29      H      -2.4096988311    -1.7733064180     2.0962508464
   30      H      -2.4627507670     0.6515894021     2.1426438725
 ----------------------------------------------------------------
 Molecular Point Group                 C1    NOp =  1
 Largest Abelian Subgroup              C1    NOp =  1
 Nuclear Repulsion Energy =   771.7877095583 hartrees
 There are       50 alpha and       50 beta electrons
 Requested basis set is 6-311++G(d,p)
 There are 164 shells and 420 basis functions

 Total QAlloc Memory Limit   4000 MB
 Mega-Array Size       392 MB
 MEM_STATIC part       400 MB
 A cutoff of  1.0D-12 yielded  10743 shell pairs
 There are     69903 function pairs (     74045 Cartesian)
 
 -------------------------------------------------------
 OpenMP Integral Computing Module                       
 Release: version 1.0, May 2013, Q-Chem Inc. Pittsburgh 
 -------------------------------------------------------
 Integral Job Info:
 Integral job number is                      11
 Integral operator is                         1
 short-range coefficients                     0
 long-range coefficients              100000000
 Omega coefficients                           0
 if combine SR and LR in K                    0
 Integral screening is                        0
 Integral computing path is                   2
 max size of driver memory is            800000
 size of driver memory is                593474
 size of scratch memory is              2361544
 max col of scratch BK array               1296
 max len of scratch array in speh3          155
 max len of scratch index in speh4           18
 max int batch size is                      520
 min int batch size is                       52
 fixed nKL is                                52
 max L of basis functions is                  2
 order of int derivative is                   0
 number of shells is                        164
 number of basis is                         434
 number of cartesian basis is               434
 number of contracted shell pairs         10743
 number of primitive shell pairs          23769
 maxK2 (contraction) of shell pair           36
 max number of K2 of shell pair               1
 max number of CS2 of shell pair           2052
 max number of PS2 of shell pair           3336
 mem total for path MDJ                  117498
 -------------------------------------------------------
 Smallest overlap matrix eigenvalue = 4.98E-07
 Linear dependence detected in AO basis
 Number of orthogonalized atomic orbitals = 419
 Maximum deviation from orthogonality = 8.010E-11

 Scale SEOQF with 1.000000e-01/1.000000e-01/1.000000e-01

 Standard Electronic Orientation quadrupole field applied
 Nucleus-field energy     =     0.0000000290 hartrees
 Guess from superposition of atomic densities
 Warning:  Energy on first SCF cycle will be non-variational
 A restricted hybrid HF-DFT SCF calculation will be
 performed using Pulay DIIS extrapolation
 Exchange:     0.2000 Hartree-Fock + 0.0800 Slater + 0.7200 B88
 Correlation:  0.1900 VWN1RPA + 0.8100 LYP
 Using SG-1 standard quadrature grid
 Dispersion:   Grimme D3
 SCF converges when DIIS error is below 1.0E-08
 using 4 threads for integral computing
 -------------------------------------------------------
 OpenMP Integral computing Module                
 Release: version 1.0, May 2013, Q-Chem Inc. Pittsburgh 
 -------------------------------------------------------
 -------------------------------------------------------
 OpenMP BLAS3 based DFT computing Module                
 Release: version 1.0, May 2013, Q-Chem Inc. Pittsburgh 
 -------------------------------------------------------
 ---------------------------------------
  Cycle       Energy         DIIS Error
 ---------------------------------------
    1    -546.3018546816      3.10E-02
    2    -542.9915292212      3.47E-03
    3    -542.9403333044      3.80E-03
    4    -543.2861596244      2.95E-04
    5    -543.2874825978      1.48E-04
    6    -543.2878595451      6.47E-05
    7    -543.2879439183      2.48E-05
    8    -543.2879589850      2.08E-06
    9    -543.2879590596      1.26E-06
   10    -543.2879590940      3.41E-07
   11    -543.2879590966      1.21E-07
   12    -543.2879590969      2.63E-08
   13    -543.2879590968      6.35E-09 Convergence criterion met
 ---------------------------------------
 SCF time:  CPU 329.15 s  wall 82.59 s
 SCF   energy in the final basis set = -543.28795910
 Total energy in the final basis set = -543.28795910
 
 --------------------------------------------------------------
 
                    Orbital Energies (a.u.)
 --------------------------------------------------------------
 
 Alpha MOs
 -- Occupied --
-10.182 -10.182 -10.171 -10.170 -10.169 -10.169 -10.168 -10.168
-10.168 -10.167 -10.166 -10.166 -10.166 -10.166  -0.855  -0.855
 -0.773  -0.773  -0.744  -0.744  -0.689  -0.689  -0.608  -0.608
 -0.588  -0.588  -0.518  -0.518  -0.462  -0.462  -0.460  -0.459
 -0.423  -0.421  -0.420  -0.420  -0.415  -0.415  -0.388  -0.388
 -0.356  -0.353  -0.348  -0.347  -0.339  -0.339  -0.252  -0.250
 -0.245  -0.243
 -- Virtual --
 -0.017  -0.013  -0.011  -0.010  -0.007   0.000   0.005   0.006
  0.018   0.022   0.023   0.027   0.039   0.040   0.044   0.049
  0.053   0.060   0.063   0.068   0.071   0.078   0.086   0.087
  0.090   0.102   0.106   0.107   0.109   0.113   0.117   0.119
  0.120   0.123   0.125   0.128   0.130   0.131   0.132   0.135
  0.135   0.136   0.138   0.145   0.150   0.152   0.153   0.154
  0.161   0.167   0.171   0.175   0.175   0.178   0.181   0.181
  0.182   0.189   0.190   0.196   0.198   0.212   0.213   0.215
  0.222   0.226   0.232   0.237   0.240   0.245   0.246   0.256
  0.257   0.261   0.268   0.269   0.271   0.274   0.278   0.283
  0.288   0.291   0.292   0.298   0.304   0.305   0.308   0.312
  0.314   0.320   0.331   0.333   0.348   0.353   0.357   0.361
  0.367   0.374   0.376   0.379   0.380   0.389   0.391   0.471
  0.477   0.481   0.501   0.519   0.531   0.534   0.539   0.541
  0.550   0.551   0.561   0.569   0.572   0.586   0.588   0.590
  0.597   0.610   0.613   0.621   0.627   0.630   0.636   0.643
  0.651   0.655   0.661   0.664   0.666   0.667   0.672   0.679
  0.691   0.700   0.705   0.709   0.729   0.730   0.733   0.735
  0.739   0.742   0.765   0.770   0.779   0.782   0.799   0.802
  0.814   0.833   0.840   0.856   0.857   0.870   0.876   0.891
  0.899   0.903   0.904   0.914   0.922   0.928   0.930   0.936
  0.941   0.943   0.951   0.971   0.982   1.005   1.018   1.018
  1.022   1.034   1.041   1.051   1.064   1.082   1.088   1.096
  1.112   1.127   1.132   1.148   1.152   1.319   1.337   1.358
  1.367   1.376   1.379   1.417   1.424   1.464   1.466   1.478
  1.485   1.534   1.539   1.542   1.544   1.552   1.557   1.561
  1.568   1.575   1.585   1.590   1.595   1.606   1.617   1.621
  1.628   1.644   1.659   1.661   1.671   1.678   1.685   1.717
  1.722   1.761   1.764   1.768   1.772   1.803   1.808   1.820
  1.829   1.844   1.853   1.859   1.868   1.900   1.902   1.919
  1.922   1.937   1.940   1.941   1.946   1.962   1.963   1.965
  1.966   2.026   2.029   2.035   2.037   2.040   2.045   2.103
  2.109   2.112   2.122   2.193   2.203   2.240   2.242   2.251
  2.256   2.323   2.327   2.402   2.405   2.414   2.422   2.445
  2.454   2.462   2.481   2.489   2.498   2.508   2.542   2.553
  2.558   2.565   2.567   2.593   2.616   2.638   2.642   2.673
  2.678   2.680   2.687   2.704   2.706   2.733   2.734   2.742
  2.746   2.754   2.760   2.766   2.769   2.779   2.781   2.801
  2.823   2.839   2.843   2.865   2.868   2.900   2.910   2.916
  2.923   2.943   2.947   2.954   2.958   2.998   3.006   3.008
  3.017   3.092   3.100   3.154   3.162   3.225   3.230   3.351
  3.364   3.388   3.399   3.511   3.522   3.548   3.555   3.655
  3.656   3.712   3.730   3.793   3.794   3.859   3.866   4.036
  4.039   4.123   4.126   4.187   4.191   4.204   4.209   4.344
  4.347   4.841   4.842  23.642  23.682  23.940  23.945  24.002
 24.007  24.008  24.019  24.098  24.100  24.112  24.112  24.208
 24.210
 --------------------------------------------------------------
 
          Ground-State Mulliken Net Atomic Charges

     Atom                 Charge (a.u.)
  ----------------------------------------
      1 C                    -0.063936
      2 C                    -0.429139
      3 C                    -0.320811
      4 C                    -0.111662
      5 C                    -0.604027
      6 C                     0.954765
      7 H                     0.144146
      8 H                     0.166269
      9 C                    -0.649740
     10 H                     0.145693
     11 H                     0.153382
     12 H                     0.144525
     13 H                     0.148993
     14 H                     0.156996
     15 H                     0.163484
     16 C                    -0.128471
     17 C                    -0.362887
     18 C                    -0.294136
     19 C                    -0.181991
     20 C                    -0.494378
     21 C                     0.877681
     22 H                     0.145056
     23 H                     0.168477
     24 C                    -0.649360
     25 H                     0.148074
     26 H                     0.157684
     27 H                     0.144631
     28 H                     0.149069
     29 H                     0.157685
     30 H                     0.163929
  ----------------------------------------
  Sum of atomic charges =     0.000000

 -----------------------------------------------------------------
                    Cartesian Multipole Moments
 -----------------------------------------------------------------
    Charge (ESU x 10^10)
                 0.0000
    Dipole Moment (Debye)
         X      -0.0183      Y       0.6556      Z       0.1296
       Tot       0.6685
    Quadrupole Moments (Debye-Ang)
        XX     -93.9293     XY      -0.3756     YY     -77.1827
        XZ       0.6479     YZ       0.0699     ZZ     -78.4501
    Octopole Moments (Debye-Ang^2)
       XXX      -1.1856    XXY      12.7634    XYY       0.8566
       YYY     -11.0205    XXZ       2.3874    XYZ      -0.5376
       YYZ       0.5838    XZZ       0.3004    YZZ      -1.6533
       ZZZ       0.1704
    Hexadecapole Moments (Debye-Ang^3)
      XXXX   -3769.1739   XXXY      -9.5268   XXYY    -749.3916
      XYYY      -0.9425   YYYY   -1244.2873   XXXZ      12.8300
      XXYZ       3.9252   XYYZ       1.2393   YYYZ       0.3993
      XXZZ    -650.0822   XYZZ       0.3919   YYZZ    -298.7606
      XZZZ       3.8325   YZZZ      -3.5869   ZZZZ    -579.1600
 -----------------------------------------------------------------
Archival summary:
1\1\vega03.cac.cornell.edu\SP\ProcedureUnspecified\BasisUnspecified\1416\jj585\TueApr1700:57:032018TueApr1700:57:032018\0\\#,ProcedureUnspecified,BasisUnspecified,\\0,1\C\C,1,1.39616\H,2,1.08475,1,118.991\C,2,1.38856,1,121.629,3,179.783,0\H,4,1.08495,2,119.453,1,179.671,0\C,4,1.3959,2,121.575,1,-0.129654,0\H,6,1.032,4,121.26,2,-179.84,0\C,6,1.40604,4,117.481,2,0.160349,0\H,8,1.032,6,119.504,4,179.742,0\C,1,1.40634,2,117.536,3,-179.6,0\H,10,1.032,1,119.607,2,179.72,0\C,1,1.50976,2,119.611,3,-0.341033,0\H,12,1.09144,1,110.135,2,-7.24194,0\H,12,1.09156,1,111.21,2,113.289,0\H,12,1.09291,1,111.796,2,-127.427,0\H,14,3.35698,12,150.113,1,-50.4804,0\C,16,1.09291,14,136.368,12,-10.1472,0\H,17,1.09144,16,108.09,14,-57.9694,0\H,17,1.09156,16,106.802,14,-174.738,0\C,17,1.50976,16,111.796,14,63.406,0\C,20,1.39616,17,119.611,16,-127.427,0\H,21,1.08475,20,118.991,17,-0.341033,0\C,21,1.38856,20,121.629,17,179.442,0\H,23,1.08495,21,119.453,20,179.671,0\C,23,1.3959,21,121.575,20,-0.129654,0\H,25,1.032,23,121.26,21,-179.84,0\C,25,1.40604,23,117.481,21,0.160349,0\H,27,1.032,25,119.504,23,179.742,0\C,20,1.40634,17,122.848,16,51.7903,0\H,29,1.032,20,119.607,17,0.487832,0\\\@

 Total job time:  83.37s(wall), 331.48s(cpu) 
 Tue Apr 17 00:57:03 2018

        *************************************************************
        *                                                           *
        *  Thank you very much for using Q-Chem.  Have a nice day.  *
        *                                                           *
        *************************************************************


0 sent ACK to 0 
now end server 0 ... 
