mFile = /opt/software/qchem/qchem-5.0.1//bin/mpi/machines
Process 0 of 1 is on vega03.cac.cornell.edu - thread support 0
initial socket setup ...start
initial socket setup ...done 
now start server 0 ... 
vega03 10.84.3
Q-Chem Developer Version! Running on 10.84.3.*
                  Welcome to Q-Chem
     A Quantum Leap Into The Future Of Chemistry


 Q-Chem 5.0, Q-Chem, Inc., Pleasanton, CA (2017)

 Yihan Shao,  Zhengting Gan,  E. Epifanovsky,  A. T. B. Gilbert,  M. Wormit,  
 J. Kussmann,  A. W. Lange,  A. Behn,  Jia Deng,  Xintian Feng,  D. Ghosh,  
 M. Goldey,  P. R. Horn,  L. D. Jacobson,  I. Kaliman,  T. Kus,  A. Landau,  
 Jie Liu,  E. I. Proynov,  R. M. Richard,  R. P. Steele,  E. J. Sundstrom,  
 H. L. Woodcock III,  P. M. Zimmerman,  D. Zuev,  B. Albrecht,  E. Alguire,  
 S. A. Baeppler,  Z. Benda,  Y. A. Bernard,  E. J. Berquist,  K. B. Bravaya,  
 D. Casanova,  Chun-Min Chang,  Yunqing Chen,  A. Chien,  K. D. Closser,  
 M. P. Coons,  S. Dasgupta,  M. Diedenhofen,  Hainam Do,  R. G. Edgar,  
 Po-Tung Fang,  S. Fatehi,  Qingguo Feng,  Qinghui Ge,  A. Ghysels,  
 J. Gomes,  J. Gonthier,  A. Gunina,  M. W. D. Hanson-Heine,  
 P. H. P. Harbach,  A. W. Hauser,  J. E. Herr,  E. G. Hohenstein,  
 Z. C. Holden,  Kerwin Hui,  T.-C. Jagau,  Hyunjun Ji,  B. Kaduk,  
 K. Khistyaev,  Jaehoon Kim,  P. Klunzinger,  K. Koh,  D. Kosenkov,  
 T. Kowalczyk,  C. M. Krauter,  A. Kunitsa,  Ka Un Lao,  A. Laurent,  
 K. V. Lawler,  Joonho Lee,  D. Lefrancois,  S. Lehtola,  D. S. Levine,  
 Yi-Pei Li,  You-Sheng Lin,  Fenglai Liu,  E. Livshits,  A. Luenser,  
 P. Manohar,  E. Mansoor,  S. F. Manzer,  Shan-Ping Mao,  Yuezhi Mao,  
 N. Mardirossian,  A. V. Marenich,  L. A. Martinez-Martinez,  S. A. Maurer,  
 N. J. Mayhall,  S. C. McKenzie,  J.-M. Mewes,  A. F. Morrison,  K. Nanda,  
 T. S. Nguyen-Beck,  R. Olivares-Amaya,  J. A. Parkhill,  T. M. Perrine,  
 F. Plasser,  S. Prager,  A. Prociuk,  D. R. Rehn,  F. Rob,  M. Schneider,  
 N. Sergueev,  S. M. Sharada,  S. Sharma,  D. W. Small,  T. Stauch,  
 T. Stein,  Yu-Chuan Su,  A. J. W. Thom,  T. Tsuchimochi,  L. Vogt,  
 O. Vydrov,  M. A. Watson,  J. Wenzel,  M. de Wergifosse,  T. A. Wesolowski,  
 A. White,  J. Witte,  A. Yamada,  Jun Yang,  K. Yao,  S. Yeganeh,  
 S. R. Yost,  Zhi-Qiang You,  A. Zech,  Igor Ying Zhang,  Xing Zhang,  
 Yan Zhao,  Ying Zhu,  B. R. Brooks,  G. K. L. Chan,  C. J. Cramer,  
 M. S. Gordon,  W. J. Hehre,  A. Klamt,  M. W. Schmidt,  C. D. Sherrill,  
 D. G. Truhlar,  A. Aspuru-Guzik,  R. Baer,  A. T. Bell,  N. A. Besley,  
 Jeng-Da Chai,  A. Dreuw,  B. D. Dunietz,  T. R. Furlani,  Chao-Ping Hsu,  
 Yousung Jung,  Jing Kong,  D. S. Lambrecht,  WanZhen Liang,  C. Ochsenfeld,  
 V. A. Rassolov,  L. V. Slipchenko,  J. E. Subotnik,  T. Van Voorhis,  
 J. M. Herbert,  A. I. Krylov,  P. M. W. Gill,  M. Head-Gordon

 Contributors to earlier versions of Q-Chem not listed above: 
 R. D. Adamson,  B. Austin,  J. Baker,  G. J. O. Beran,  K. Brandhorst,  
 S. T. Brown,  E. F. C. Byrd,  A. K. Chakraborty,  C.-L. Cheng,  
 Siu Hung Chien,  D. M. Chipman,  D. L. Crittenden,  H. Dachsel,  
 R. A. DiStasio Jr.,  R. J. Doerksen,  A. D. Dutoi,  L. Fusti-Molnar,  
 W. A. Goddard III,  A. Golubeva-Zadorozhnaya,  S. R. Gwaltney,  G. Hawkins,  
 A. Heyden,  S. Hirata,  G. Kedziora,  F. J. Keil,  C. Kelley,  Jihan Kim,  
 R. A. King,  R. Z. Khaliullin,  P. P. Korambath,  W. Kurlancheek,  
 A. M. Lee,  M. S. Lee,  S. V. Levchenko,  Ching Yeh Lin,  D. Liotard,  
 R. C. Lochan,  I. Lotan,  P. E. Maslen,  N. Nair,  D. P. O'Neill,  
 D. Neuhauser,  E. Neuscamman,  C. M. Oana,  R. Olson,  B. Peters,  
 R. Peverati,  P. A. Pieniazek,  Y. M. Rhee,  J. Ritchie,  M. A. Rohrdanz,  
 E. Rosta,  N. J. Russ,  H. F. Schaefer III,  N. E. Schultz,  N. Shenvi,  
 A. C. Simmonett,  A. Sodt,  D. Stuck,  K. S. Thanthiriwatte,  V. Vanovschi,  
 Tao Wang,  A. Warshel,  C. F. Williams,  Q. Wu,  X. Xu,  W. Zhang

 Please cite Q-Chem as follows:
 Y. Shao et al., Mol. Phys. 113, 184-215 (2015)
 DOI: 10.1080/00268976.2014.952696

 Q-Chem 5.0.1 for Intel X86 EM64T Linux

 Parts of Q-Chem use Armadillo 5.200.1 (Boston Tea Smuggler).
 http://arma.sourceforge.net/

 Q-Chem begins on Mon Apr  2 15:39:57 2018  

Host: vega03.cac.cornell.edu
0

     Scratch files written to /scratch/jj585/vdw/10n01_distance_4.200_11.save//
 Parallel job on  1  processors

Checking the input file for inconsistencies... 	...done.

--------------------------------------------------------------
User input:
--------------------------------------------------------------
$molecule
0  1
--
0  1
C        -0.54444000        -0.68370000        -0.06689000
C        -0.55709000        +0.71878000        +0.05493000
C        +0.74969000        -1.43776000        -0.09374000
C        +0.72843000        +1.48436000        +0.06598000
O        +1.53645000        -1.09176000        +0.94813000
O        +1.04702000        -2.28405000        -0.90088000
O        +1.53784000        +1.08301000        -0.93877000
O        +1.01035000        +2.37097000        +0.83478000
C        +2.83449000        +1.70121000        -0.99358000
C        +2.82316000        -1.73208000        +1.00475000
C        -1.74320000        -1.41616000        -0.12552000
C        -2.93952000        -0.70056000        -0.05285000
C        -2.95313000        +0.68255000        +0.06934000
C        -1.77161000        +1.42404000        +0.12810000
H        +2.73835000        +2.77989000        -1.12464000
H        +2.70778000        -2.81319000        +1.09555000
H        -3.90354000        +1.20325000        +0.11710000
H        +3.38998000        +1.50093000        -0.07544000
H        +3.33184000        +1.25269000        -1.85067000
H        +3.31095000        -1.32281000        +1.88650000
H        +3.39889000        -1.50934000        +0.10459000
H        -3.87892000        -1.24211000        -0.08988000
H        -1.78886000        +2.45164000        +0.22176000
H        -1.73878000        -2.44393000        -0.21875000
--
0  1
C        -0.51554000        -1.04990000        +4.11701000
C        -0.52819000        +0.35258000        +4.23883000
C        +0.77859000        -1.80396000        +4.09016000
C        +0.75733000        +1.11816000        +4.24988000
O        +1.56535000        -1.45796000        +5.13203000
O        +1.07592000        -2.65025000        +3.28302000
O        +1.56674000        +0.71681000        +3.24513000
O        +1.03925000        +2.00477000        +5.01868000
C        +2.86339000        +1.33501000        +3.19032000
C        +2.85206000        -2.09828000        +5.18865000
C        -1.71430000        -1.78236000        +4.05838000
C        -2.91062000        -1.06676000        +4.13105000
C        -2.92423000        +0.31635000        +4.25324000
C        -1.74271000        +1.05784000        +4.31200000
H        +2.76725000        +2.41369000        +3.05926000
H        +2.73668000        -3.17939000        +5.27945000
H        -3.87464000        +0.83705000        +4.30100000
H        +3.41888000        +1.13473000        +4.10846000
H        +3.36074000        +0.88649000        +2.33323000
H        +3.33985000        -1.68901000        +6.07040000
H        +3.42779000        -1.87554000        +4.28849000
H        -3.85002000        -1.60831000        +4.09402000
H        -1.75996000        +2.08544000        +4.40566000
H        -1.70988000        -2.81013000        +3.96515000
$end

$rem
JOBTYPE                   SP
METHOD                    B3LYP
DFT_D                     d3_op
BASIS                     6-311++G(d,p)
SYMMETRY                  False
THRESH                    12
SCF_CONVERGENCE           8
MAX_SUB_FILE_NUM          128
MEM_STATIC                400
MEM_TOTAL                 4000
$end
--------------------------------------------------------------
 Adding empirical dispersion correction 
 ----------------------------------------------------------------
 Doing -D3(op) with
 s6 =   1.00000
 s8 =   0.78311
 a1 =   0.30000
 a2 =   4.25000
 n  =  10.00000
 -D3 energy without 3body term =     -0.0650900791 hartrees
 ----------------------------------------------------------------
             Standard Nuclear Orientation (Angstroms)
    I     Atom           X                Y                Z
 ----------------------------------------------------------------
    1      C      -2.0393318072     0.7889994990     0.9049745638
    2      C      -2.1809312667     0.8077040113    -0.4955789052
    3      C      -1.8983985059    -0.5072416012     1.6425358681
    4      C      -2.2857520466    -0.4754054543    -1.2581005197
    5      O      -0.9229486037    -1.2703853040     1.1037320340
    6      O      -2.5275675921    -0.8240601036     2.6222598956
    7      O      -3.1811633221    -1.3073820400    -0.6820774805
    8      O      -1.6896728631    -0.7384320330    -2.2740317400
    9      C      -3.3230196656    -2.6034056415    -1.2876154239
   10      C      -0.7213435387    -2.5571215795     1.7140625232
   11      C      -1.9856042884     1.9844188343     1.6432472998
   12      C      -2.0723317696     3.1837728246     0.9343226343
   13      C      -2.2099830412     3.2033979413    -0.4472619206
   14      C      -2.2656227327     2.0252393199    -1.1943202556
   15      H      -3.6545070989    -2.5075018774    -2.3224529547
   16      H      -0.4333611426    -2.4424343754     2.7601356570
   17      H      -2.2797826974     4.1558856354    -0.9616390938
   18      H      -2.3722697418    -3.1393474786    -1.2651831335
   19      H      -4.0711101589    -3.1203103577    -0.6907062103
   20      H       0.0788119153    -3.0246834530     1.1447987676
   21      H      -1.6350292580    -3.1516860464     1.6589474879
   22      H      -2.0275078327     4.1208272212     1.4793362634
   23      H      -2.3652149759     2.0470190081    -2.2212762178
   24      H      -1.8858254767     1.9754750006     2.6703727735
   25      C       2.1393059867     0.8499148646     0.4863669129
   26      C       1.9977065272     0.8686193769    -0.9141865561
   27      C       2.2802392881    -0.4463262356     1.2239282172
   28      C       1.8928857473    -0.4144900887    -1.6767081707
   29      O       3.2556891902    -1.2094699384     0.6851243830
   30      O       1.6510702019    -0.7631447380     2.2036522447
   31      O       0.9974744718    -1.2464666744    -1.1006851315
   32      O       2.4889649309    -0.6775166674    -2.6926393909
   33      C       0.8556181283    -2.5424902759    -1.7062230748
   34      C       3.4572942552    -2.4962062139     1.2954548723
   35      C       2.1930335056     2.0453341999     1.2246396489
   36      C       2.1063060244     3.2446881902     0.5157149834
   37      C       1.9686547527     3.2643133069    -0.8658695715
   38      C       1.9130150612     2.0861546855    -1.6129279065
   39      H       0.5241306950    -2.4465865118    -2.7410606056
   40      H       3.7452766513    -2.3815190098     2.3415280061
   41      H       1.8988550965     4.2168010010    -1.3802467447
   42      H       1.8063680521    -3.0784321130    -1.6837907844
   43      H       0.1075276350    -3.0593949921    -1.1093138612
   44      H       4.2574497092    -2.9637680874     0.7261911167
   45      H       2.5436085359    -3.0907706808     1.2403398370
   46      H       2.1511299613     4.1817425868     1.0607286125
   47      H       1.8134228180     2.1079343737    -2.6398838687
   48      H       2.2928123173     2.0363903662     2.2517651226
 ----------------------------------------------------------------
 Molecular Point Group                 C1    NOp =  1
 Largest Abelian Subgroup              C1    NOp =  1
 Nuclear Repulsion Energy =  2870.8680669204 hartrees
 There are      102 alpha and      102 beta electrons
 Requested basis set is 6-311++G(d,p)
 There are 268 shells and 756 basis functions

 Total QAlloc Memory Limit   4000 MB
 Mega-Array Size       392 MB
 MEM_STATIC part       400 MB
 A cutoff of  1.0D-12 yielded  26647 shell pairs
 There are    216657 function pairs (    231235 Cartesian)
 
 -------------------------------------------------------
 OpenMP Integral Computing Module                       
 Release: version 1.0, May 2013, Q-Chem Inc. Pittsburgh 
 -------------------------------------------------------
 Integral Job Info:
 Integral job number is                      11
 Integral operator is                         1
 short-range coefficients                     0
 long-range coefficients              100000000
 Omega coefficients                           0
 if combine SR and LR in K                    0
 Integral screening is                        0
 Integral computing path is                   2
 max size of driver memory is            800000
 size of driver memory is                593474
 size of scratch memory is              2361544
 max col of scratch BK array               1296
 max len of scratch array in speh3          155
 max len of scratch index in speh4           18
 max int batch size is                      520
 min int batch size is                       52
 fixed nKL is                                52
 max L of basis functions is                  2
 order of int derivative is                   0
 number of shells is                        268
 number of basis is                         784
 number of cartesian basis is               784
 number of contracted shell pairs         26647
 number of primitive shell pairs          58767
 maxK2 (contraction) of shell pair           36
 max number of K2 of shell pair               1
 max number of CS2 of shell pair           5050
 max number of PS2 of shell pair          10536
 mem total for path MDJ                  446776
 -------------------------------------------------------
 Smallest overlap matrix eigenvalue = 1.31E-07
 Linear dependence detected in AO basis
 Number of orthogonalized atomic orbitals = 750
 Maximum deviation from orthogonality = 1.891E-10

 Scale SEOQF with 1.000000e-01/1.000000e-01/1.000000e-01

 Standard Electronic Orientation quadrupole field applied
 Nucleus-field energy     =     0.0000000414 hartrees
 Guess from superposition of atomic densities
 Warning:  Energy on first SCF cycle will be non-variational
 A restricted hybrid HF-DFT SCF calculation will be
 performed using Pulay DIIS extrapolation
 Exchange:     0.2000 Hartree-Fock + 0.0800 Slater + 0.7200 B88
 Correlation:  0.1900 VWN1RPA + 0.8100 LYP
 Using SG-1 standard quadrature grid
 Dispersion:   Grimme D3
 SCF converges when DIIS error is below 1.0E-08
 using 2 threads for integral computing
 -------------------------------------------------------
 OpenMP Integral computing Module                
 Release: version 1.0, May 2013, Q-Chem Inc. Pittsburgh 
 -------------------------------------------------------
 -------------------------------------------------------
 OpenMP BLAS3 based DFT computing Module                
 Release: version 1.0, May 2013, Q-Chem Inc. Pittsburgh 
 -------------------------------------------------------
 ---------------------------------------
  Cycle       Energy         DIIS Error
 ---------------------------------------
    1   -1382.3728761889      2.39E-02
    2   -1375.8910461050      3.06E-03
    3   -1374.8524679670      5.48E-03
    4   -1376.3333798293      1.26E-03
    5   -1376.4225084904      3.49E-04
    6   -1376.4282163409      1.29E-04
    7   -1376.4290483658      4.38E-05
    8   -1376.4291330573      1.98E-05
    9   -1376.4291525023      3.94E-06
   10   -1376.4291533270      1.01E-06
   11   -1376.4291533867      3.70E-07
   12   -1376.4291533943      1.62E-07
   13   -1376.4291533960      3.48E-08
   14   -1376.4291533962      1.77E-08
   15   -1376.4291533962      7.41E-09 Convergence criterion met
 ---------------------------------------
 SCF time:  CPU 2784.53 s  wall 1398.05 s
 SCF   energy in the final basis set = -1376.42915340
 Total energy in the final basis set = -1376.42915340
 
 --------------------------------------------------------------
 
                    Orbital Energies (a.u.)
 --------------------------------------------------------------
 
 Alpha MOs
 -- Occupied --
-19.178 -19.177 -19.167 -19.166 -19.121 -19.121 -19.113 -19.112
-10.313 -10.313 -10.306 -10.305 -10.235 -10.234 -10.225 -10.223
-10.211 -10.211 -10.210 -10.209 -10.195 -10.195 -10.194 -10.194
-10.194 -10.194 -10.193 -10.193  -1.121  -1.120  -1.109  -1.108
 -1.032  -1.032  -1.024  -1.022  -0.884  -0.883  -0.796  -0.795
 -0.783  -0.783  -0.741  -0.740  -0.729  -0.726  -0.653  -0.652
 -0.642  -0.641  -0.593  -0.592  -0.575  -0.574  -0.553  -0.548
 -0.522  -0.519  -0.515  -0.509  -0.493  -0.491  -0.486  -0.486
 -0.485  -0.478  -0.477  -0.468  -0.468  -0.468  -0.464  -0.462
 -0.440  -0.436  -0.430  -0.422  -0.413  -0.413  -0.404  -0.402
 -0.386  -0.386  -0.385  -0.383  -0.380  -0.376  -0.366  -0.365
 -0.363  -0.353  -0.322  -0.320  -0.309  -0.307  -0.299  -0.296
 -0.293  -0.288  -0.275  -0.271  -0.267  -0.264
 -- Virtual --
 -0.060  -0.054  -0.047  -0.037  -0.016  -0.013  -0.002   0.004
  0.006   0.007   0.010   0.012   0.014   0.022   0.023   0.025
  0.029   0.030   0.031   0.041   0.042   0.046   0.046   0.050
  0.053   0.058   0.060   0.063   0.068   0.071   0.074   0.077
  0.079   0.087   0.090   0.098   0.099   0.100   0.105   0.105
  0.106   0.107   0.108   0.109   0.112   0.114   0.118   0.120
  0.125   0.125   0.127   0.129   0.130   0.132   0.133   0.135
  0.139   0.140   0.142   0.144   0.147   0.150   0.152   0.154
  0.155   0.158   0.159   0.161   0.163   0.165   0.167   0.168
  0.169   0.175   0.175   0.176   0.180   0.185   0.186   0.186
  0.193   0.198   0.200   0.204   0.208   0.210   0.213   0.219
  0.220   0.222   0.227   0.227   0.232   0.233   0.235   0.237
  0.239   0.241   0.245   0.246   0.247   0.248   0.249   0.251
  0.255   0.259   0.264   0.265   0.269   0.270   0.276   0.280
  0.282   0.284   0.287   0.287   0.288   0.290   0.294   0.299
  0.300   0.303   0.312   0.315   0.315   0.317   0.322   0.326
  0.327   0.328   0.330   0.333   0.339   0.343   0.348   0.349
  0.351   0.351   0.356   0.359   0.360   0.363   0.365   0.367
  0.369   0.371   0.378   0.380   0.381   0.383   0.389   0.391
  0.395   0.396   0.398   0.402   0.404   0.408   0.412   0.420
  0.424   0.429   0.432   0.436   0.439   0.446   0.451   0.465
  0.469   0.471   0.485   0.492   0.494   0.503   0.505   0.512
  0.516   0.517   0.526   0.531   0.532   0.539   0.543   0.549
  0.551   0.558   0.564   0.567   0.572   0.575   0.577   0.580
  0.585   0.586   0.594   0.599   0.602   0.604   0.615   0.623
  0.625   0.628   0.628   0.635   0.638   0.641   0.648   0.652
  0.656   0.662   0.666   0.670   0.677   0.681   0.683   0.689
  0.690   0.693   0.701   0.704   0.708   0.710   0.722   0.726
  0.732   0.735   0.737   0.741   0.743   0.748   0.753   0.755
  0.759   0.763   0.776   0.780   0.784   0.789   0.792   0.796
  0.803   0.815   0.817   0.824   0.825   0.827   0.828   0.830
  0.834   0.843   0.852   0.852   0.862   0.871   0.876   0.888
  0.892   0.900   0.907   0.919   0.922   0.933   0.937   0.951
  0.958   0.967   0.977   0.980   0.984   0.995   1.001   1.009
  1.016   1.023   1.031   1.038   1.053   1.058   1.070   1.079
  1.081   1.086   1.099   1.105   1.112   1.116   1.117   1.130
  1.131   1.133   1.144   1.155   1.164   1.171   1.183   1.195
  1.205   1.211   1.226   1.227   1.231   1.237   1.244   1.256
  1.262   1.268   1.272   1.289   1.296   1.297   1.302   1.308
  1.313   1.322   1.333   1.335   1.340   1.348   1.353   1.358
  1.383   1.391   1.402   1.405   1.407   1.414   1.421   1.422
  1.448   1.466   1.470   1.472   1.488   1.493   1.498   1.503
  1.508   1.514   1.523   1.527   1.533   1.536   1.540   1.541
  1.544   1.559   1.562   1.567   1.573   1.582   1.587   1.590
  1.595   1.609   1.614   1.615   1.627   1.633   1.642   1.648
  1.656   1.659   1.663   1.673   1.685   1.689   1.696   1.702
  1.705   1.724   1.725   1.727   1.730   1.732   1.737   1.745
  1.749   1.758   1.760   1.768   1.773   1.774   1.788   1.791
  1.798   1.805   1.821   1.821   1.839   1.840   1.846   1.849
  1.865   1.867   1.880   1.886   1.900   1.905   1.912   1.919
  1.926   1.939   1.939   1.945   1.953   1.960   1.961   1.970
  1.975   1.986   1.992   2.005   2.011   2.015   2.023   2.028
  2.031   2.041   2.079   2.080   2.094   2.096   2.108   2.114
  2.120   2.125   2.129   2.139   2.146   2.147   2.157   2.175
  2.182   2.200   2.221   2.250   2.275   2.291   2.311   2.318
  2.321   2.326   2.355   2.357   2.396   2.424   2.433   2.458
  2.460   2.470   2.493   2.494   2.506   2.510   2.516   2.517
  2.521   2.532   2.545   2.555   2.558   2.577   2.585   2.590
  2.606   2.610   2.616   2.627   2.638   2.660   2.679   2.686
  2.695   2.702   2.707   2.711   2.715   2.724   2.728   2.748
  2.757   2.766   2.770   2.771   2.777   2.782   2.788   2.791
  2.794   2.800   2.810   2.820   2.836   2.844   2.849   2.851
  2.859   2.863   2.866   2.876   2.882   2.887   2.893   2.900
  2.906   2.909   2.915   2.925   2.932   2.936   2.946   2.957
  2.958   2.978   2.983   2.993   3.018   3.031   3.054   3.056
  3.080   3.083   3.090   3.091   3.102   3.106   3.128   3.139
  3.148   3.160   3.194   3.197   3.230   3.238   3.238   3.250
  3.253   3.257   3.264   3.279   3.296   3.298   3.305   3.309
  3.363   3.371   3.377   3.392   3.395   3.418   3.425   3.449
  3.539   3.547   3.556   3.569   3.600   3.602   3.618   3.624
  3.656   3.664   3.670   3.686   3.734   3.772   3.782   3.783
  3.805   3.808   3.840   3.842   3.886   3.891   3.908   3.909
  4.025   4.029   4.057   4.058   4.074   4.091   4.094   4.099
  4.130   4.134   4.173   4.177   4.255   4.266   4.281   4.284
  4.359   4.362   4.827   4.834   5.069   5.077   5.125   5.160
  5.184   5.190   5.238   5.251   5.258   5.265   5.281   5.285
  5.412   5.425   5.472   5.479   5.629   5.634   5.639   5.641
  5.899   5.906   5.919   5.922  23.647  23.708  23.859  23.863
 23.879  23.882  23.929  23.939  23.956  23.962  23.964  23.990
 24.004  24.020  24.059  24.064  24.084  24.090  24.174  24.186
 49.903  49.920  49.945  49.958  50.020  50.031  50.045  50.046
 --------------------------------------------------------------
 
          Ground-State Mulliken Net Atomic Charges

     Atom                 Charge (a.u.)
  ----------------------------------------
      1 C                     0.689740
      2 C                     0.681302
      3 C                    -0.619284
      4 C                    -0.772137
      5 O                     0.130428
      6 O                    -0.159223
      7 O                     0.131758
      8 O                    -0.119619
      9 C                    -0.151570
     10 C                    -0.386979
     11 C                    -0.148559
     12 C                    -0.323560
     13 C                    -0.291803
     14 C                    -0.449420
     15 H                     0.170339
     16 H                     0.239830
     17 H                     0.181243
     18 H                     0.186860
     19 H                     0.172006
     20 H                     0.064668
     21 H                     0.190141
     22 H                     0.178087
     23 H                     0.200632
     24 H                     0.211912
     25 C                     0.640169
     26 C                     0.747097
     27 C                    -0.786304
     28 C                    -0.641357
     29 O                     0.138449
     30 O                    -0.110741
     31 O                     0.111320
     32 O                    -0.158499
     33 C                    -0.399893
     34 C                    -0.134219
     35 C                    -0.436600
     36 C                    -0.292064
     37 C                    -0.325936
     38 C                    -0.151636
     39 H                     0.242144
     40 H                     0.169390
     41 H                     0.178222
     42 H                     0.194454
     43 H                     0.059913
     44 H                     0.173166
     45 H                     0.183825
     46 H                     0.181252
     47 H                     0.212456
     48 H                     0.198596
  ----------------------------------------
  Sum of atomic charges =     0.000000

 -----------------------------------------------------------------
                    Cartesian Multipole Moments
 -----------------------------------------------------------------
    Charge (ESU x 10^10)
                 0.0000
    Dipole Moment (Debye)
         X       0.2032      Y       0.2699      Z       0.1968
       Tot       0.3910
    Quadrupole Moments (Debye-Ang)
        XX    -168.4645     XY      -1.1968     YY    -126.2073
        XZ      18.5932     YZ       0.7081     ZZ    -175.8191
    Octopole Moments (Debye-Ang^2)
       XXX       5.4222    XXY     -47.0075    XYY       0.1908
       YYY     -41.7916    XXZ       0.3326    XYZ     -21.7202
       YYZ      -1.7602    XZZ       0.6678    YZZ      17.0997
       ZZZ       5.3241
    Hexadecapole Moments (Debye-Ang^3)
      XXXX   -5074.7912   XXXY     -18.4872   XXYY   -1309.9316
      XYYY       0.4914   YYYY   -3511.3511   XXXZ     268.6249
      XXYZ       4.2226   XYYZ      45.1765   YYYZ       3.1537
      XXZZ   -1309.7264   XYZZ      -5.6417   YYZZ    -940.7027
      XZZZ     142.3798   YZZZ       2.6834   ZZZZ   -2477.0164
 -----------------------------------------------------------------
Archival summary:
1\1\vega03.cac.cornell.edu\SP\ProcedureUnspecified\BasisUnspecified\82020\jj585\MonApr216:03:172018MonApr216:03:172018\0\\#,ProcedureUnspecified,BasisUnspecified,\\0,1\O\C,1,1.35063\O,2,1.20668,1,123.512\C,1,1.43835,2,115.94,3,4.13325,0\H,4,1.08762,1,105.403,2,179.104,0\H,4,1.09103,1,110.475,2,-61.3232,0\H,4,1.0915,1,110.399,2,59.3962,0\C,2,1.49803,1,111.128,3,177.348,0\C,8,1.40604,2,118.266,1,-126.75,0\H,9,1.032,8,121.26,2,-2.16035,0\C,9,1.3959,8,117.481,2,177.84,0\H,11,1.08495,9,118.972,8,-179.641,0\C,11,1.38856,9,121.575,8,0.160349,0\H,13,1.08475,11,119.38,9,179.653,0\C,13,1.39616,11,121.629,9,-0.129654,0\H,15,1.032,13,121.232,11,-179.817,0\C,15,1.40634,13,117.536,11,0.183585,0\C,17,1.49626,15,119.012,13,177.857,0\O,18,1.2069,17,125.54,15,47.3939,0\O,18,1.3512,17,110.928,15,-130.615,0\C,20,1.43752,18,116.164,17,-177.05,0\H,21,1.08772,20,105.376,18,179.706,0\H,21,1.09086,20,110.507,18,-60.681,0\H,21,1.09163,20,110.367,18,60.0909,0\H,5,2.25456,4,122.635,1,-47.1712,0\C,25,1.08772,5,123.374,4,114.555,0\H,26,1.09086,25,110.694,5,-163.447,0\H,26,1.09163,25,110.757,5,75.3985,0\O,26,1.43752,25,105.376,5,-43.957,0\C,29,1.3512,26,116.164,25,179.706,0\O,30,1.2069,29,123.501,26,4.8931,0\C,30,1.49626,29,110.928,26,-177.05,0\C,32,1.40634,30,119.012,29,-130.615,0\H,33,1.032,32,121.232,30,-2.14291,0\C,33,1.39616,32,117.536,30,177.857,0\H,35,1.08475,33,118.991,32,-179.6,0\C,35,1.38856,33,121.629,32,0.183585,0\H,37,1.08495,35,119.453,33,179.671,0\C,37,1.3959,35,121.575,33,-0.129654,0\H,39,1.032,37,121.26,35,-179.84,0\C,39,1.40604,37,117.481,35,0.160349,0\C,41,1.49803,39,118.266,37,177.84,0\O,42,1.20668,41,125.302,39,50.5403,0\O,42,1.35063,41,111.128,39,-126.75,0\C,44,1.43835,42,115.94,41,-178.519,0\H,45,1.08762,44,105.403,42,179.104,0\H,45,1.09103,44,110.475,42,-61.3232,0\H,45,1.0915,44,110.399,42,59.3962,0\\\@

 Total job time:  1399.85s(wall), 2786.90s(cpu) 
 Mon Apr  2 16:03:17 2018

        *************************************************************
        *                                                           *
        *  Thank you very much for using Q-Chem.  Have a nice day.  *
        *                                                           *
        *************************************************************


0 sent ACK to 0 
now end server 0 ... 
