mFile = /opt/software/qchem/qchem-5.0.1//bin/mpi/machines
Process 0 of 1 is on vega03.cac.cornell.edu - thread support 0
initial socket setup ...start
initial socket setup ...done 
now start server 0 ... 
vega03 10.84.3
Q-Chem Developer Version! Running on 10.84.3.*
                  Welcome to Q-Chem
     A Quantum Leap Into The Future Of Chemistry


 Q-Chem 5.0, Q-Chem, Inc., Pleasanton, CA (2017)

 Yihan Shao,  Zhengting Gan,  E. Epifanovsky,  A. T. B. Gilbert,  M. Wormit,  
 J. Kussmann,  A. W. Lange,  A. Behn,  Jia Deng,  Xintian Feng,  D. Ghosh,  
 M. Goldey,  P. R. Horn,  L. D. Jacobson,  I. Kaliman,  T. Kus,  A. Landau,  
 Jie Liu,  E. I. Proynov,  R. M. Richard,  R. P. Steele,  E. J. Sundstrom,  
 H. L. Woodcock III,  P. M. Zimmerman,  D. Zuev,  B. Albrecht,  E. Alguire,  
 S. A. Baeppler,  Z. Benda,  Y. A. Bernard,  E. J. Berquist,  K. B. Bravaya,  
 D. Casanova,  Chun-Min Chang,  Yunqing Chen,  A. Chien,  K. D. Closser,  
 M. P. Coons,  S. Dasgupta,  M. Diedenhofen,  Hainam Do,  R. G. Edgar,  
 Po-Tung Fang,  S. Fatehi,  Qingguo Feng,  Qinghui Ge,  A. Ghysels,  
 J. Gomes,  J. Gonthier,  A. Gunina,  M. W. D. Hanson-Heine,  
 P. H. P. Harbach,  A. W. Hauser,  J. E. Herr,  E. G. Hohenstein,  
 Z. C. Holden,  Kerwin Hui,  T.-C. Jagau,  Hyunjun Ji,  B. Kaduk,  
 K. Khistyaev,  Jaehoon Kim,  P. Klunzinger,  K. Koh,  D. Kosenkov,  
 T. Kowalczyk,  C. M. Krauter,  A. Kunitsa,  Ka Un Lao,  A. Laurent,  
 K. V. Lawler,  Joonho Lee,  D. Lefrancois,  S. Lehtola,  D. S. Levine,  
 Yi-Pei Li,  You-Sheng Lin,  Fenglai Liu,  E. Livshits,  A. Luenser,  
 P. Manohar,  E. Mansoor,  S. F. Manzer,  Shan-Ping Mao,  Yuezhi Mao,  
 N. Mardirossian,  A. V. Marenich,  L. A. Martinez-Martinez,  S. A. Maurer,  
 N. J. Mayhall,  S. C. McKenzie,  J.-M. Mewes,  A. F. Morrison,  K. Nanda,  
 T. S. Nguyen-Beck,  R. Olivares-Amaya,  J. A. Parkhill,  T. M. Perrine,  
 F. Plasser,  S. Prager,  A. Prociuk,  D. R. Rehn,  F. Rob,  M. Schneider,  
 N. Sergueev,  S. M. Sharada,  S. Sharma,  D. W. Small,  T. Stauch,  
 T. Stein,  Yu-Chuan Su,  A. J. W. Thom,  T. Tsuchimochi,  L. Vogt,  
 O. Vydrov,  M. A. Watson,  J. Wenzel,  M. de Wergifosse,  T. A. Wesolowski,  
 A. White,  J. Witte,  A. Yamada,  Jun Yang,  K. Yao,  S. Yeganeh,  
 S. R. Yost,  Zhi-Qiang You,  A. Zech,  Igor Ying Zhang,  Xing Zhang,  
 Yan Zhao,  Ying Zhu,  B. R. Brooks,  G. K. L. Chan,  C. J. Cramer,  
 M. S. Gordon,  W. J. Hehre,  A. Klamt,  M. W. Schmidt,  C. D. Sherrill,  
 D. G. Truhlar,  A. Aspuru-Guzik,  R. Baer,  A. T. Bell,  N. A. Besley,  
 Jeng-Da Chai,  A. Dreuw,  B. D. Dunietz,  T. R. Furlani,  Chao-Ping Hsu,  
 Yousung Jung,  Jing Kong,  D. S. Lambrecht,  WanZhen Liang,  C. Ochsenfeld,  
 V. A. Rassolov,  L. V. Slipchenko,  J. E. Subotnik,  T. Van Voorhis,  
 J. M. Herbert,  A. I. Krylov,  P. M. W. Gill,  M. Head-Gordon

 Contributors to earlier versions of Q-Chem not listed above: 
 R. D. Adamson,  B. Austin,  J. Baker,  G. J. O. Beran,  K. Brandhorst,  
 S. T. Brown,  E. F. C. Byrd,  A. K. Chakraborty,  C.-L. Cheng,  
 Siu Hung Chien,  D. M. Chipman,  D. L. Crittenden,  H. Dachsel,  
 R. A. DiStasio Jr.,  R. J. Doerksen,  A. D. Dutoi,  L. Fusti-Molnar,  
 W. A. Goddard III,  A. Golubeva-Zadorozhnaya,  S. R. Gwaltney,  G. Hawkins,  
 A. Heyden,  S. Hirata,  G. Kedziora,  F. J. Keil,  C. Kelley,  Jihan Kim,  
 R. A. King,  R. Z. Khaliullin,  P. P. Korambath,  W. Kurlancheek,  
 A. M. Lee,  M. S. Lee,  S. V. Levchenko,  Ching Yeh Lin,  D. Liotard,  
 R. C. Lochan,  I. Lotan,  P. E. Maslen,  N. Nair,  D. P. O'Neill,  
 D. Neuhauser,  E. Neuscamman,  C. M. Oana,  R. Olson,  B. Peters,  
 R. Peverati,  P. A. Pieniazek,  Y. M. Rhee,  J. Ritchie,  M. A. Rohrdanz,  
 E. Rosta,  N. J. Russ,  H. F. Schaefer III,  N. E. Schultz,  N. Shenvi,  
 A. C. Simmonett,  A. Sodt,  D. Stuck,  K. S. Thanthiriwatte,  V. Vanovschi,  
 Tao Wang,  A. Warshel,  C. F. Williams,  Q. Wu,  X. Xu,  W. Zhang

 Please cite Q-Chem as follows:
 Y. Shao et al., Mol. Phys. 113, 184-215 (2015)
 DOI: 10.1080/00268976.2014.952696

 Q-Chem 5.0.1 for Intel X86 EM64T Linux

 Parts of Q-Chem use Armadillo 5.200.1 (Boston Tea Smuggler).
 http://arma.sourceforge.net/

 Q-Chem begins on Mon Apr  2 00:58:46 2018  

Host: vega03.cac.cornell.edu
0

     Scratch files written to /scratch/jj585/vdw/11n11_distance_4.200_10.save//
 Parallel job on  1  processors

Checking the input file for inconsistencies... 	...done.

--------------------------------------------------------------
User input:
--------------------------------------------------------------
$molecule
0  1
C        -0.54444000        -0.68370000        -0.06689000
C        -0.55709000        +0.71878000        +0.05493000
C        +0.74969000        -1.43776000        -0.09374000
C        +0.72843000        +1.48436000        +0.06598000
O        +1.53645000        -1.09176000        +0.94813000
O        +1.04702000        -2.28405000        -0.90088000
O        +1.53784000        +1.08301000        -0.93877000
O        +1.01035000        +2.37097000        +0.83478000
C        +2.83449000        +1.70121000        -0.99358000
C        +2.82316000        -1.73208000        +1.00475000
C        -1.74320000        -1.41616000        -0.12552000
C        -2.93952000        -0.70056000        -0.05285000
C        -2.95313000        +0.68255000        +0.06934000
C        -1.77161000        +1.42404000        +0.12810000
H        +2.73835000        +2.77989000        -1.12464000
H        +2.70778000        -2.81319000        +1.09555000
H        -3.90354000        +1.20325000        +0.11710000
H        +3.38998000        +1.50093000        -0.07544000
H        +3.33184000        +1.25269000        -1.85067000
H        +3.31095000        -1.32281000        +1.88650000
H        +3.39889000        -1.50934000        +0.10459000
H        -3.87892000        -1.24211000        -0.08988000
C        -1.83960000        +2.92746000        +0.24839000
C        -1.78103000        -2.92226000        -0.24590000
H        -1.39752000        -3.25223000        -1.21323000
H        -2.80572000        -3.28175000        -0.13627000
H        -1.16958000        -3.40777000        +0.51926000
H        -1.24214000        +3.42352000        -0.52065000
H        -1.45503000        +3.26427000        +1.21284000
H        -2.87211000        +3.26623000        +0.14638000
@C        -0.51554000        -1.04990000        +4.11701000
@C        -0.52819000        +0.35258000        +4.23883000
@C        +0.77859000        -1.80396000        +4.09016000
@C        +0.75733000        +1.11816000        +4.24988000
@O        +1.56535000        -1.45796000        +5.13203000
@O        +1.07592000        -2.65025000        +3.28302000
@O        +1.56674000        +0.71681000        +3.24513000
@O        +1.03925000        +2.00477000        +5.01868000
@C        +2.86339000        +1.33501000        +3.19032000
@C        +2.85206000        -2.09828000        +5.18865000
@C        -1.71430000        -1.78236000        +4.05838000
@C        -2.91062000        -1.06676000        +4.13105000
@C        -2.92423000        +0.31635000        +4.25324000
@C        -1.74271000        +1.05784000        +4.31200000
@H        +2.76725000        +2.41369000        +3.05926000
@H        +2.73668000        -3.17939000        +5.27945000
@H        -3.87464000        +0.83705000        +4.30100000
@H        +3.41888000        +1.13473000        +4.10846000
@H        +3.36074000        +0.88649000        +2.33323000
@H        +3.33985000        -1.68901000        +6.07040000
@H        +3.42779000        -1.87554000        +4.28849000
@H        -3.85002000        -1.60831000        +4.09402000
@C        -1.81070000        +2.56126000        +4.43229000
@C        -1.75213000        -3.28846000        +3.93800000
@H        -1.36862000        -3.61843000        +2.97067000
@H        -2.77682000        -3.64795000        +4.04763000
@H        -1.14068000        -3.77397000        +4.70316000
@H        -1.21324000        +3.05732000        +3.66325000
@H        -1.42613000        +2.89807000        +5.39674000
@H        -2.84321000        +2.90003000        +4.33028000
$end

$rem
JOBTYPE                   SP
METHOD                    B3LYP
DFT_D                     d3_op
BASIS                     6-311++G(d,p)
SYMMETRY                  False
THRESH                    12
SCF_CONVERGENCE           8
MAX_SUB_FILE_NUM          128
MEM_STATIC                400
MEM_TOTAL                 4000
$end
--------------------------------------------------------------
 Adding empirical dispersion correction 
 ----------------------------------------------------------------
 Doing -D3(op) with
 s6 =   1.00000
 s8 =   0.78311
 a1 =   0.30000
 a2 =   4.25000
 n  =  10.00000
 -D3 energy without 3body term =     -0.0335599997 hartrees
 ----------------------------------------------------------------
             Standard Nuclear Orientation (Angstroms)
    I     Atom           X                Y                Z
 ----------------------------------------------------------------
    1      C      -0.5444400000    -0.6837000000    -0.0668900000
    2      C      -0.5570900000     0.7187800000     0.0549300000
    3      C       0.7496900000    -1.4377600000    -0.0937400000
    4      C       0.7284300000     1.4843600000     0.0659800000
    5      O       1.5364500000    -1.0917600000     0.9481300000
    6      O       1.0470200000    -2.2840500000    -0.9008800000
    7      O       1.5378400000     1.0830100000    -0.9387700000
    8      O       1.0103500000     2.3709700000     0.8347800000
    9      C       2.8344900000     1.7012100000    -0.9935800000
   10      C       2.8231600000    -1.7320800000     1.0047500000
   11      C      -1.7432000000    -1.4161600000    -0.1255200000
   12      C      -2.9395200000    -0.7005600000    -0.0528500000
   13      C      -2.9531300000     0.6825500000     0.0693400000
   14      C      -1.7716100000     1.4240400000     0.1281000000
   15      H       2.7383500000     2.7798900000    -1.1246400000
   16      H       2.7077800000    -2.8131900000     1.0955500000
   17      H      -3.9035400000     1.2032500000     0.1171000000
   18      H       3.3899800000     1.5009300000    -0.0754400000
   19      H       3.3318400000     1.2526900000    -1.8506700000
   20      H       3.3109500000    -1.3228100000     1.8865000000
   21      H       3.3988900000    -1.5093400000     0.1045900000
   22      H      -3.8789200000    -1.2421100000    -0.0898800000
   23      C      -1.8396000000     2.9274600000     0.2483900000
   24      C      -1.7810300000    -2.9222600000    -0.2459000000
   25      H      -1.3975200000    -3.2522300000    -1.2132300000
   26      H      -2.8057200000    -3.2817500000    -0.1362700000
   27      H      -1.1695800000    -3.4077700000     0.5192600000
   28      H      -1.2421400000     3.4235200000    -0.5206500000
   29      H      -1.4550300000     3.2642700000     1.2128400000
   30      H      -2.8721100000     3.2662300000     0.1463800000
   31      GH     -0.5155400000    -1.0499000000     4.1170100000
   32      GH     -0.5281900000     0.3525800000     4.2388300000
   33      GH      0.7785900000    -1.8039600000     4.0901600000
   34      GH      0.7573300000     1.1181600000     4.2498800000
   35      GH      1.5653500000    -1.4579600000     5.1320300000
   36      GH      1.0759200000    -2.6502500000     3.2830200000
   37      GH      1.5667400000     0.7168100000     3.2451300000
   38      GH      1.0392500000     2.0047700000     5.0186800000
   39      GH      2.8633900000     1.3350100000     3.1903200000
   40      GH      2.8520600000    -2.0982800000     5.1886500000
   41      GH     -1.7143000000    -1.7823600000     4.0583800000
   42      GH     -2.9106200000    -1.0667600000     4.1310500000
   43      GH     -2.9242300000     0.3163500000     4.2532400000
   44      GH     -1.7427100000     1.0578400000     4.3120000000
   45      GH      2.7672500000     2.4136900000     3.0592600000
   46      GH      2.7366800000    -3.1793900000     5.2794500000
   47      GH     -3.8746400000     0.8370500000     4.3010000000
   48      GH      3.4188800000     1.1347300000     4.1084600000
   49      GH      3.3607400000     0.8864900000     2.3332300000
   50      GH      3.3398500000    -1.6890100000     6.0704000000
   51      GH      3.4277900000    -1.8755400000     4.2884900000
   52      GH     -3.8500200000    -1.6083100000     4.0940200000
   53      GH     -1.8107000000     2.5612600000     4.4322900000
   54      GH     -1.7521300000    -3.2884600000     3.9380000000
   55      GH     -1.3686200000    -3.6184300000     2.9706700000
   56      GH     -2.7768200000    -3.6479500000     4.0476300000
   57      GH     -1.1406800000    -3.7739700000     4.7031600000
   58      GH     -1.2132400000     3.0573200000     3.6632500000
   59      GH     -1.4261300000     2.8980700000     5.3967400000
   60      GH     -2.8432100000     2.9000300000     4.3302800000
 ----------------------------------------------------------------
 Nuclear Repulsion Energy =  1146.4724567292 hartrees
 There are       59 alpha and       59 beta electrons
 Requested basis set is 6-311++G(d,p)
 There are 332 shells and 900 basis functions

 Total QAlloc Memory Limit   4000 MB
 Mega-Array Size       392 MB
 MEM_STATIC part       400 MB
 A cutoff of  1.0D-12 yielded  40054 shell pairs
 There are    298433 function pairs (    317454 Cartesian)
 
 -------------------------------------------------------
 OpenMP Integral Computing Module                       
 Release: version 1.0, May 2013, Q-Chem Inc. Pittsburgh 
 -------------------------------------------------------
 Integral Job Info:
 Integral job number is                      11
 Integral operator is                         1
 short-range coefficients                     0
 long-range coefficients              100000000
 Omega coefficients                           0
 if combine SR and LR in K                    0
 Integral screening is                        0
 Integral computing path is                   2
 max size of driver memory is            800000
 size of driver memory is                593474
 size of scratch memory is              2361544
 max col of scratch BK array               1296
 max len of scratch array in speh3          155
 max len of scratch index in speh4           18
 max int batch size is                      520
 min int batch size is                       52
 fixed nKL is                                52
 max L of basis functions is                  2
 order of int derivative is                   0
 number of shells is                        332
 number of basis is                         932
 number of cartesian basis is               932
 number of contracted shell pairs         40054
 number of primitive shell pairs          85379
 maxK2 (contraction) of shell pair           36
 max number of K2 of shell pair               1
 max number of CS2 of shell pair           8032
 max number of PS2 of shell pair          13548
 mem total for path MDJ                  575944
 -------------------------------------------------------
 Smallest overlap matrix eigenvalue = 1.16E-08
 Linear dependence detected in AO basis
 Number of orthogonalized atomic orbitals = 889
 Maximum deviation from orthogonality = 1.203E-10

 Scale SEOQF with 1.000000e-01/1.000000e-01/1.000000e-02

 Standard Electronic Orientation quadrupole field applied
 Nucleus-field energy     =     0.0000000441 hartrees
 Guess from superposition of atomic densities
 Warning:  Energy on first SCF cycle will be non-variational

 Q-Chem warning in module /opt/software/qchem/qchem-5.0.1/libgen/Atomic_PolEc.C, line 58:

 No atomic polarizability available.


 Q-Chem warning in module /opt/software/qchem/qchem-5.0.1/libgen/Atomic_PolEc.C, line 73:

 No atomic polarizability available.


 Q-Chem warning in module /opt/software/qchem/qchem-5.0.1/libgen/Atomic_PolEc.C, line 58:

 No atomic polarizability available.


 Q-Chem warning in module /opt/software/qchem/qchem-5.0.1/libgen/Atomic_PolEc.C, line 73:

 No atomic polarizability available.


 Q-Chem warning in module /opt/software/qchem/qchem-5.0.1/libgen/Atomic_PolEc.C, line 58:

 No atomic polarizability available.


 Q-Chem warning in module /opt/software/qchem/qchem-5.0.1/libgen/Atomic_PolEc.C, line 73:

 No atomic polarizability available.


 Q-Chem warning in module /opt/software/qchem/qchem-5.0.1/libgen/Atomic_PolEc.C, line 58:

 No atomic polarizability available.


 Q-Chem warning in module /opt/software/qchem/qchem-5.0.1/libgen/Atomic_PolEc.C, line 73:

 No atomic polarizability available.


 Q-Chem warning in module /opt/software/qchem/qchem-5.0.1/libgen/Atomic_PolEc.C, line 58:

 No atomic polarizability available.


 Q-Chem warning in module /opt/software/qchem/qchem-5.0.1/libgen/Atomic_PolEc.C, line 73:

 No atomic polarizability available.


 Q-Chem warning in module /opt/software/qchem/qchem-5.0.1/libgen/Atomic_PolEc.C, line 58:

 No atomic polarizability available.


 Q-Chem warning in module /opt/software/qchem/qchem-5.0.1/libgen/Atomic_PolEc.C, line 73:

 No atomic polarizability available.


 Q-Chem warning in module /opt/software/qchem/qchem-5.0.1/libgen/Atomic_PolEc.C, line 58:

 No atomic polarizability available.


 Q-Chem warning in module /opt/software/qchem/qchem-5.0.1/libgen/Atomic_PolEc.C, line 73:

 No atomic polarizability available.


 Q-Chem warning in module /opt/software/qchem/qchem-5.0.1/libgen/Atomic_PolEc.C, line 58:

 No atomic polarizability available.


 Q-Chem warning in module /opt/software/qchem/qchem-5.0.1/libgen/Atomic_PolEc.C, line 73:

 No atomic polarizability available.


 Q-Chem warning in module /opt/software/qchem/qchem-5.0.1/libgen/Atomic_PolEc.C, line 58:

 No atomic polarizability available.


 Q-Chem warning in module /opt/software/qchem/qchem-5.0.1/libgen/Atomic_PolEc.C, line 73:

 No atomic polarizability available.


 Q-Chem warning in module /opt/software/qchem/qchem-5.0.1/libgen/Atomic_PolEc.C, line 58:

 No atomic polarizability available.


 Q-Chem warning in module /opt/software/qchem/qchem-5.0.1/libgen/Atomic_PolEc.C, line 73:

 No atomic polarizability available.


 Q-Chem warning in module /opt/software/qchem/qchem-5.0.1/libgen/Atomic_PolEc.C, line 58:

 No atomic polarizability available.


 Q-Chem warning in module /opt/software/qchem/qchem-5.0.1/libgen/Atomic_PolEc.C, line 73:

 No atomic polarizability available.


 Q-Chem warning in module /opt/software/qchem/qchem-5.0.1/libgen/Atomic_PolEc.C, line 58:

 No atomic polarizability available.


 Q-Chem warning in module /opt/software/qchem/qchem-5.0.1/libgen/Atomic_PolEc.C, line 73:

 No atomic polarizability available.


 Q-Chem warning in module /opt/software/qchem/qchem-5.0.1/libgen/Atomic_PolEc.C, line 58:

 No atomic polarizability available.


 Q-Chem warning in module /opt/software/qchem/qchem-5.0.1/libgen/Atomic_PolEc.C, line 73:

 No atomic polarizability available.


 Q-Chem warning in module /opt/software/qchem/qchem-5.0.1/libgen/Atomic_PolEc.C, line 58:

 No atomic polarizability available.


 Q-Chem warning in module /opt/software/qchem/qchem-5.0.1/libgen/Atomic_PolEc.C, line 73:

 No atomic polarizability available.


 Q-Chem warning in module /opt/software/qchem/qchem-5.0.1/libgen/Atomic_PolEc.C, line 58:

 No atomic polarizability available.


 Q-Chem warning in module /opt/software/qchem/qchem-5.0.1/libgen/Atomic_PolEc.C, line 73:

 No atomic polarizability available.


 Q-Chem warning in module /opt/software/qchem/qchem-5.0.1/libgen/Atomic_PolEc.C, line 58:

 No atomic polarizability available.


 Q-Chem warning in module /opt/software/qchem/qchem-5.0.1/libgen/Atomic_PolEc.C, line 73:

 No atomic polarizability available.


 Q-Chem warning in module /opt/software/qchem/qchem-5.0.1/libgen/Atomic_PolEc.C, line 58:

 No atomic polarizability available.


 Q-Chem warning in module /opt/software/qchem/qchem-5.0.1/libgen/Atomic_PolEc.C, line 73:

 No atomic polarizability available.


 Q-Chem warning in module /opt/software/qchem/qchem-5.0.1/libgen/Atomic_PolEc.C, line 58:

 No atomic polarizability available.


 Q-Chem warning in module /opt/software/qchem/qchem-5.0.1/libgen/Atomic_PolEc.C, line 73:

 No atomic polarizability available.


 Q-Chem warning in module /opt/software/qchem/qchem-5.0.1/libgen/Atomic_PolEc.C, line 58:

 No atomic polarizability available.


 Q-Chem warning in module /opt/software/qchem/qchem-5.0.1/libgen/Atomic_PolEc.C, line 73:

 No atomic polarizability available.


 Q-Chem warning in module /opt/software/qchem/qchem-5.0.1/libgen/Atomic_PolEc.C, line 58:

 No atomic polarizability available.


 Q-Chem warning in module /opt/software/qchem/qchem-5.0.1/libgen/Atomic_PolEc.C, line 73:

 No atomic polarizability available.


 Q-Chem warning in module /opt/software/qchem/qchem-5.0.1/libgen/Atomic_PolEc.C, line 58:

 No atomic polarizability available.


 Q-Chem warning in module /opt/software/qchem/qchem-5.0.1/libgen/Atomic_PolEc.C, line 73:

 No atomic polarizability available.


 Q-Chem warning in module /opt/software/qchem/qchem-5.0.1/libgen/Atomic_PolEc.C, line 58:

 No atomic polarizability available.


 Q-Chem warning in module /opt/software/qchem/qchem-5.0.1/libgen/Atomic_PolEc.C, line 73:

 No atomic polarizability available.


 Q-Chem warning in module /opt/software/qchem/qchem-5.0.1/libgen/Atomic_PolEc.C, line 58:

 No atomic polarizability available.


 Q-Chem warning in module /opt/software/qchem/qchem-5.0.1/libgen/Atomic_PolEc.C, line 73:

 No atomic polarizability available.


 Q-Chem warning in module /opt/software/qchem/qchem-5.0.1/libgen/Atomic_PolEc.C, line 58:

 No atomic polarizability available.


 Q-Chem warning in module /opt/software/qchem/qchem-5.0.1/libgen/Atomic_PolEc.C, line 73:

 No atomic polarizability available.


 Q-Chem warning in module /opt/software/qchem/qchem-5.0.1/libgen/Atomic_PolEc.C, line 58:

 No atomic polarizability available.


 Q-Chem warning in module /opt/software/qchem/qchem-5.0.1/libgen/Atomic_PolEc.C, line 73:

 No atomic polarizability available.


 Q-Chem warning in module /opt/software/qchem/qchem-5.0.1/libgen/Atomic_PolEc.C, line 58:

 No atomic polarizability available.


 Q-Chem warning in module /opt/software/qchem/qchem-5.0.1/libgen/Atomic_PolEc.C, line 73:

 No atomic polarizability available.


 Q-Chem warning in module /opt/software/qchem/qchem-5.0.1/libgen/Atomic_PolEc.C, line 58:

 No atomic polarizability available.


 Q-Chem warning in module /opt/software/qchem/qchem-5.0.1/libgen/Atomic_PolEc.C, line 73:

 No atomic polarizability available.


 Q-Chem warning in module /opt/software/qchem/qchem-5.0.1/libgen/Atomic_PolEc.C, line 58:

 No atomic polarizability available.


 Q-Chem warning in module /opt/software/qchem/qchem-5.0.1/libgen/Atomic_PolEc.C, line 73:

 No atomic polarizability available.


 Q-Chem warning in module /opt/software/qchem/qchem-5.0.1/libgen/Atomic_PolEc.C, line 58:

 No atomic polarizability available.


 Q-Chem warning in module /opt/software/qchem/qchem-5.0.1/libgen/Atomic_PolEc.C, line 73:

 No atomic polarizability available.


 Q-Chem warning in module /opt/software/qchem/qchem-5.0.1/libgen/Atomic_PolEc.C, line 58:

 No atomic polarizability available.


 Q-Chem warning in module /opt/software/qchem/qchem-5.0.1/libgen/Atomic_PolEc.C, line 73:

 No atomic polarizability available.

 A restricted hybrid HF-DFT SCF calculation will be
 performed using Pulay DIIS extrapolation
 Exchange:     0.2000 Hartree-Fock + 0.0800 Slater + 0.7200 B88
 Correlation:  0.1900 VWN1RPA + 0.8100 LYP
 Using SG-1 standard quadrature grid
 Dispersion:   Grimme D3
 SCF converges when DIIS error is below 1.0E-08
 using 2 threads for integral computing
 -------------------------------------------------------
 OpenMP Integral computing Module                
 Release: version 1.0, May 2013, Q-Chem Inc. Pittsburgh 
 -------------------------------------------------------
 -------------------------------------------------------
 OpenMP BLAS3 based DFT computing Module                
 Release: version 1.0, May 2013, Q-Chem Inc. Pittsburgh 
 -------------------------------------------------------
 ---------------------------------------
  Cycle       Energy         DIIS Error
 ---------------------------------------
    1    -770.1912011278      1.53E-02
    2    -766.5507135507      1.97E-03
    3    -766.0291257129      3.35E-03
    4    -766.8178795260      8.46E-04
    5    -766.8752657355      1.89E-04
    6    -766.8773625978      8.51E-05
    7    -766.8778880719      1.42E-05
    8    -766.8779017979      5.17E-06
    9    -766.8779040678      1.25E-06
   10    -766.8779041592      7.05E-07
   11    -766.8779042112      1.46E-07
   12    -766.8779042128      6.34E-08
   13    -766.8779042130      2.85E-08
   14    -766.8779042131      6.22E-09 Convergence criterion met
 ---------------------------------------
 SCF time:  CPU 5173.40 s  wall 2598.24 s
 SCF   energy in the final basis set = -766.87790421
 Total energy in the final basis set = -766.87790421
 
 --------------------------------------------------------------
 
                    Orbital Energies (a.u.)
 --------------------------------------------------------------
 
 Alpha MOs
 -- Occupied --
-19.176 -19.176 -19.119 -19.119 -10.311 -10.311 -10.232 -10.232
-10.205 -10.205 -10.201 -10.201 -10.187 -10.186 -10.171 -10.170
 -1.121  -1.114  -1.031  -1.030  -0.885  -0.807  -0.795  -0.746
 -0.734  -0.724  -0.675  -0.649  -0.620  -0.577  -0.565  -0.537
 -0.517  -0.515  -0.491  -0.489  -0.480  -0.477  -0.469  -0.442
 -0.434  -0.429  -0.420  -0.416  -0.411  -0.405  -0.396  -0.387
 -0.380  -0.373  -0.362  -0.359  -0.357  -0.321  -0.313  -0.293
 -0.292  -0.266  -0.253
 -- Virtual --
 -0.058  -0.034  -0.012  -0.006  -0.000   0.009   0.011   0.013
  0.019   0.022   0.025   0.028   0.030   0.035   0.038   0.040
  0.044   0.049   0.050   0.057   0.058   0.059   0.062   0.064
  0.067   0.071   0.074   0.075   0.078   0.084   0.089   0.091
  0.092   0.095   0.098   0.101   0.102   0.104   0.108   0.109
  0.111   0.113   0.114   0.119   0.120   0.122   0.127   0.128
  0.129   0.133   0.134   0.136   0.140   0.141   0.142   0.144
  0.146   0.147   0.149   0.152   0.153   0.155   0.156   0.160
  0.162   0.165   0.167   0.169   0.172   0.172   0.174   0.179
  0.180   0.181   0.185   0.187   0.190   0.190   0.193   0.195
  0.199   0.200   0.203   0.206   0.208   0.209   0.212   0.214
  0.218   0.220   0.222   0.225   0.226   0.230   0.232   0.233
  0.236   0.238   0.239   0.241   0.244   0.250   0.252   0.253
  0.254   0.257   0.260   0.262   0.265   0.266   0.269   0.270
  0.272   0.276   0.279   0.280   0.280   0.285   0.290   0.292
  0.295   0.298   0.299   0.303   0.308   0.308   0.314   0.316
  0.318   0.322   0.326   0.327   0.328   0.333   0.334   0.338
  0.339   0.341   0.344   0.347   0.352   0.353   0.357   0.358
  0.362   0.364   0.368   0.372   0.376   0.379   0.382   0.384
  0.386   0.389   0.391   0.393   0.399   0.401   0.402   0.407
  0.410   0.414   0.416   0.419   0.422   0.424   0.429   0.430
  0.435   0.440   0.443   0.450   0.451   0.455   0.456   0.459
  0.462   0.465   0.474   0.478   0.483   0.486   0.488   0.489
  0.491   0.495   0.502   0.504   0.507   0.515   0.517   0.519
  0.523   0.532   0.534   0.536   0.544   0.548   0.552   0.558
  0.566   0.570   0.573   0.575   0.581   0.585   0.588   0.594
  0.596   0.599   0.605   0.608   0.612   0.618   0.619   0.623
  0.625   0.627   0.633   0.634   0.639   0.646   0.649   0.652
  0.655   0.660   0.662   0.668   0.675   0.677   0.681   0.683
  0.688   0.693   0.696   0.700   0.701   0.706   0.709   0.716
  0.719   0.723   0.726   0.729   0.733   0.739   0.745   0.746
  0.748   0.752   0.758   0.764   0.768   0.769   0.775   0.783
  0.784   0.788   0.791   0.797   0.798   0.807   0.810   0.813
  0.819   0.820   0.830   0.837   0.838   0.842   0.846   0.857
  0.859   0.868   0.876   0.889   0.892   0.896   0.903   0.923
  0.929   0.939   0.941   0.948   0.949   0.958   0.961   0.968
  0.977   0.985   0.991   1.003   1.006   1.009   1.017   1.027
  1.031   1.035   1.036   1.047   1.049   1.058   1.067   1.068
  1.071   1.079   1.086   1.087   1.097   1.101   1.105   1.112
  1.119   1.127   1.134   1.140   1.148   1.152   1.157   1.169
  1.171   1.173   1.177   1.184   1.198   1.205   1.215   1.220
  1.225   1.231   1.238   1.241   1.249   1.262   1.269   1.277
  1.285   1.290   1.299   1.306   1.313   1.320   1.329   1.338
  1.340   1.345   1.349   1.357   1.367   1.384   1.389   1.392
  1.408   1.412   1.419   1.426   1.435   1.439   1.445   1.459
  1.464   1.471   1.480   1.492   1.494   1.504   1.511   1.523
  1.529   1.534   1.542   1.550   1.553   1.554   1.557   1.566
  1.568   1.577   1.593   1.599   1.599   1.604   1.609   1.615
  1.622   1.625   1.628   1.633   1.644   1.650   1.652   1.657
  1.665   1.668   1.674   1.685   1.692   1.698   1.709   1.716
  1.728   1.732   1.737   1.740   1.743   1.745   1.757   1.762
  1.766   1.771   1.776   1.781   1.787   1.793   1.800   1.804
  1.806   1.809   1.811   1.815   1.828   1.829   1.831   1.840
  1.846   1.848   1.851   1.857   1.866   1.869   1.877   1.884
  1.895   1.897   1.903   1.907   1.909   1.913   1.914   1.921
  1.926   1.934   1.941   1.950   1.956   1.960   1.968   1.976
  1.979   1.992   1.999   2.003   2.017   2.023   2.027   2.036
  2.037   2.050   2.059   2.072   2.081   2.093   2.097   2.101
  2.104   2.110   2.112   2.117   2.125   2.129   2.133   2.146
  2.148   2.156   2.160   2.168   2.174   2.178   2.183   2.192
  2.195   2.206   2.214   2.217   2.225   2.235   2.247   2.263
  2.297   2.306   2.316   2.321   2.324   2.336   2.337   2.342
  2.344   2.349   2.361   2.370   2.377   2.386   2.392   2.403
  2.412   2.420   2.434   2.438   2.454   2.466   2.472   2.479
  2.500   2.504   2.511   2.515   2.517   2.520   2.524   2.527
  2.531   2.539   2.551   2.559   2.567   2.574   2.580   2.586
  2.599   2.601   2.605   2.609   2.616   2.627   2.631   2.633
  2.649   2.657   2.659   2.669   2.674   2.683   2.688   2.690
  2.695   2.703   2.712   2.726   2.730   2.735   2.745   2.748
  2.752   2.763   2.772   2.776   2.778   2.782   2.793   2.812
  2.817   2.829   2.830   2.840   2.851   2.855   2.864   2.880
  2.885   2.894   2.903   2.908   2.916   2.918   2.922   2.926
  2.932   2.939   2.946   2.955   2.966   2.968   2.980   2.996
  3.000   3.012   3.020   3.032   3.043   3.050   3.056   3.067
  3.070   3.079   3.090   3.100   3.101   3.113   3.120   3.124
  3.133   3.150   3.157   3.160   3.172   3.197   3.205   3.220
  3.226   3.235   3.245   3.252   3.259   3.264   3.271   3.281
  3.293   3.298   3.301   3.312   3.327   3.342   3.347   3.355
  3.369   3.392   3.402   3.406   3.414   3.419   3.436   3.451
  3.479   3.484   3.494   3.500   3.505   3.528   3.533   3.536
  3.549   3.558   3.564   3.572   3.590   3.603   3.607   3.628
  3.630   3.640   3.648   3.675   3.686   3.701   3.718   3.748
  3.763   3.767   3.789   3.802   3.803   3.805   3.814   3.838
  3.851   3.865   3.896   3.910   3.922   3.948   3.982   4.026
  4.049   4.065   4.084   4.090   4.097   4.153   4.186   4.239
  4.245   4.249   4.337   4.369   4.394   4.421   4.544   4.556
  4.572   4.613   4.666   4.728   4.744   4.774   4.789   4.796
  4.828   4.832   4.845   4.850   4.860   4.868   4.871   4.903
  4.924   4.929   4.953   4.956   4.975   4.980   5.027   5.092
  5.143   5.182   5.192   5.214   5.262   5.272   5.278   5.304
  5.322   5.349   5.429   5.479   5.565   5.583   5.633   5.646
  5.691   5.717   5.908   5.940   6.122   6.148   7.129   7.220
  7.230   7.322   7.349   7.424   7.443   7.499   7.647   7.696
  7.738   7.759   7.792   7.796   7.801   7.813   7.828   7.838
  7.866   7.875   7.882   7.903   7.915   7.941   7.969   7.983
  8.017   8.073   8.084   8.111   8.132   8.275   8.509   8.540
  8.677   9.042   9.729   9.990  10.004  10.014  10.020  10.047
 10.081  10.223  10.252  10.271  10.274  10.324  13.590  13.637
 13.662  13.719  13.728  13.772  13.889  13.966  14.160  14.195
 14.319  14.338  18.603  18.620  18.728  18.793  23.626  23.873
 23.885  23.940  23.944  23.955  23.972  23.995  24.041  24.077
 24.079  24.171  49.920  49.953  50.033  50.047  69.848  69.962
 69.968  69.973  69.989  70.005  70.041  70.098  70.116  70.124
 70.139  70.167 139.676 139.723 139.791 139.847
 --------------------------------------------------------------
 
          Ground-State Mulliken Net Atomic Charges

     Atom                 Charge (a.u.)
  ----------------------------------------
      1 C                     0.022219
      2 C                     0.448828
      3 C                    -0.458661
      4 C                    -0.923283
      5 O                     0.146251
      6 O                    -0.113248
      7 O                     0.130610
      8 O                    -0.072551
      9 C                    -0.140325
     10 C                    -0.358361
     11 C                     0.404107
     12 C                    -0.201189
     13 C                    -0.306794
     14 C                     0.218927
     15 H                     0.164426
     16 H                     0.203956
     17 H                     0.167267
     18 H                     0.189225
     19 H                     0.172414
     20 H                     0.102260
     21 H                     0.199613
     22 H                     0.170401
     23 C                    -0.609325
     24 C                    -0.594185
     25 H                     0.216065
     26 H                     0.125675
     27 H                     0.221731
     28 H                     0.175919
     29 H                     0.212723
     30 H                     0.139996
     31 GH                   -0.198753
     32 GH                    0.086816
     33 GH                    0.073223
     34 GH                   -0.139429
     35 GH                   -0.000928
     36 GH                    0.008636
     37 GH                    0.005963
     38 GH                    0.002460
     39 GH                    0.012570
     40 GH                   -0.014835
     41 GH                   -0.005780
     42 GH                    0.080677
     43 GH                   -0.033504
     44 GH                    0.003698
     45 GH                    0.004203
     46 GH                    0.001284
     47 GH                   -0.000092
     48 GH                    0.003029
     49 GH                   -0.005693
     50 GH                   -0.001390
     51 GH                    0.007265
     52 GH                    0.001481
     53 GH                    0.023933
     54 GH                    0.045361
     55 GH                   -0.012781
     56 GH                    0.000751
     57 GH                   -0.000546
     58 GH                   -0.003332
     59 GH                   -0.002019
     60 GH                    0.003041
  ----------------------------------------
  Sum of atomic charges =    -0.000000

 -----------------------------------------------------------------
                    Cartesian Multipole Moments
 -----------------------------------------------------------------
    Charge (ESU x 10^10)
                -0.0000
    Dipole Moment (Debye)
         X       0.0654      Y      -0.1081      Z       0.0903
       Tot       0.1553
    Quadrupole Moments (Debye-Ang)
        XX     -76.2605     XY      -0.0522     YY     -95.4853
        XZ       0.0746     YZ      -8.9295     ZZ     -99.4351
    Octopole Moments (Debye-Ang^2)
       XXX      45.9692    XXY      -0.4826    XYY      -4.6669
       YYY      -4.4231    XXZ       0.7346    XYZ     -18.9527
       YYZ       0.1444    XZZ      17.6912    YZZ      -0.0549
       ZZZ       1.1787
    Hexadecapole Moments (Debye-Ang^3)
      XXXX   -2040.2138   XXXY       6.6360   XXYY    -656.4210
      XYYY       3.6996   YYYY   -2002.9928   XXXZ       1.4192
      XXYZ     -32.3625   XYYZ       1.1487   YYYZ     -66.5443
      XXZZ    -435.1638   XYZZ       2.4120   YYZZ    -396.0386
      XZZZ       3.8335   YZZZ     -10.6492   ZZZZ    -334.6661
 -----------------------------------------------------------------
Archival summary:
1\1\vega03.cac.cornell.edu\SP\ProcedureUnspecified\BasisUnspecified\41214h30\jj585\MonApr201:42:072018MonApr201:42:072018\0\\#,ProcedureUnspecified,BasisUnspecified,\\0,1\O\C,1,1.3512\O,2,1.2069,1,123.501\C,1,1.43752,2,116.164,3,4.8931,0\H,4,1.08772,1,105.376,2,179.706,0\H,4,1.09086,1,110.507,2,-60.681,0\H,4,1.09163,1,110.367,2,60.0909,0\C,2,1.49626,1,110.928,3,178.057,0\C,8,1.40634,2,119.012,1,-130.615,0\C,9,1.39616,8,117.536,2,177.857,0\H,10,1.08475,9,118.991,8,-179.6,0\C,10,1.38856,9,121.629,8,0.183585,0\H,12,1.08495,10,119.453,9,179.671,0\C,12,1.3959,10,121.575,9,-0.129654,0\C,14,1.40604,12,117.481,10,0.160349,0\C,15,1.49803,14,118.266,12,177.84,0\O,16,1.20668,15,125.302,14,50.5403,0\O,16,1.35063,15,111.128,14,-126.75,0\C,18,1.43835,16,115.94,15,-178.519,0\H,19,1.08762,18,105.403,16,179.104,0\H,19,1.09103,18,110.475,16,-61.3232,0\H,19,1.0915,18,110.399,16,59.3962,0\C,9,1.50976,8,122.848,2,-1.37569,0\H,23,1.09144,9,110.135,8,171.975,0\H,23,1.09156,9,111.21,8,-67.4939,0\H,23,1.09291,9,111.796,8,51.7903,0\C,14,1.51138,12,119.574,10,179.468,0\H,27,1.09144,14,110.104,12,-7.00566,0\H,27,1.09164,14,111.284,12,113.49,0\H,27,1.09319,14,111.89,12,-127.081,0\Gh,20,2.25456,19,122.635,18,-47.1712,0\Gh,31,1.08772,20,123.374,19,114.555,0\Gh,32,1.09086,31,110.694,20,-163.447,0\Gh,32,1.09163,31,110.757,20,75.3985,0\Gh,32,1.43752,31,105.376,20,-43.957,0\Gh,35,1.3512,32,116.164,31,179.706,0\Gh,36,1.2069,35,123.501,32,4.8931,0\Gh,36,1.49626,35,110.928,32,-177.05,0\Gh,38,1.40634,36,119.012,35,-130.615,0\Gh,39,1.39616,38,117.536,36,177.857,0\Gh,40,1.08475,39,118.991,38,-179.6,0\Gh,40,1.38856,39,121.629,38,0.183585,0\Gh,42,1.08495,40,119.453,39,179.671,0\Gh,42,1.3959,40,121.575,39,-0.129654,0\Gh,44,1.40604,42,117.481,40,0.160349,0\Gh,45,1.49803,44,118.266,42,177.84,0\Gh,46,1.20668,45,125.302,44,50.5403,0\Gh,46,1.35063,45,111.128,44,-126.75,0\Gh,48,1.43835,46,115.94,45,-178.519,0\Gh,49,1.08762,48,105.403,46,179.104,0\Gh,49,1.09103,48,110.475,46,-61.3232,0\Gh,49,1.0915,48,110.399,46,59.3962,0\Gh,39,1.50976,38,122.848,36,-1.37569,0\Gh,53,1.09144,39,110.135,38,171.975,0\Gh,53,1.09156,39,111.21,38,-67.4939,0\Gh,53,1.09291,39,111.796,38,51.7903,0\Gh,44,1.51138,42,119.574,40,179.468,0\Gh,57,1.09144,44,110.104,42,-7.00566,0\Gh,57,1.09164,44,111.284,42,113.49,0\Gh,57,1.09319,44,111.89,42,-127.081,0\\\@

 Total job time:  2601.01s(wall), 5176.87s(cpu) 
 Mon Apr  2 01:42:07 2018

        *************************************************************
        *                                                           *
        *  Thank you very much for using Q-Chem.  Have a nice day.  *
        *                                                           *
        *************************************************************


0 sent ACK to 0 
now end server 0 ... 
