mFile = /opt/software/qchem/qchem-5.0.1//bin/mpi/machines
Process 0 of 1 is on vega01.cac.cornell.edu - thread support 0
initial socket setup ...start
initial socket setup ...done 
now start server 0 ... 
localhost 127.0.0
Q-Chem Developer Version! Running on 127.0.0.*
                  Welcome to Q-Chem
     A Quantum Leap Into The Future Of Chemistry


 Q-Chem 5.0, Q-Chem, Inc., Pleasanton, CA (2017)

 Yihan Shao,  Zhengting Gan,  E. Epifanovsky,  A. T. B. Gilbert,  M. Wormit,  
 J. Kussmann,  A. W. Lange,  A. Behn,  Jia Deng,  Xintian Feng,  D. Ghosh,  
 M. Goldey,  P. R. Horn,  L. D. Jacobson,  I. Kaliman,  T. Kus,  A. Landau,  
 Jie Liu,  E. I. Proynov,  R. M. Richard,  R. P. Steele,  E. J. Sundstrom,  
 H. L. Woodcock III,  P. M. Zimmerman,  D. Zuev,  B. Albrecht,  E. Alguire,  
 S. A. Baeppler,  Z. Benda,  Y. A. Bernard,  E. J. Berquist,  K. B. Bravaya,  
 D. Casanova,  Chun-Min Chang,  Yunqing Chen,  A. Chien,  K. D. Closser,  
 M. P. Coons,  S. Dasgupta,  M. Diedenhofen,  Hainam Do,  R. G. Edgar,  
 Po-Tung Fang,  S. Fatehi,  Qingguo Feng,  Qinghui Ge,  A. Ghysels,  
 J. Gomes,  J. Gonthier,  A. Gunina,  M. W. D. Hanson-Heine,  
 P. H. P. Harbach,  A. W. Hauser,  J. E. Herr,  E. G. Hohenstein,  
 Z. C. Holden,  Kerwin Hui,  T.-C. Jagau,  Hyunjun Ji,  B. Kaduk,  
 K. Khistyaev,  Jaehoon Kim,  P. Klunzinger,  K. Koh,  D. Kosenkov,  
 T. Kowalczyk,  C. M. Krauter,  A. Kunitsa,  Ka Un Lao,  A. Laurent,  
 K. V. Lawler,  Joonho Lee,  D. Lefrancois,  S. Lehtola,  D. S. Levine,  
 Yi-Pei Li,  You-Sheng Lin,  Fenglai Liu,  E. Livshits,  A. Luenser,  
 P. Manohar,  E. Mansoor,  S. F. Manzer,  Shan-Ping Mao,  Yuezhi Mao,  
 N. Mardirossian,  A. V. Marenich,  L. A. Martinez-Martinez,  S. A. Maurer,  
 N. J. Mayhall,  S. C. McKenzie,  J.-M. Mewes,  A. F. Morrison,  K. Nanda,  
 T. S. Nguyen-Beck,  R. Olivares-Amaya,  J. A. Parkhill,  T. M. Perrine,  
 F. Plasser,  S. Prager,  A. Prociuk,  D. R. Rehn,  F. Rob,  M. Schneider,  
 N. Sergueev,  S. M. Sharada,  S. Sharma,  D. W. Small,  T. Stauch,  
 T. Stein,  Yu-Chuan Su,  A. J. W. Thom,  T. Tsuchimochi,  L. Vogt,  
 O. Vydrov,  M. A. Watson,  J. Wenzel,  M. de Wergifosse,  T. A. Wesolowski,  
 A. White,  J. Witte,  A. Yamada,  Jun Yang,  K. Yao,  S. Yeganeh,  
 S. R. Yost,  Zhi-Qiang You,  A. Zech,  Igor Ying Zhang,  Xing Zhang,  
 Yan Zhao,  Ying Zhu,  B. R. Brooks,  G. K. L. Chan,  C. J. Cramer,  
 M. S. Gordon,  W. J. Hehre,  A. Klamt,  M. W. Schmidt,  C. D. Sherrill,  
 D. G. Truhlar,  A. Aspuru-Guzik,  R. Baer,  A. T. Bell,  N. A. Besley,  
 Jeng-Da Chai,  A. Dreuw,  B. D. Dunietz,  T. R. Furlani,  Chao-Ping Hsu,  
 Yousung Jung,  Jing Kong,  D. S. Lambrecht,  WanZhen Liang,  C. Ochsenfeld,  
 V. A. Rassolov,  L. V. Slipchenko,  J. E. Subotnik,  T. Van Voorhis,  
 J. M. Herbert,  A. I. Krylov,  P. M. W. Gill,  M. Head-Gordon

 Contributors to earlier versions of Q-Chem not listed above: 
 R. D. Adamson,  B. Austin,  J. Baker,  G. J. O. Beran,  K. Brandhorst,  
 S. T. Brown,  E. F. C. Byrd,  A. K. Chakraborty,  C.-L. Cheng,  
 Siu Hung Chien,  D. M. Chipman,  D. L. Crittenden,  H. Dachsel,  
 R. A. DiStasio Jr.,  R. J. Doerksen,  A. D. Dutoi,  L. Fusti-Molnar,  
 W. A. Goddard III,  A. Golubeva-Zadorozhnaya,  S. R. Gwaltney,  G. Hawkins,  
 A. Heyden,  S. Hirata,  G. Kedziora,  F. J. Keil,  C. Kelley,  Jihan Kim,  
 R. A. King,  R. Z. Khaliullin,  P. P. Korambath,  W. Kurlancheek,  
 A. M. Lee,  M. S. Lee,  S. V. Levchenko,  Ching Yeh Lin,  D. Liotard,  
 R. C. Lochan,  I. Lotan,  P. E. Maslen,  N. Nair,  D. P. O'Neill,  
 D. Neuhauser,  E. Neuscamman,  C. M. Oana,  R. Olson,  B. Peters,  
 R. Peverati,  P. A. Pieniazek,  Y. M. Rhee,  J. Ritchie,  M. A. Rohrdanz,  
 E. Rosta,  N. J. Russ,  H. F. Schaefer III,  N. E. Schultz,  N. Shenvi,  
 A. C. Simmonett,  A. Sodt,  D. Stuck,  K. S. Thanthiriwatte,  V. Vanovschi,  
 Tao Wang,  A. Warshel,  C. F. Williams,  Q. Wu,  X. Xu,  W. Zhang

 Please cite Q-Chem as follows:
 Y. Shao et al., Mol. Phys. 113, 184-215 (2015)
 DOI: 10.1080/00268976.2014.952696

 Q-Chem 5.0.1 for Intel X86 EM64T Linux

 Parts of Q-Chem use Armadillo 5.200.1 (Boston Tea Smuggler).
 http://arma.sourceforge.net/

 Q-Chem begins on Mon Apr 16 16:27:56 2018  

Host: vega01.cac.cornell.edu
0

     Scratch files written to /scratch/jj585/vdw/1101_distance_10.000_11.save//
 Parallel job on  1  processors

Checking the input file for inconsistencies... 	...done.

--------------------------------------------------------------
User input:
--------------------------------------------------------------
$molecule
0  1
--
0  1
C        +0.22270000        +1.04488000        +0.58595000
C        +0.62626000        -0.41353000        +0.99871000
C        -1.18200000        +1.23223000        +0.04377000
C        -0.37457000        -1.51643000        +0.72333000
O        -2.09172000        +0.78832000        +0.93966000
O        -1.47336000        +1.75939000        -0.99882000
O        -0.91364000        -1.42792000        -0.50620000
O        -0.62208000        -2.40877000        +1.49911000
C        -1.86134000        -2.44741000        -0.86560000
C        -3.47068000        +0.87492000        +0.53920000
C        +1.33008000        +1.39974000        -0.43491000
C        +2.63070000        +1.71700000        +0.32855000
C        +3.04336000        +0.29351000        +0.80300000
C        +1.94423000        -0.59299000        +0.15262000
O        +1.62840000        +0.13663000        -1.04376000
H        +0.27811000        +1.68786000        +1.46900000
H        +0.83923000        -0.48042000        +2.06408000
H        -2.68749000        -2.46677000        -0.15296000
H        -3.76076000        +1.91522000        +0.38406000
H        +3.37234000        +2.13782000        -0.35195000
H        +2.48236000        +2.42488000        +1.14651000
H        +4.02182000        +0.00994000        +0.41161000
H        +3.07359000        +0.18738000        +1.88928000
H        -2.21148000        -2.17765000        -1.85937000
H        -1.38062000        -3.42697000        -0.88096000
H        -4.03855000        +0.43623000        +1.35671000
H        -3.63120000        +0.31700000        -0.38495000
C        +2.35450000        -2.01267000        -0.16812000
H        +3.26311000        -2.00678000        -0.77366000
H        +2.54990000        -2.57059000        +0.75079000
H        +1.57335000        -2.52896000        -0.72872000
H        +1.03270000        +2.19943000        -1.08064000
--
0  1
C        +0.27487000        +3.99978000       +10.13927000
C        +0.67843000        +2.54137000       +10.55203000
C        -1.12983000        +4.18713000        +9.59709000
C        -0.32240000        +1.43847000       +10.27665000
O        -2.03955000        +3.74322000       +10.49298000
O        -1.42119000        +4.71429000        +8.55450000
O        -0.86147000        +1.52698000        +9.04712000
O        -0.56991000        +0.54613000       +11.05243000
C        -1.80917000        +0.50749000        +8.68772000
C        -3.41851000        +3.82982000       +10.09252000
C        +1.38225000        +4.35464000        +9.11841000
C        +2.68287000        +4.67190000        +9.88187000
C        +3.09553000        +3.24841000       +10.35632000
C        +1.99640000        +2.36191000        +9.70594000
O        +1.68057000        +3.09153000        +8.50956000
H        +0.33028000        +4.64276000       +11.02232000
H        +0.89140000        +2.47448000       +11.61740000
H        -2.63532000        +0.48813000        +9.40036000
H        -3.70859000        +4.87012000        +9.93738000
H        +3.42451000        +5.09272000        +9.20137000
H        +2.53453000        +5.37978000       +10.69983000
H        +4.07399000        +2.96484000        +9.96493000
H        +3.12576000        +3.14228000       +11.44260000
H        -2.15931000        +0.77725000        +7.69395000
H        -1.32845000        -0.47207000        +8.67236000
H        -3.98638000        +3.39113000       +10.91003000
H        -3.57903000        +3.27190000        +9.16837000
C        +2.40667000        +0.94223000        +9.38520000
H        +3.31528000        +0.94812000        +8.77966000
H        +2.60207000        +0.38431000       +10.30411000
H        +1.62552000        +0.42594000        +8.82460000
H        +1.08487000        +5.15433000        +8.47268000
$end

$rem
JOBTYPE                   SP
METHOD                    B3LYP
DFT_D                     d3_op
BASIS                     6-311++G(d,p)
SYMMETRY                  False
THRESH                    12
SCF_CONVERGENCE           8
MAX_SUB_FILE_NUM          128
MEM_STATIC                400
MEM_TOTAL                 4000
$end
--------------------------------------------------------------
 Adding empirical dispersion correction 
 ----------------------------------------------------------------
 Doing -D3(op) with
 s6 =   1.00000
 s8 =   0.78311
 a1 =   0.30000
 a2 =   4.25000
 n  =  10.00000
 -D3 energy without 3body term =     -0.0746716164 hartrees
 ----------------------------------------------------------------
             Standard Nuclear Orientation (Angstroms)
    I     Atom           X                Y                Z
 ----------------------------------------------------------------
    1      C      -4.2189214786     0.1949928896     1.0646352616
    2      C      -4.2789763178     0.5488700504    -0.4622424646
    3      C      -4.6866176494    -1.1938256834     1.4579348015
    4      C      -4.8928775602    -0.4783060711    -1.3906377055
    5      O      -3.9813635999    -2.1318054885     0.7870577118
    6      O      -5.5147620023    -1.4512165504     2.2932246289
    7      O      -6.0375350914    -0.9925918537    -0.9054122157
    8      O      -4.4364893250    -0.7652581923    -2.4717180647
    9      C      -6.7047883230    -1.9627633429    -1.7301569742
   10      C      -4.3456831953    -3.5003331945     1.0396475049
   11      C      -5.0691308159     1.3301766966     1.6834026094
   12      C      -4.2344936694     2.6255941839     1.7036962204
   13      C      -4.2249693677     2.9884741792     0.1904407050
   14      C      -5.1283221449     1.8759855929    -0.4122914550
   15      O      -6.0395418602     1.6027238223     0.6640103953
   16      H      -3.1788490830     0.2531859104     1.3980026793
   17      H      -3.2861012321     0.7407940719    -0.8649929629
   18      H      -6.0403951906    -2.8017011586    -1.9435099883
   19      H      -4.1705448957    -3.7574557206     2.0854264005
   20      H      -4.7436753266     3.3910844588     2.2910277206
   21      H      -3.2376064316     2.4831879873     2.1257077392
   22      H      -4.6775613451     3.9651642019     0.0109437685
   23      H      -3.2259312892     2.9962580778    -0.2500635480
   24      H      -7.5673900765    -2.2871996996    -1.1525701360
   25      H      -7.0214202895    -1.5103179056    -2.6713810525
   26      H      -3.7105477204    -4.0951117846     0.3868924127
   27      H      -5.3990742064    -3.6603880375     0.8033332137
   28      C      -5.8730355590     2.2507631468    -1.6738899010
   29      H      -6.4392386709     3.1698154134    -1.5094439123
   30      H      -5.1727489057     2.4135663625    -2.4966566910
   31      H      -6.5729866004     1.4651558567    -1.9635669140
   32      H      -5.4352238403     1.0675599491     2.6539254246
   33      C       5.7795002693     0.1621046508     0.8898220581
   34      C       5.7194454301     0.5159818116    -0.6370556681
   35      C       5.3118040985    -1.2267139222     1.2831215980
   36      C       5.1055441877    -0.5111943099    -1.5654509090
   37      O       6.0170581480    -2.1646937273     0.6122445083
   38      O       4.4836597456    -1.4841047892     2.1184114254
   39      O       3.9608866565    -1.0254800925    -1.0802254193
   40      O       5.5619324229    -0.7981464311    -2.6465312682
   41      C       3.2936334249    -1.9956515817    -1.9049701777
   42      C       5.6527385526    -3.5332214333     0.8648343014
   43      C       4.9292909320     1.2972884578     1.5085894059
   44      C       5.7639280785     2.5927059451     1.5288830169
   45      C       5.7734523802     2.9555859404     0.0156275015
   46      C       4.8700996030     1.8430973541    -0.5871046585
   47      O       3.9588798877     1.5698355835     0.4891971918
   48      H       6.8195726649     0.2202976716     1.2231894758
   49      H       6.7123205158     0.7079058331    -1.0398061664
   50      H       3.9580265573    -2.8345893974    -2.1183231918
   51      H       5.8278768522    -3.7903439594     1.9106131970
   52      H       5.2547464213     3.3581962200     2.1162145171
   53      H       6.7608153163     2.4502997484     1.9508945357
   54      H       5.3208604028     3.9322759630    -0.1638694350
   55      H       6.7724904587     2.9633698390    -0.4248767515
   56      H       2.4310316714    -2.3200879384    -1.3273833395
   57      H       2.9770014584    -1.5432061444    -2.8461942561
   58      H       6.2878740275    -4.1280000234     0.2120792092
   59      H       4.5993475415    -3.6932762763     0.6285200102
   60      C       4.1253861889     2.2178749080    -1.8487031045
   61      H       3.5591830770     3.1369271746    -1.6842571158
   62      H       4.8256728422     2.3806781237    -2.6714698945
   63      H       3.4254351475     1.4322676179    -2.1383801175
   64      H       4.5631979076     1.0346717102     2.4791122211
 ----------------------------------------------------------------
 Molecular Point Group                 C1    NOp =  1
 Largest Abelian Subgroup              C1    NOp =  1
 Nuclear Repulsion Energy =  3287.0539155752 hartrees
 There are      122 alpha and      122 beta electrons
 Requested basis set is 6-311++G(d,p)
 There are 352 shells and 928 basis functions

 Total QAlloc Memory Limit   4000 MB
 Mega-Array Size       392 MB
 MEM_STATIC part       400 MB
 A cutoff of  1.0D-12 yielded  36109 shell pairs
 There are    244478 function pairs (    259234 Cartesian)
 Smallest overlap matrix eigenvalue = 9.73E-07
 Linear dependence detected in AO basis
 Number of orthogonalized atomic orbitals = 927
 Maximum deviation from orthogonality = 1.868E-10

 Scale SEOQF with 1.000000e-02/1.000000e-01/1.000000e-01

 Standard Electronic Orientation quadrupole field applied
 Nucleus-field energy     =     0.0000000335 hartrees
 Guess from superposition of atomic densities
 Warning:  Energy on first SCF cycle will be non-variational
 A restricted hybrid HF-DFT SCF calculation will be
 performed using Pulay DIIS extrapolation
 Exchange:     0.2000 Hartree-Fock + 0.0800 Slater + 0.7200 B88
 Correlation:  0.1900 VWN1RPA + 0.8100 LYP
 Using SG-1 standard quadrature grid
 Dispersion:   Grimme D3
 SCF converges when DIIS error is below 1.0E-08
 ---------------------------------------
  Cycle       Energy         DIIS Error
 ---------------------------------------
    1   -1616.9174222761      2.08E-02
    2   -1609.7463942235      2.70E-03
    3   -1608.7777651743      4.46E-03
    4   -1610.2988139691      1.04E-03
    5   -1610.3872345277      2.65E-04
    6   -1610.3918564053      1.06E-04
    7   -1610.3927050320      2.49E-05
    8   -1610.3927487460      8.93E-06
    9   -1610.3927565096      2.63E-06
   10   -1610.3927570284      1.21E-06
   11   -1610.3927567746      2.83E-07
   12   -1610.3927569325      1.09E-07
   13   -1610.3927568840      2.55E-08
   14   -1610.3927568663      9.65E-09 Convergence criterion met
 ---------------------------------------
 SCF time:  CPU 4674.95 s  wall 4685.62 s
 SCF   energy in the final basis set = -1610.39275687
 Total energy in the final basis set = -1610.39275687
 
 --------------------------------------------------------------
 
                    Orbital Energies (a.u.)
 --------------------------------------------------------------
 
 Alpha MOs
 -- Occupied --
-19.176 -19.174 -19.173 -19.172 -19.132 -19.129 -19.120 -19.117
-19.117 -19.115 -10.310 -10.307 -10.307 -10.305 -10.247 -10.244
-10.232 -10.230 -10.230 -10.230 -10.229 -10.226 -10.206 -10.205
-10.203 -10.202 -10.181 -10.179 -10.177 -10.176 -10.172 -10.169
 -1.121  -1.118  -1.114  -1.112  -1.065  -1.061  -1.031  -1.028
 -1.028  -1.026  -0.834  -0.831  -0.797  -0.794  -0.785  -0.782
 -0.747  -0.744  -0.730  -0.728  -0.698  -0.695  -0.656  -0.654
 -0.607  -0.604  -0.591  -0.588  -0.570  -0.568  -0.563  -0.560
 -0.535  -0.532  -0.519  -0.516  -0.511  -0.509  -0.493  -0.491
 -0.490  -0.489  -0.484  -0.481  -0.476  -0.474  -0.473  -0.471
 -0.462  -0.459  -0.444  -0.442  -0.435  -0.432  -0.426  -0.423
 -0.417  -0.415  -0.406  -0.403  -0.398  -0.396  -0.390  -0.388
 -0.382  -0.379  -0.374  -0.372  -0.370  -0.368  -0.362  -0.359
 -0.356  -0.353  -0.353  -0.349  -0.334  -0.333  -0.331  -0.330
 -0.321  -0.318  -0.313  -0.311  -0.290  -0.288  -0.282  -0.280
 -0.275  -0.272
 -- Virtual --
 -0.021  -0.018  -0.012  -0.009  -0.007  -0.005   0.000   0.002
  0.006   0.008   0.009   0.011   0.014   0.015   0.020   0.023
  0.024   0.029   0.031   0.034   0.036   0.039   0.040   0.041
  0.042   0.043   0.046   0.049   0.052   0.054   0.055   0.062
  0.063   0.064   0.065   0.068   0.071   0.075   0.078   0.078
  0.081   0.084   0.088   0.091   0.092   0.093   0.098   0.098
  0.100   0.102   0.102   0.105   0.107   0.107   0.110   0.111
  0.112   0.115   0.116   0.118   0.119   0.123   0.125   0.126
  0.127   0.129   0.130   0.131   0.133   0.134   0.136   0.137
  0.138   0.140   0.141   0.142   0.143   0.144   0.146   0.148
  0.149   0.151   0.152   0.154   0.154   0.155   0.157   0.158
  0.159   0.161   0.163   0.164   0.165   0.166   0.168   0.171
  0.172   0.175   0.176   0.178   0.181   0.182   0.185   0.186
  0.186   0.187   0.189   0.191   0.196   0.196   0.198   0.199
  0.201   0.203   0.203   0.206   0.207   0.209   0.213   0.214
  0.215   0.216   0.219   0.222   0.223   0.225   0.227   0.228
  0.231   0.232   0.233   0.238   0.239   0.244   0.248   0.249
  0.251   0.252   0.257   0.259   0.262   0.264   0.265   0.265
  0.267   0.271   0.273   0.274   0.277   0.281   0.284   0.285
  0.287   0.290   0.292   0.295   0.298   0.299   0.302   0.303
  0.304   0.306   0.309   0.315   0.319   0.322   0.324   0.327
  0.328   0.331   0.333   0.336   0.337   0.341   0.343   0.344
  0.346   0.349   0.352   0.352   0.356   0.357   0.358   0.358
  0.362   0.363   0.364   0.366   0.369   0.373   0.375   0.376
  0.377   0.380   0.384   0.386   0.387   0.389   0.390   0.392
  0.398   0.399   0.405   0.408   0.412   0.416   0.417   0.421
  0.422   0.427   0.430   0.434   0.437   0.438   0.443   0.446
  0.450   0.461   0.462   0.465   0.469   0.478   0.485   0.490
  0.491   0.498   0.500   0.502   0.512   0.513   0.520   0.526
  0.528   0.532   0.534   0.536   0.544   0.552   0.553   0.558
  0.561   0.562   0.565   0.573   0.577   0.583   0.583   0.590
  0.594   0.595   0.597   0.604   0.605   0.607   0.615   0.625
  0.627   0.629   0.633   0.634   0.638   0.643   0.648   0.648
  0.652   0.656   0.658   0.659   0.661   0.664   0.668   0.670
  0.673   0.680   0.682   0.685   0.686   0.688   0.690   0.695
  0.698   0.698   0.704   0.708   0.708   0.715   0.720   0.723
  0.724   0.726   0.731   0.733   0.735   0.738   0.740   0.747
  0.747   0.752   0.755   0.762   0.767   0.768   0.774   0.779
  0.781   0.787   0.790   0.793   0.797   0.800   0.803   0.808
  0.815   0.824   0.826   0.832   0.838   0.844   0.848   0.857
  0.860   0.869   0.871   0.878   0.883   0.911   0.914   0.936
  0.944   0.964   0.970   0.975   0.981   1.009   1.015   1.022
  1.025   1.049   1.051   1.053   1.055   1.058   1.061   1.076
  1.080   1.089   1.094   1.101   1.104   1.122   1.126   1.137
  1.140   1.152   1.158   1.171   1.174   1.178   1.182   1.187
  1.190   1.209   1.211   1.215   1.215   1.216   1.220   1.238
  1.241   1.251   1.252   1.254   1.256   1.266   1.269   1.270
  1.273   1.290   1.293   1.297   1.298   1.311   1.317   1.323
  1.326   1.330   1.333   1.357   1.360   1.364   1.369   1.376
  1.378   1.396   1.397   1.399   1.400   1.404   1.407   1.428
  1.430   1.441   1.442   1.450   1.454   1.455   1.462   1.466
  1.469   1.477   1.478   1.501   1.503   1.506   1.509   1.521
  1.523   1.523   1.526   1.538   1.541   1.545   1.548   1.559
  1.560   1.570   1.573   1.574   1.574   1.578   1.579   1.586
  1.588   1.598   1.601   1.604   1.609   1.610   1.613   1.614
  1.617   1.637   1.640   1.642   1.643   1.656   1.657   1.668
  1.672   1.677   1.680   1.691   1.695   1.696   1.697   1.701
  1.703   1.705   1.709   1.713   1.713   1.719   1.724   1.729
  1.730   1.733   1.736   1.752   1.753   1.761   1.765   1.781
  1.783   1.796   1.799   1.802   1.805   1.812   1.816   1.821
  1.823   1.825   1.826   1.839   1.848   1.851   1.854   1.866
  1.869   1.878   1.881   1.893   1.894   1.906   1.909   1.918
  1.920   1.941   1.944   1.945   1.949   1.976   1.978   1.980
  1.982   1.988   1.991   2.004   2.009   2.025   2.028   2.037
  2.040   2.044   2.046   2.063   2.066   2.074   2.077   2.107
  2.109   2.116   2.118   2.128   2.131   2.133   2.136   2.141
  2.143   2.149   2.151   2.157   2.161   2.172   2.175   2.200
  2.202   2.202   2.204   2.227   2.230   2.240   2.244   2.254
  2.258   2.282   2.284   2.314   2.316   2.337   2.340   2.371
  2.374   2.394   2.397   2.417   2.419   2.444   2.446   2.455
  2.459   2.464   2.466   2.473   2.475   2.493   2.496   2.498
  2.501   2.505   2.507   2.510   2.513   2.521   2.524   2.528
  2.530   2.533   2.539   2.554   2.556   2.576   2.581   2.586
  2.590   2.591   2.595   2.611   2.615   2.620   2.625   2.628
  2.630   2.651   2.652   2.662   2.665   2.686   2.686   2.701
  2.704   2.721   2.724   2.744   2.747   2.760   2.762   2.771
  2.775   2.802   2.806   2.818   2.821   2.825   2.829   2.833
  2.835   2.854   2.855   2.859   2.862   2.866   2.869   2.877
  2.879   2.891   2.894   2.901   2.905   2.915   2.917   2.936
  2.939   2.946   2.949   2.964   2.967   2.999   3.000   3.022
  3.024   3.028   3.031   3.039   3.040   3.051   3.054   3.062
  3.066   3.074   3.075   3.099   3.102   3.105   3.108   3.122
  3.124   3.132   3.133   3.151   3.153   3.167   3.171   3.189
  3.192   3.218   3.220   3.227   3.230   3.240   3.242   3.258
  3.261   3.265   3.267   3.300   3.304   3.341   3.344   3.356
  3.360   3.363   3.366   3.390   3.392   3.401   3.405   3.433
  3.436   3.583   3.585   3.593   3.596   3.606   3.609   3.664
  3.668   3.693   3.696   3.732   3.734   3.779   3.781   3.785
  3.785   3.822   3.824   3.827   3.830   3.837   3.839   3.857
  3.859   3.936   3.939   3.959   3.962   4.044   4.047   4.064
  4.067   4.075   4.078   4.087   4.089   4.127   4.129   4.138
  4.140   4.142   4.145   4.165   4.168   4.223   4.225   4.253
  4.255   4.263   4.266   4.436   4.439   4.498   4.501   5.036
  5.040   5.108   5.111   5.165   5.166   5.187   5.193   5.213
  5.215   5.254   5.258   5.273   5.276   5.408   5.411   5.436
  5.437   5.511   5.513   5.624   5.627   5.641   5.642   5.668
  5.670   5.874   5.878   5.896   5.900  23.787  23.790  23.838
 23.846  23.848  23.854  23.892  23.897  23.903  23.908  23.932
 23.934  23.944  23.946  23.956  23.959  23.973  23.976  23.984
 23.987  24.056  24.059  49.905  49.908  49.942  49.943  49.980
 49.983  50.038  50.041  50.048  50.050
 --------------------------------------------------------------
 
          Ground-State Mulliken Net Atomic Charges

     Atom                 Charge (a.u.)
  ----------------------------------------
      1 C                    -0.126290
      2 C                     0.529577
      3 C                    -0.460305
      4 C                    -0.802915
      5 O                    -0.012968
      6 O                    -0.207979
      7 O                    -0.014165
      8 O                    -0.134088
      9 C                    -0.204477
     10 C                    -0.199895
     11 C                    -0.106064
     12 C                    -0.470395
     13 C                    -0.430445
     14 C                    -0.078068
     15 O                    -0.072637
     16 H                     0.253943
     17 H                     0.332077
     18 H                     0.191890
     19 H                     0.175004
     20 H                     0.187167
     21 H                     0.119599
     22 H                     0.166232
     23 H                     0.135215
     24 H                     0.176750
     25 H                     0.174067
     26 H                     0.156918
     27 H                     0.179491
     28 C                    -0.268281
     29 H                     0.180032
     30 H                     0.162111
     31 H                     0.180156
     32 H                     0.288916
     33 C                    -0.094415
     34 C                     0.880464
     35 C                    -0.509290
     36 C                    -0.956835
     37 O                    -0.014401
     38 O                    -0.204712
     39 O                    -0.012223
     40 O                    -0.135877
     41 C                    -0.209116
     42 C                    -0.196625
     43 C                    -0.098118
     44 C                    -0.471941
     45 C                    -0.398022
     46 C                    -0.254010
     47 O                    -0.062805
     48 H                     0.241388
     49 H                     0.289640
     50 H                     0.191390
     51 H                     0.173873
     52 H                     0.185467
     53 H                     0.120796
     54 H                     0.162721
     55 H                     0.142051
     56 H                     0.176887
     57 H                     0.173925
     58 H                     0.162668
     59 H                     0.178656
     60 C                    -0.275533
     61 H                     0.176216
     62 H                     0.165535
     63 H                     0.185253
     64 H                     0.286819
  ----------------------------------------
  Sum of atomic charges =    -0.000000

 -----------------------------------------------------------------
                    Cartesian Multipole Moments
 -----------------------------------------------------------------
    Charge (ESU x 10^10)
                -0.0000
    Dipole Moment (Debye)
         X       2.5011      Y       0.0778      Z       0.2312
       Tot       2.5129
    Quadrupole Moments (Debye-Ang)
        XX    -191.1701     XY       8.0835     YY    -163.5436
        XZ      20.8680     YZ       1.3834     ZZ    -206.5014
    Octopole Moments (Debye-Ang^2)
       XXX     177.0449    XXY     -22.7096    XYY       0.4347
       YYY    -106.8443    XXZ      -9.8405    XYZ     -23.3589
       YYZ      -6.0094    XZZ     -16.9281    YZZ      21.6451
       ZZZ      30.6234
    Hexadecapole Moments (Debye-Ang^3)
      XXXX  -29725.9290   XXXY     654.1906   XXYY   -5039.5713
      XYYY     -80.7432   YYYY   -4280.6044   XXXZ    1604.3321
      XXYZ      33.8574   XYYZ      34.8923   YYYZ     -35.8826
      XXZZ   -5812.8952   XYZZ      -3.5636   YYZZ   -1195.3338
      XZZZ     111.6420   YZZZ      18.0777   ZZZZ   -2827.3998
 -----------------------------------------------------------------
Archival summary:
1\1\vega01.cac.cornell.edu\SP\ProcedureUnspecified\BasisUnspecified\102232\jj585\MonApr1617:46:042018MonApr1617:46:042018\0\\#,ProcedureUnspecified,BasisUnspecified,\\0,1\O\C,1,1.34543\O,2,1.20804,1,123.598\C,1,1.43759,2,116.484,3,1.88648,0\H,4,1.08763,1,105.353,2,177.393,0\H,4,1.09122,1,110.39,2,57.5626,0\H,4,1.09127,1,110.468,2,-63.158,0\C,2,1.51456,1,112.521,3,177.156,0\H,8,1.08851,2,105.218,1,169.467,0\C,8,1.5685,2,117.337,1,44.9607,0\H,10,1.09374,8,108.73,2,123.22,0\C,10,1.51731,8,116.554,2,4.55568,0\O,12,1.20407,10,125.979,8,-126.895,0\O,12,1.35176,10,110.223,8,56.6764,0\C,14,1.43854,12,116.158,10,-178.482,0\H,15,1.08777,14,105.482,12,177.492,0\H,15,1.09107,14,110.6,12,-62.8398,0\H,15,1.09137,14,110.239,12,57.9539,0\C,10,1.54738,8,101.696,2,-119.387,0\H,19,1.07,10,111.755,8,159.179,0\O,19,1.43358,10,103.124,8,32.1918,0\C,21,1.43646,19,98.0224,10,-55.9256,0\C,22,1.51218,21,111.091,19,-178.393,0\H,23,1.09134,22,111.033,21,-57.0184,0\H,23,1.09192,22,109.775,21,62.6469,0\H,23,1.09264,22,110.458,21,-177.522,0\C,19,1.54115,10,108.926,8,-76.1436,0\H,27,1.09096,19,110.128,10,-170.072,0\H,27,1.09186,19,112.95,10,-49.1929,0\C,22,1.55466,21,102.371,19,-54.4128,0\H,30,1.09132,22,109.614,21,-87.4148,0\H,30,1.09187,22,112.355,21,152.676,0\H,5,6.50142,4,126.495,1,82.0037,0\C,33,1.08851,5,138.195,4,170.918,0\C,34,1.51456,33,105.218,5,-71.685,0\O,35,1.20804,34,123.816,33,-13.3842,0\O,35,1.34543,34,112.521,33,169.467,0\C,37,1.43759,35,116.484,34,179.042,0\H,38,1.08763,37,105.353,35,177.393,0\H,38,1.09122,37,110.39,35,57.5626,0\H,38,1.09127,37,110.468,35,-63.158,0\C,34,1.5685,33,111.41,5,56.4745,0\H,42,1.09374,34,108.73,33,1.88124,0\C,42,1.51731,34,116.554,33,-116.783,0\O,44,1.20407,42,125.979,34,-126.895,0\O,44,1.35176,42,110.223,34,56.6764,0\C,46,1.43854,44,116.158,42,-178.482,0\H,47,1.08777,46,105.482,44,177.492,0\H,47,1.09107,46,110.6,44,-62.8398,0\H,47,1.09137,46,110.239,44,57.9539,0\C,42,1.54738,34,101.696,33,119.274,0\H,51,1.07,42,111.755,34,159.179,0\O,51,1.43358,42,103.124,34,32.1918,0\C,53,1.43646,51,98.0224,42,-55.9256,0\C,54,1.51218,53,111.091,51,-178.393,0\H,55,1.09134,54,111.033,53,-57.0184,0\H,55,1.09192,54,109.775,53,62.6469,0\H,55,1.09264,54,110.458,53,-177.522,0\C,51,1.54115,42,108.926,34,-76.1436,0\H,59,1.09096,51,110.128,42,-170.072,0\H,59,1.09186,51,112.95,42,-49.1929,0\C,54,1.55466,53,102.371,51,-54.4128,0\H,62,1.09132,54,109.614,53,-87.4148,0\H,62,1.09187,54,112.355,53,152.676,0\\\@

 Total job time:  4687.92s(wall), 4677.16s(cpu) 
 Mon Apr 16 17:46:04 2018

        *************************************************************
        *                                                           *
        *  Thank you very much for using Q-Chem.  Have a nice day.  *
        *                                                           *
        *************************************************************


0 sent ACK to 0 
now end server 0 ... 
