mFile = /opt/software/qchem/qchem-5.0.1//bin/mpi/machines
Process 0 of 1 is on vega03.cac.cornell.edu - thread support 0
initial socket setup ...start
initial socket setup ...done 
now start server 0 ... 
vega03 10.84.3
Q-Chem Developer Version! Running on 10.84.3.*
                  Welcome to Q-Chem
     A Quantum Leap Into The Future Of Chemistry


 Q-Chem 5.0, Q-Chem, Inc., Pleasanton, CA (2017)

 Yihan Shao,  Zhengting Gan,  E. Epifanovsky,  A. T. B. Gilbert,  M. Wormit,  
 J. Kussmann,  A. W. Lange,  A. Behn,  Jia Deng,  Xintian Feng,  D. Ghosh,  
 M. Goldey,  P. R. Horn,  L. D. Jacobson,  I. Kaliman,  T. Kus,  A. Landau,  
 Jie Liu,  E. I. Proynov,  R. M. Richard,  R. P. Steele,  E. J. Sundstrom,  
 H. L. Woodcock III,  P. M. Zimmerman,  D. Zuev,  B. Albrecht,  E. Alguire,  
 S. A. Baeppler,  Z. Benda,  Y. A. Bernard,  E. J. Berquist,  K. B. Bravaya,  
 D. Casanova,  Chun-Min Chang,  Yunqing Chen,  A. Chien,  K. D. Closser,  
 M. P. Coons,  S. Dasgupta,  M. Diedenhofen,  Hainam Do,  R. G. Edgar,  
 Po-Tung Fang,  S. Fatehi,  Qingguo Feng,  Qinghui Ge,  A. Ghysels,  
 J. Gomes,  J. Gonthier,  A. Gunina,  M. W. D. Hanson-Heine,  
 P. H. P. Harbach,  A. W. Hauser,  J. E. Herr,  E. G. Hohenstein,  
 Z. C. Holden,  Kerwin Hui,  T.-C. Jagau,  Hyunjun Ji,  B. Kaduk,  
 K. Khistyaev,  Jaehoon Kim,  P. Klunzinger,  K. Koh,  D. Kosenkov,  
 T. Kowalczyk,  C. M. Krauter,  A. Kunitsa,  Ka Un Lao,  A. Laurent,  
 K. V. Lawler,  Joonho Lee,  D. Lefrancois,  S. Lehtola,  D. S. Levine,  
 Yi-Pei Li,  You-Sheng Lin,  Fenglai Liu,  E. Livshits,  A. Luenser,  
 P. Manohar,  E. Mansoor,  S. F. Manzer,  Shan-Ping Mao,  Yuezhi Mao,  
 N. Mardirossian,  A. V. Marenich,  L. A. Martinez-Martinez,  S. A. Maurer,  
 N. J. Mayhall,  S. C. McKenzie,  J.-M. Mewes,  A. F. Morrison,  K. Nanda,  
 T. S. Nguyen-Beck,  R. Olivares-Amaya,  J. A. Parkhill,  T. M. Perrine,  
 F. Plasser,  S. Prager,  A. Prociuk,  D. R. Rehn,  F. Rob,  M. Schneider,  
 N. Sergueev,  S. M. Sharada,  S. Sharma,  D. W. Small,  T. Stauch,  
 T. Stein,  Yu-Chuan Su,  A. J. W. Thom,  T. Tsuchimochi,  L. Vogt,  
 O. Vydrov,  M. A. Watson,  J. Wenzel,  M. de Wergifosse,  T. A. Wesolowski,  
 A. White,  J. Witte,  A. Yamada,  Jun Yang,  K. Yao,  S. Yeganeh,  
 S. R. Yost,  Zhi-Qiang You,  A. Zech,  Igor Ying Zhang,  Xing Zhang,  
 Yan Zhao,  Ying Zhu,  B. R. Brooks,  G. K. L. Chan,  C. J. Cramer,  
 M. S. Gordon,  W. J. Hehre,  A. Klamt,  M. W. Schmidt,  C. D. Sherrill,  
 D. G. Truhlar,  A. Aspuru-Guzik,  R. Baer,  A. T. Bell,  N. A. Besley,  
 Jeng-Da Chai,  A. Dreuw,  B. D. Dunietz,  T. R. Furlani,  Chao-Ping Hsu,  
 Yousung Jung,  Jing Kong,  D. S. Lambrecht,  WanZhen Liang,  C. Ochsenfeld,  
 V. A. Rassolov,  L. V. Slipchenko,  J. E. Subotnik,  T. Van Voorhis,  
 J. M. Herbert,  A. I. Krylov,  P. M. W. Gill,  M. Head-Gordon

 Contributors to earlier versions of Q-Chem not listed above: 
 R. D. Adamson,  B. Austin,  J. Baker,  G. J. O. Beran,  K. Brandhorst,  
 S. T. Brown,  E. F. C. Byrd,  A. K. Chakraborty,  C.-L. Cheng,  
 Siu Hung Chien,  D. M. Chipman,  D. L. Crittenden,  H. Dachsel,  
 R. A. DiStasio Jr.,  R. J. Doerksen,  A. D. Dutoi,  L. Fusti-Molnar,  
 W. A. Goddard III,  A. Golubeva-Zadorozhnaya,  S. R. Gwaltney,  G. Hawkins,  
 A. Heyden,  S. Hirata,  G. Kedziora,  F. J. Keil,  C. Kelley,  Jihan Kim,  
 R. A. King,  R. Z. Khaliullin,  P. P. Korambath,  W. Kurlancheek,  
 A. M. Lee,  M. S. Lee,  S. V. Levchenko,  Ching Yeh Lin,  D. Liotard,  
 R. C. Lochan,  I. Lotan,  P. E. Maslen,  N. Nair,  D. P. O'Neill,  
 D. Neuhauser,  E. Neuscamman,  C. M. Oana,  R. Olson,  B. Peters,  
 R. Peverati,  P. A. Pieniazek,  Y. M. Rhee,  J. Ritchie,  M. A. Rohrdanz,  
 E. Rosta,  N. J. Russ,  H. F. Schaefer III,  N. E. Schultz,  N. Shenvi,  
 A. C. Simmonett,  A. Sodt,  D. Stuck,  K. S. Thanthiriwatte,  V. Vanovschi,  
 Tao Wang,  A. Warshel,  C. F. Williams,  Q. Wu,  X. Xu,  W. Zhang

 Please cite Q-Chem as follows:
 Y. Shao et al., Mol. Phys. 113, 184-215 (2015)
 DOI: 10.1080/00268976.2014.952696

 Q-Chem 5.0.1 for Intel X86 EM64T Linux

 Parts of Q-Chem use Armadillo 5.200.1 (Boston Tea Smuggler).
 http://arma.sourceforge.net/

 Q-Chem begins on Mon Apr  2 01:19:17 2018  

Host: vega03.cac.cornell.edu
0

     Scratch files written to /scratch/jj585/vdw/11n11_distance_10.000_01.save//
 Parallel job on  1  processors

Checking the input file for inconsistencies... 	...done.

--------------------------------------------------------------
User input:
--------------------------------------------------------------
$molecule
0  1
C        -0.47562000        -1.55562000        +9.89479000
C        -0.48827000        -0.15314000       +10.01661000
C        +0.81851000        -2.30968000        +9.86794000
C        +0.79725000        +0.61244000       +10.02766000
O        +1.60527000        -1.96368000       +10.90981000
O        +1.11584000        -3.15597000        +9.06080000
O        +1.60666000        +0.21109000        +9.02291000
O        +1.07917000        +1.49905000       +10.79646000
C        +2.90331000        +0.82929000        +8.96810000
C        +2.89198000        -2.60400000       +10.96643000
C        -1.67438000        -2.28808000        +9.83616000
C        -2.87070000        -1.57248000        +9.90883000
C        -2.88431000        -0.18937000       +10.03102000
C        -1.70279000        +0.55212000       +10.08978000
H        +2.80717000        +1.90797000        +8.83704000
H        +2.77660000        -3.68511000       +11.05723000
H        -3.83472000        +0.33133000       +10.07878000
H        +3.45880000        +0.62901000        +9.88624000
H        +3.40066000        +0.38077000        +8.11101000
H        +3.37977000        -2.19473000       +11.84818000
H        +3.46771000        -2.38126000       +10.06627000
H        -3.81010000        -2.11403000        +9.87180000
C        -1.77078000        +2.05554000       +10.21007000
C        -1.71221000        -3.79418000        +9.71578000
H        -1.32870000        -4.12415000        +8.74845000
H        -2.73690000        -4.15367000        +9.82541000
H        -1.10076000        -4.27969000       +10.48094000
H        -1.17332000        +2.55160000        +9.44103000
H        -1.38621000        +2.39235000       +11.17452000
H        -2.80329000        +2.39431000       +10.10806000
@C        -0.54444000        -0.68370000        -0.06689000
@C        -0.55709000        +0.71878000        +0.05493000
@C        +0.74969000        -1.43776000        -0.09374000
@C        +0.72843000        +1.48436000        +0.06598000
@O        +1.53645000        -1.09176000        +0.94813000
@O        +1.04702000        -2.28405000        -0.90088000
@O        +1.53784000        +1.08301000        -0.93877000
@O        +1.01035000        +2.37097000        +0.83478000
@C        +2.83449000        +1.70121000        -0.99358000
@C        +2.82316000        -1.73208000        +1.00475000
@C        -1.74320000        -1.41616000        -0.12552000
@C        -2.93952000        -0.70056000        -0.05285000
@C        -2.95313000        +0.68255000        +0.06934000
@C        -1.77161000        +1.42404000        +0.12810000
@H        +2.73835000        +2.77989000        -1.12464000
@H        +2.70778000        -2.81319000        +1.09555000
@H        -3.90354000        +1.20325000        +0.11710000
@H        +3.38998000        +1.50093000        -0.07544000
@H        +3.33184000        +1.25269000        -1.85067000
@H        +3.31095000        -1.32281000        +1.88650000
@H        +3.39889000        -1.50934000        +0.10459000
@H        -3.87892000        -1.24211000        -0.08988000
@C        -1.83960000        +2.92746000        +0.24839000
@C        -1.78103000        -2.92226000        -0.24590000
@H        -1.39752000        -3.25223000        -1.21323000
@H        -2.80572000        -3.28175000        -0.13627000
@H        -1.16958000        -3.40777000        +0.51926000
@H        -1.24214000        +3.42352000        -0.52065000
@H        -1.45503000        +3.26427000        +1.21284000
@H        -2.87211000        +3.26623000        +0.14638000
$end

$rem
JOBTYPE                   SP
METHOD                    B3LYP
DFT_D                     d3_op
BASIS                     6-311++G(d,p)
SYMMETRY                  False
THRESH                    12
SCF_CONVERGENCE           8
MAX_SUB_FILE_NUM          128
MEM_STATIC                400
MEM_TOTAL                 4000
$end
--------------------------------------------------------------
 Adding empirical dispersion correction 
 ----------------------------------------------------------------
 Doing -D3(op) with
 s6 =   1.00000
 s8 =   0.78311
 a1 =   0.30000
 a2 =   4.25000
 n  =  10.00000
 -D3 energy without 3body term =     -0.0335599997 hartrees
 ----------------------------------------------------------------
             Standard Nuclear Orientation (Angstroms)
    I     Atom           X                Y                Z
 ----------------------------------------------------------------
    1      C      -0.4756200000    -1.5556200000     9.8947900000
    2      C      -0.4882700000    -0.1531400000    10.0166100000
    3      C       0.8185100000    -2.3096800000     9.8679400000
    4      C       0.7972500000     0.6124400000    10.0276600000
    5      O       1.6052700000    -1.9636800000    10.9098100000
    6      O       1.1158400000    -3.1559700000     9.0608000000
    7      O       1.6066600000     0.2110900000     9.0229100000
    8      O       1.0791700000     1.4990500000    10.7964600000
    9      C       2.9033100000     0.8292900000     8.9681000000
   10      C       2.8919800000    -2.6040000000    10.9664300000
   11      C      -1.6743800000    -2.2880800000     9.8361600000
   12      C      -2.8707000000    -1.5724800000     9.9088300000
   13      C      -2.8843100000    -0.1893700000    10.0310200000
   14      C      -1.7027900000     0.5521200000    10.0897800000
   15      H       2.8071700000     1.9079700000     8.8370400000
   16      H       2.7766000000    -3.6851100000    11.0572300000
   17      H      -3.8347200000     0.3313300000    10.0787800000
   18      H       3.4588000000     0.6290100000     9.8862400000
   19      H       3.4006600000     0.3807700000     8.1110100000
   20      H       3.3797700000    -2.1947300000    11.8481800000
   21      H       3.4677100000    -2.3812600000    10.0662700000
   22      H      -3.8101000000    -2.1140300000     9.8718000000
   23      C      -1.7707800000     2.0555400000    10.2100700000
   24      C      -1.7122100000    -3.7941800000     9.7157800000
   25      H      -1.3287000000    -4.1241500000     8.7484500000
   26      H      -2.7369000000    -4.1536700000     9.8254100000
   27      H      -1.1007600000    -4.2796900000    10.4809400000
   28      H      -1.1733200000     2.5516000000     9.4410300000
   29      H      -1.3862100000     2.3923500000    11.1745200000
   30      H      -2.8032900000     2.3943100000    10.1080600000
   31      GH     -0.5444400000    -0.6837000000    -0.0668900000
   32      GH     -0.5570900000     0.7187800000     0.0549300000
   33      GH      0.7496900000    -1.4377600000    -0.0937400000
   34      GH      0.7284300000     1.4843600000     0.0659800000
   35      GH      1.5364500000    -1.0917600000     0.9481300000
   36      GH      1.0470200000    -2.2840500000    -0.9008800000
   37      GH      1.5378400000     1.0830100000    -0.9387700000
   38      GH      1.0103500000     2.3709700000     0.8347800000
   39      GH      2.8344900000     1.7012100000    -0.9935800000
   40      GH      2.8231600000    -1.7320800000     1.0047500000
   41      GH     -1.7432000000    -1.4161600000    -0.1255200000
   42      GH     -2.9395200000    -0.7005600000    -0.0528500000
   43      GH     -2.9531300000     0.6825500000     0.0693400000
   44      GH     -1.7716100000     1.4240400000     0.1281000000
   45      GH      2.7383500000     2.7798900000    -1.1246400000
   46      GH      2.7077800000    -2.8131900000     1.0955500000
   47      GH     -3.9035400000     1.2032500000     0.1171000000
   48      GH      3.3899800000     1.5009300000    -0.0754400000
   49      GH      3.3318400000     1.2526900000    -1.8506700000
   50      GH      3.3109500000    -1.3228100000     1.8865000000
   51      GH      3.3988900000    -1.5093400000     0.1045900000
   52      GH     -3.8789200000    -1.2421100000    -0.0898800000
   53      GH     -1.8396000000     2.9274600000     0.2483900000
   54      GH     -1.7810300000    -2.9222600000    -0.2459000000
   55      GH     -1.3975200000    -3.2522300000    -1.2132300000
   56      GH     -2.8057200000    -3.2817500000    -0.1362700000
   57      GH     -1.1695800000    -3.4077700000     0.5192600000
   58      GH     -1.2421400000     3.4235200000    -0.5206500000
   59      GH     -1.4550300000     3.2642700000     1.2128400000
   60      GH     -2.8721100000     3.2662300000     0.1463800000
 ----------------------------------------------------------------
 Nuclear Repulsion Energy =  1146.4724567292 hartrees
 There are       59 alpha and       59 beta electrons
 Requested basis set is 6-311++G(d,p)
 There are 332 shells and 900 basis functions

 Total QAlloc Memory Limit   4000 MB
 Mega-Array Size       392 MB
 MEM_STATIC part       400 MB
 A cutoff of  1.0D-12 yielded  30984 shell pairs
 There are    225691 function pairs (    239578 Cartesian)
 
 -------------------------------------------------------
 OpenMP Integral Computing Module                       
 Release: version 1.0, May 2013, Q-Chem Inc. Pittsburgh 
 -------------------------------------------------------
 Integral Job Info:
 Integral job number is                      11
 Integral operator is                         1
 short-range coefficients                     0
 long-range coefficients              100000000
 Omega coefficients                           0
 if combine SR and LR in K                    0
 Integral screening is                        0
 Integral computing path is                   2
 max size of driver memory is            800000
 size of driver memory is                593474
 size of scratch memory is              2361544
 max col of scratch BK array               1296
 max len of scratch array in speh3          155
 max len of scratch index in speh4           18
 max int batch size is                      520
 min int batch size is                       52
 fixed nKL is                                52
 max L of basis functions is                  2
 order of int derivative is                   0
 number of shells is                        332
 number of basis is                         932
 number of cartesian basis is               932
 number of contracted shell pairs         30984
 number of primitive shell pairs          66916
 maxK2 (contraction) of shell pair           36
 max number of K2 of shell pair               1
 max number of CS2 of shell pair           6415
 max number of PS2 of shell pair          10200
 mem total for path MDJ                  406374
 -------------------------------------------------------
 Smallest overlap matrix eigenvalue = 3.10E-08
 Linear dependence detected in AO basis
 Number of orthogonalized atomic orbitals = 894
 Maximum deviation from orthogonality = 3.901E-10

 Scale SEOQF with 1.000000e-01/1.000000e-01/1.000000e-02

 Standard Electronic Orientation quadrupole field applied
 Nucleus-field energy     =    -0.0000000750 hartrees
 Guess from superposition of atomic densities
 Warning:  Energy on first SCF cycle will be non-variational

 Q-Chem warning in module /opt/software/qchem/qchem-5.0.1/libgen/Atomic_PolEc.C, line 58:

 No atomic polarizability available.


 Q-Chem warning in module /opt/software/qchem/qchem-5.0.1/libgen/Atomic_PolEc.C, line 73:

 No atomic polarizability available.


 Q-Chem warning in module /opt/software/qchem/qchem-5.0.1/libgen/Atomic_PolEc.C, line 58:

 No atomic polarizability available.


 Q-Chem warning in module /opt/software/qchem/qchem-5.0.1/libgen/Atomic_PolEc.C, line 73:

 No atomic polarizability available.


 Q-Chem warning in module /opt/software/qchem/qchem-5.0.1/libgen/Atomic_PolEc.C, line 58:

 No atomic polarizability available.


 Q-Chem warning in module /opt/software/qchem/qchem-5.0.1/libgen/Atomic_PolEc.C, line 73:

 No atomic polarizability available.


 Q-Chem warning in module /opt/software/qchem/qchem-5.0.1/libgen/Atomic_PolEc.C, line 58:

 No atomic polarizability available.


 Q-Chem warning in module /opt/software/qchem/qchem-5.0.1/libgen/Atomic_PolEc.C, line 73:

 No atomic polarizability available.


 Q-Chem warning in module /opt/software/qchem/qchem-5.0.1/libgen/Atomic_PolEc.C, line 58:

 No atomic polarizability available.


 Q-Chem warning in module /opt/software/qchem/qchem-5.0.1/libgen/Atomic_PolEc.C, line 73:

 No atomic polarizability available.


 Q-Chem warning in module /opt/software/qchem/qchem-5.0.1/libgen/Atomic_PolEc.C, line 58:

 No atomic polarizability available.


 Q-Chem warning in module /opt/software/qchem/qchem-5.0.1/libgen/Atomic_PolEc.C, line 73:

 No atomic polarizability available.


 Q-Chem warning in module /opt/software/qchem/qchem-5.0.1/libgen/Atomic_PolEc.C, line 58:

 No atomic polarizability available.


 Q-Chem warning in module /opt/software/qchem/qchem-5.0.1/libgen/Atomic_PolEc.C, line 73:

 No atomic polarizability available.


 Q-Chem warning in module /opt/software/qchem/qchem-5.0.1/libgen/Atomic_PolEc.C, line 58:

 No atomic polarizability available.


 Q-Chem warning in module /opt/software/qchem/qchem-5.0.1/libgen/Atomic_PolEc.C, line 73:

 No atomic polarizability available.


 Q-Chem warning in module /opt/software/qchem/qchem-5.0.1/libgen/Atomic_PolEc.C, line 58:

 No atomic polarizability available.


 Q-Chem warning in module /opt/software/qchem/qchem-5.0.1/libgen/Atomic_PolEc.C, line 73:

 No atomic polarizability available.


 Q-Chem warning in module /opt/software/qchem/qchem-5.0.1/libgen/Atomic_PolEc.C, line 58:

 No atomic polarizability available.


 Q-Chem warning in module /opt/software/qchem/qchem-5.0.1/libgen/Atomic_PolEc.C, line 73:

 No atomic polarizability available.


 Q-Chem warning in module /opt/software/qchem/qchem-5.0.1/libgen/Atomic_PolEc.C, line 58:

 No atomic polarizability available.


 Q-Chem warning in module /opt/software/qchem/qchem-5.0.1/libgen/Atomic_PolEc.C, line 73:

 No atomic polarizability available.


 Q-Chem warning in module /opt/software/qchem/qchem-5.0.1/libgen/Atomic_PolEc.C, line 58:

 No atomic polarizability available.


 Q-Chem warning in module /opt/software/qchem/qchem-5.0.1/libgen/Atomic_PolEc.C, line 73:

 No atomic polarizability available.


 Q-Chem warning in module /opt/software/qchem/qchem-5.0.1/libgen/Atomic_PolEc.C, line 58:

 No atomic polarizability available.


 Q-Chem warning in module /opt/software/qchem/qchem-5.0.1/libgen/Atomic_PolEc.C, line 73:

 No atomic polarizability available.


 Q-Chem warning in module /opt/software/qchem/qchem-5.0.1/libgen/Atomic_PolEc.C, line 58:

 No atomic polarizability available.


 Q-Chem warning in module /opt/software/qchem/qchem-5.0.1/libgen/Atomic_PolEc.C, line 73:

 No atomic polarizability available.


 Q-Chem warning in module /opt/software/qchem/qchem-5.0.1/libgen/Atomic_PolEc.C, line 58:

 No atomic polarizability available.


 Q-Chem warning in module /opt/software/qchem/qchem-5.0.1/libgen/Atomic_PolEc.C, line 73:

 No atomic polarizability available.


 Q-Chem warning in module /opt/software/qchem/qchem-5.0.1/libgen/Atomic_PolEc.C, line 58:

 No atomic polarizability available.


 Q-Chem warning in module /opt/software/qchem/qchem-5.0.1/libgen/Atomic_PolEc.C, line 73:

 No atomic polarizability available.


 Q-Chem warning in module /opt/software/qchem/qchem-5.0.1/libgen/Atomic_PolEc.C, line 58:

 No atomic polarizability available.


 Q-Chem warning in module /opt/software/qchem/qchem-5.0.1/libgen/Atomic_PolEc.C, line 73:

 No atomic polarizability available.


 Q-Chem warning in module /opt/software/qchem/qchem-5.0.1/libgen/Atomic_PolEc.C, line 58:

 No atomic polarizability available.


 Q-Chem warning in module /opt/software/qchem/qchem-5.0.1/libgen/Atomic_PolEc.C, line 73:

 No atomic polarizability available.


 Q-Chem warning in module /opt/software/qchem/qchem-5.0.1/libgen/Atomic_PolEc.C, line 58:

 No atomic polarizability available.


 Q-Chem warning in module /opt/software/qchem/qchem-5.0.1/libgen/Atomic_PolEc.C, line 73:

 No atomic polarizability available.


 Q-Chem warning in module /opt/software/qchem/qchem-5.0.1/libgen/Atomic_PolEc.C, line 58:

 No atomic polarizability available.


 Q-Chem warning in module /opt/software/qchem/qchem-5.0.1/libgen/Atomic_PolEc.C, line 73:

 No atomic polarizability available.


 Q-Chem warning in module /opt/software/qchem/qchem-5.0.1/libgen/Atomic_PolEc.C, line 58:

 No atomic polarizability available.


 Q-Chem warning in module /opt/software/qchem/qchem-5.0.1/libgen/Atomic_PolEc.C, line 73:

 No atomic polarizability available.


 Q-Chem warning in module /opt/software/qchem/qchem-5.0.1/libgen/Atomic_PolEc.C, line 58:

 No atomic polarizability available.


 Q-Chem warning in module /opt/software/qchem/qchem-5.0.1/libgen/Atomic_PolEc.C, line 73:

 No atomic polarizability available.


 Q-Chem warning in module /opt/software/qchem/qchem-5.0.1/libgen/Atomic_PolEc.C, line 58:

 No atomic polarizability available.


 Q-Chem warning in module /opt/software/qchem/qchem-5.0.1/libgen/Atomic_PolEc.C, line 73:

 No atomic polarizability available.


 Q-Chem warning in module /opt/software/qchem/qchem-5.0.1/libgen/Atomic_PolEc.C, line 58:

 No atomic polarizability available.


 Q-Chem warning in module /opt/software/qchem/qchem-5.0.1/libgen/Atomic_PolEc.C, line 73:

 No atomic polarizability available.


 Q-Chem warning in module /opt/software/qchem/qchem-5.0.1/libgen/Atomic_PolEc.C, line 58:

 No atomic polarizability available.


 Q-Chem warning in module /opt/software/qchem/qchem-5.0.1/libgen/Atomic_PolEc.C, line 73:

 No atomic polarizability available.


 Q-Chem warning in module /opt/software/qchem/qchem-5.0.1/libgen/Atomic_PolEc.C, line 58:

 No atomic polarizability available.


 Q-Chem warning in module /opt/software/qchem/qchem-5.0.1/libgen/Atomic_PolEc.C, line 73:

 No atomic polarizability available.


 Q-Chem warning in module /opt/software/qchem/qchem-5.0.1/libgen/Atomic_PolEc.C, line 58:

 No atomic polarizability available.


 Q-Chem warning in module /opt/software/qchem/qchem-5.0.1/libgen/Atomic_PolEc.C, line 73:

 No atomic polarizability available.


 Q-Chem warning in module /opt/software/qchem/qchem-5.0.1/libgen/Atomic_PolEc.C, line 58:

 No atomic polarizability available.


 Q-Chem warning in module /opt/software/qchem/qchem-5.0.1/libgen/Atomic_PolEc.C, line 73:

 No atomic polarizability available.


 Q-Chem warning in module /opt/software/qchem/qchem-5.0.1/libgen/Atomic_PolEc.C, line 58:

 No atomic polarizability available.


 Q-Chem warning in module /opt/software/qchem/qchem-5.0.1/libgen/Atomic_PolEc.C, line 73:

 No atomic polarizability available.


 Q-Chem warning in module /opt/software/qchem/qchem-5.0.1/libgen/Atomic_PolEc.C, line 58:

 No atomic polarizability available.


 Q-Chem warning in module /opt/software/qchem/qchem-5.0.1/libgen/Atomic_PolEc.C, line 73:

 No atomic polarizability available.

 A restricted hybrid HF-DFT SCF calculation will be
 performed using Pulay DIIS extrapolation
 Exchange:     0.2000 Hartree-Fock + 0.0800 Slater + 0.7200 B88
 Correlation:  0.1900 VWN1RPA + 0.8100 LYP
 Using SG-1 standard quadrature grid
 Dispersion:   Grimme D3
 SCF converges when DIIS error is below 1.0E-08
 using 2 threads for integral computing
 -------------------------------------------------------
 OpenMP Integral computing Module                
 Release: version 1.0, May 2013, Q-Chem Inc. Pittsburgh 
 -------------------------------------------------------
 -------------------------------------------------------
 OpenMP BLAS3 based DFT computing Module                
 Release: version 1.0, May 2013, Q-Chem Inc. Pittsburgh 
 -------------------------------------------------------
 ---------------------------------------
  Cycle       Energy         DIIS Error
 ---------------------------------------
    1    -770.1912285495      1.52E-02
    2    -766.5491557242      1.96E-03
    3    -766.0277044584      3.33E-03
    4    -766.8163333895      8.40E-04
    5    -766.8736696641      1.87E-04
    6    -766.8757535006      8.46E-05
    7    -766.8762787478      1.41E-05
    8    -766.8762923810      5.16E-06
    9    -766.8762946659      1.26E-06
   10    -766.8762947623      6.99E-07
   11    -766.8762948138      1.47E-07
   12    -766.8762948155      6.50E-08
   13    -766.8762948156      2.87E-08
   14    -766.8762948156      5.95E-09 Convergence criterion met
 ---------------------------------------
 SCF time:  CPU 2441.77 s  wall 1228.66 s
 SCF   energy in the final basis set = -766.87629482
 Total energy in the final basis set = -766.87629482
 
 --------------------------------------------------------------
 
                    Orbital Energies (a.u.)
 --------------------------------------------------------------
 
 Alpha MOs
 -- Occupied --
-19.176 -19.176 -19.119 -19.119 -10.311 -10.311 -10.232 -10.232
-10.205 -10.205 -10.201 -10.201 -10.187 -10.186 -10.171 -10.170
 -1.121  -1.114  -1.031  -1.031  -0.885  -0.807  -0.796  -0.747
 -0.734  -0.725  -0.675  -0.649  -0.620  -0.577  -0.565  -0.537
 -0.517  -0.515  -0.491  -0.489  -0.480  -0.477  -0.469  -0.442
 -0.434  -0.429  -0.420  -0.416  -0.411  -0.406  -0.396  -0.387
 -0.380  -0.373  -0.362  -0.359  -0.357  -0.321  -0.313  -0.293
 -0.292  -0.266  -0.253
 -- Virtual --
 -0.058  -0.034  -0.012  -0.005   0.001   0.010   0.012   0.014
  0.016   0.022   0.024   0.029   0.030   0.031   0.035   0.037
  0.042   0.045   0.046   0.049   0.051   0.054   0.055   0.057
  0.061   0.065   0.069   0.071   0.073   0.074   0.075   0.078
  0.081   0.086   0.092   0.092   0.094   0.095   0.096   0.100
  0.101   0.104   0.108   0.109   0.112   0.112   0.113   0.115
  0.118   0.121   0.121   0.122   0.124   0.127   0.129   0.130
  0.133   0.135   0.137   0.139   0.139   0.142   0.143   0.143
  0.145   0.147   0.148   0.152   0.154   0.156   0.159   0.161
  0.163   0.163   0.167   0.168   0.170   0.171   0.173   0.176
  0.177   0.179   0.180   0.181   0.183   0.184   0.187   0.191
  0.192   0.195   0.198   0.200   0.201   0.203   0.203   0.209
  0.212   0.213   0.215   0.217   0.220   0.222   0.223   0.226
  0.230   0.233   0.235   0.236   0.242   0.244   0.245   0.246
  0.247   0.249   0.250   0.254   0.258   0.260   0.261   0.261
  0.267   0.271   0.277   0.278   0.280   0.281   0.283   0.286
  0.289   0.293   0.294   0.298   0.298   0.302   0.303   0.305
  0.306   0.308   0.309   0.317   0.318   0.320   0.323   0.324
  0.326   0.328   0.329   0.333   0.334   0.341   0.344   0.346
  0.347   0.354   0.356   0.358   0.359   0.364   0.365   0.368
  0.369   0.372   0.373   0.375   0.378   0.380   0.382   0.386
  0.391   0.393   0.396   0.399   0.401   0.402   0.404   0.407
  0.411   0.413   0.418   0.421   0.424   0.425   0.427   0.427
  0.431   0.433   0.439   0.440   0.447   0.457   0.465   0.468
  0.468   0.474   0.482   0.488   0.494   0.494   0.497   0.501
  0.504   0.507   0.507   0.509   0.517   0.525   0.532   0.536
  0.541   0.550   0.554   0.555   0.564   0.567   0.573   0.575
  0.582   0.584   0.585   0.586   0.593   0.595   0.599   0.600
  0.603   0.613   0.615   0.616   0.620   0.621   0.628   0.630
  0.636   0.637   0.640   0.643   0.645   0.651   0.654   0.657
  0.657   0.660   0.664   0.666   0.673   0.675   0.676   0.677
  0.681   0.684   0.687   0.690   0.690   0.696   0.697   0.701
  0.709   0.719   0.721   0.726   0.727   0.730   0.736   0.742
  0.745   0.755   0.757   0.762   0.771   0.773   0.773   0.780
  0.785   0.789   0.792   0.795   0.806   0.817   0.827   0.830
  0.850   0.851   0.863   0.866   0.872   0.881   0.891   0.893
  0.896   0.921   0.925   0.926   0.942   0.944   0.948   0.955
  0.964   0.964   0.973   0.977   0.980   0.989   0.994   0.995
  0.998   1.015   1.018   1.021   1.029   1.032   1.041   1.042
  1.052   1.054   1.059   1.061   1.074   1.087   1.090   1.091
  1.094   1.095   1.101   1.106   1.113   1.118   1.130   1.135
  1.141   1.145   1.148   1.158   1.171   1.187   1.194   1.201
  1.203   1.210   1.211   1.216   1.222   1.227   1.237   1.239
  1.258   1.278   1.278   1.292   1.295   1.308   1.319   1.321
  1.328   1.333   1.345   1.367   1.368   1.372   1.374   1.382
  1.388   1.393   1.402   1.415   1.418   1.420   1.431   1.444
  1.445   1.449   1.462   1.467   1.468   1.475   1.483   1.493
  1.505   1.514   1.516   1.521   1.526   1.531   1.536   1.540
  1.551   1.554   1.567   1.572   1.577   1.580   1.590   1.591
  1.592   1.592   1.597   1.597   1.605   1.614   1.620   1.621
  1.622   1.633   1.643   1.650   1.673   1.690   1.698   1.702
  1.710   1.715   1.719   1.721   1.723   1.729   1.741   1.744
  1.745   1.748   1.764   1.766   1.770   1.773   1.780   1.786
  1.789   1.797   1.800   1.802   1.804   1.806   1.817   1.820
  1.827   1.829   1.829   1.832   1.833   1.849   1.854   1.858
  1.873   1.878   1.884   1.886   1.892   1.894   1.897   1.904
  1.907   1.912   1.931   1.938   1.944   1.948   1.949   1.950
  1.982   1.988   1.993   2.000   2.005   2.010   2.032   2.034
  2.036   2.049   2.062   2.077   2.083   2.090   2.092   2.097
  2.101   2.106   2.112   2.116   2.123   2.123   2.128   2.130
  2.138   2.143   2.164   2.169   2.171   2.174   2.186   2.192
  2.202   2.205   2.210   2.224   2.236   2.270   2.293   2.299
  2.308   2.324   2.327   2.328   2.330   2.334   2.336   2.338
  2.357   2.366   2.372   2.380   2.394   2.406   2.408   2.414
  2.434   2.441   2.449   2.454   2.469   2.473   2.480   2.483
  2.488   2.491   2.503   2.504   2.506   2.519   2.523   2.524
  2.531   2.535   2.561   2.562   2.563   2.571   2.572   2.582
  2.588   2.591   2.595   2.606   2.610   2.611   2.617   2.627
  2.648   2.650   2.657   2.666   2.669   2.672   2.673   2.677
  2.686   2.691   2.699   2.710   2.722   2.728   2.730   2.740
  2.744   2.747   2.757   2.767   2.774   2.783   2.785   2.796
  2.806   2.812   2.834   2.840   2.846   2.858   2.868   2.874
  2.882   2.887   2.889   2.894   2.904   2.915   2.916   2.924
  2.935   2.946   2.947   2.957   2.966   2.971   2.984   3.002
  3.021   3.027   3.028   3.031   3.038   3.044   3.049   3.057
  3.061   3.073   3.095   3.098   3.101   3.112   3.125   3.131
  3.136   3.155   3.179   3.193   3.198   3.199   3.214   3.222
  3.228   3.229   3.231   3.234   3.258   3.267   3.282   3.286
  3.287   3.311   3.322   3.328   3.347   3.349   3.382   3.384
  3.396   3.397   3.412   3.414   3.425   3.441   3.444   3.480
  3.494   3.499   3.507   3.515   3.520   3.523   3.526   3.535
  3.541   3.554   3.559   3.583   3.598   3.619   3.626   3.630
  3.640   3.657   3.671   3.679   3.708   3.737   3.755   3.765
  3.778   3.781   3.795   3.796   3.823   3.831   3.853   3.856
  3.893   3.911   3.938   3.942   4.020   4.037   4.041   4.065
  4.075   4.083   4.122   4.148   4.229   4.230   4.234   4.323
  4.334   4.388   4.414   4.522   4.547   4.550   4.579   4.672
  4.699   4.712   4.742   4.783   4.794   4.800   4.831   4.841
  4.844   4.846   4.853   4.864   4.897   4.898   4.903   4.932
  4.962   4.966   4.984   5.028   5.042   5.108   5.154   5.169
  5.193   5.194   5.250   5.259   5.282   5.307   5.336   5.391
  5.419   5.559   5.578   5.614   5.626   5.691   5.699   5.857
  5.887   6.119   6.132   7.044   7.148   7.157   7.262   7.285
  7.368   7.382   7.436   7.609   7.637   7.709   7.728   7.761
  7.770   7.774   7.786   7.798   7.804   7.810   7.846   7.847
  7.853   7.881   7.912   7.942   7.951   7.972   7.979   8.042
  8.068   8.097   8.228   8.492   8.510   8.645   9.040   9.674
  9.950   9.971   9.978   9.985  10.031  10.055  10.197  10.232
 10.259  10.275  10.322  13.549  13.592  13.626  13.678  13.705
 13.719  13.875  13.910  14.136  14.165  14.253  14.272  18.471
 18.507  18.664  18.714  23.543  23.849  23.859  23.909  23.930
 23.932  23.942  23.951  23.999  24.059  24.067  24.167  49.883
 49.914  50.012  50.031  69.742  69.938  69.951  69.973  70.004
 70.018  70.039  70.043  70.077  70.091  70.100  70.136 139.841
139.863 139.869 139.906
 --------------------------------------------------------------
 
          Ground-State Mulliken Net Atomic Charges

     Atom                 Charge (a.u.)
  ----------------------------------------
      1 C                     0.383856
      2 C                     0.372626
      3 C                    -0.504503
      4 C                    -0.461141
      5 O                     0.062232
      6 O                    -0.168215
      7 O                     0.046702
      8 O                    -0.175869
      9 C                    -0.223379
     10 C                    -0.228381
     11 C                     0.480826
     12 C                    -0.667776
     13 C                    -0.664104
     14 C                     0.459165
     15 H                     0.171225
     16 H                     0.170099
     17 H                     0.124532
     18 H                     0.177217
     19 H                     0.165095
     20 H                     0.167990
     21 H                     0.176685
     22 H                     0.123665
     23 C                    -0.519030
     24 C                    -0.509344
     25 H                     0.202438
     26 H                     0.143626
     27 H                     0.175258
     28 H                     0.174774
     29 H                     0.202725
     30 H                     0.140932
     31 GH                   -0.000005
     32 GH                   -0.000003
     33 GH                    0.000005
     34 GH                   -0.000001
     35 GH                   -0.000001
     36 GH                    0.000000
     37 GH                   -0.000000
     38 GH                   -0.000000
     39 GH                    0.000001
     40 GH                   -0.000017
     41 GH                    0.000001
     42 GH                   -0.000002
     43 GH                    0.000001
     44 GH                    0.000001
     45 GH                    0.000000
     46 GH                    0.000001
     47 GH                   -0.000000
     48 GH                   -0.000002
     49 GH                    0.000000
     50 GH                    0.000092
     51 GH                   -0.000000
     52 GH                    0.000000
     53 GH                    0.000000
     54 GH                   -0.000000
     55 GH                    0.000000
     56 GH                   -0.000000
     57 GH                    0.000002
     58 GH                    0.000000
     59 GH                    0.000001
     60 GH                   -0.000000
  ----------------------------------------
  Sum of atomic charges =     0.000000

 -----------------------------------------------------------------
                    Cartesian Multipole Moments
 -----------------------------------------------------------------
    Charge (ESU x 10^10)
                 0.0000
    Dipole Moment (Debye)
         X       0.0710      Y      -0.1076      Z       0.0669
       Tot       0.1453
    Quadrupole Moments (Debye-Ang)
        XX     -76.1002     XY      -0.1420     YY     -95.2308
        XZ       0.8234     YZ     -10.0822     ZZ     -98.1999
    Octopole Moments (Debye-Ang^2)
       XXX      30.3346    XXY      65.8085    XYY     -11.0554
       YYY     244.9282    XXZ    -757.3763    XYZ     -21.2011
       YYZ    -932.8464    XZZ      20.2706    YZZ    -103.4470
       ZZZ   -2953.3528
    Hexadecapole Moments (Debye-Ang^3)
      XXXX   -2025.7150   XXXY     -20.0894   XXYY    -713.4807
      XYYY      32.4423   YYYY   -2421.3644   XXXZ     304.3537
      XXYZ     619.5727   XYYZ     -74.3970   YYYZ    2352.1399
      XXZZ   -7970.7343   XYZZ    -415.3621   YYZZ   -9606.6566
      XZZZ     434.6650   YZZZ    -208.2636   ZZZZ  -59281.3759
 -----------------------------------------------------------------
Archival summary:
1\1\vega03.cac.cornell.edu\SP\ProcedureUnspecified\BasisUnspecified\41214h30\jj585\MonApr201:39:482018MonApr201:39:482018\0\\#,ProcedureUnspecified,BasisUnspecified,\\0,1\O\C,1,1.3512\O,2,1.2069,1,123.501\C,1,1.43752,2,116.164,3,4.8931,0\H,4,1.08772,1,105.376,2,179.706,0\H,4,1.09086,1,110.507,2,-60.681,0\H,4,1.09163,1,110.367,2,60.0909,0\C,2,1.49626,1,110.928,3,178.057,0\C,8,1.40634,2,119.012,1,-130.615,0\C,9,1.39616,8,117.536,2,177.857,0\H,10,1.08475,9,118.991,8,-179.6,0\C,10,1.38856,9,121.629,8,0.183585,0\H,12,1.08495,10,119.453,9,179.671,0\C,12,1.3959,10,121.575,9,-0.129654,0\C,14,1.40604,12,117.481,10,0.160349,0\C,15,1.49803,14,118.266,12,177.84,0\O,16,1.20668,15,125.302,14,50.5403,0\O,16,1.35063,15,111.128,14,-126.75,0\C,18,1.43835,16,115.94,15,-178.519,0\H,19,1.08762,18,105.403,16,179.104,0\H,19,1.09103,18,110.475,16,-61.3232,0\H,19,1.0915,18,110.399,16,59.3962,0\C,9,1.50976,8,122.848,2,-1.37569,0\H,23,1.09144,9,110.135,8,171.975,0\H,23,1.09156,9,111.21,8,-67.4939,0\H,23,1.09291,9,111.796,8,51.7903,0\C,14,1.51138,12,119.574,10,179.468,0\H,27,1.09144,14,110.104,12,-7.00566,0\H,27,1.09164,14,111.284,12,113.49,0\H,27,1.09319,14,111.89,12,-127.081,0\Gh,5,6.45405,4,149.591,1,49.3479,0\Gh,31,1.08762,5,152.553,4,-40.8641,0\Gh,32,1.09103,31,110.661,5,-72.4067,0\Gh,32,1.0915,31,110.808,5,166.479,0\Gh,32,1.43835,31,105.403,5,47.0429,0\Gh,35,1.35063,32,115.94,31,179.104,0\Gh,36,1.20668,35,123.512,32,4.13325,0\Gh,36,1.49803,35,111.128,32,-178.519,0\Gh,38,1.40604,36,118.266,35,-126.75,0\Gh,39,1.3959,38,117.481,36,177.84,0\Gh,40,1.08495,39,118.972,38,-179.641,0\Gh,40,1.38856,39,121.575,38,0.160349,0\Gh,42,1.08475,40,119.38,39,179.653,0\Gh,42,1.39616,40,121.629,39,-0.129654,0\Gh,44,1.40634,42,117.536,40,0.183585,0\Gh,45,1.49626,44,119.012,42,177.857,0\Gh,46,1.2069,45,125.54,44,47.3939,0\Gh,46,1.3512,45,110.928,44,-130.615,0\Gh,48,1.43752,46,116.164,45,-177.05,0\Gh,49,1.08772,48,105.376,46,179.706,0\Gh,49,1.09086,48,110.507,46,-60.681,0\Gh,49,1.09163,48,110.367,46,60.0909,0\Gh,44,1.50976,42,119.611,40,179.442,0\Gh,53,1.09144,44,110.135,42,-7.24194,0\Gh,53,1.09156,44,111.21,42,113.289,0\Gh,53,1.09291,44,111.796,42,-127.427,0\Gh,39,1.51138,38,122.941,36,-1.44272,0\Gh,57,1.09144,39,110.104,38,172.262,0\Gh,57,1.09164,39,111.284,38,-67.2422,0\Gh,57,1.09319,39,111.89,38,52.1865,0\\\@

 Total job time:  1231.08s(wall), 2444.85s(cpu) 
 Mon Apr  2 01:39:48 2018

        *************************************************************
        *                                                           *
        *  Thank you very much for using Q-Chem.  Have a nice day.  *
        *                                                           *
        *************************************************************


0 sent ACK to 0 
now end server 0 ... 
