
    -----------------------------------------------------------------------
          Psi4: An Open-Source Ab Initio Electronic Structure Package
                               Psi4 1.1 release

                         Git: Rev {HEAD} add49b9 


    R. M. Parrish, L. A. Burns, D. G. A. Smith, A. C. Simmonett,
    A. E. DePrince III, E. G. Hohenstein, U. Bozkaya, A. Yu. Sokolov,
    R. Di Remigio, R. M. Richard, J. F. Gonthier, A. M. James,
    H. R. McAlexander, A. Kumar, M. Saitow, X. Wang, B. P. Pritchard,
    P. Verma, H. F. Schaefer III, K. Patkowski, R. A. King, E. F. Valeev,
    F. A. Evangelista, J. M. Turney, T. D. Crawford, and C. D. Sherrill,
    J. Chem. Theory Comput. in press (2017).
    (doi: 10.1021/acs.jctc.7b00174)

    -----------------------------------------------------------------------


    Psi4 started on: Tuesday, 12 December 2017 11:10AM

    Process ID:  14893
    PSIDATADIR: /home/junteng/Softwares/psi4conda/share/psi4
    Memory:     500.0 MiB
    Threads:    1
    
  ==> Input File <==

--------------------------------------------------------------------------
memory 750000 mb

molecule mol {
0 1
C         -1.02621        1.47042       -0.11431
O         -1.80499        2.10249       -0.78581
O         -0.07613        2.03904        0.65824
C          0.08678        3.46089        0.50952
H         -0.84634        3.97930        0.73298
H          0.39771        3.69375       -0.51017
H          0.86119        3.73902        1.22095
--
0 1
C          1.48890        0.05139       -0.33645
O          1.68370        0.71553       -1.32602
O          2.39815       -0.12048        0.64012
C          3.65460        0.55648        0.45033
H          4.14522        0.20399       -0.45833
H          4.24940        0.31470        1.32819
H          3.49529        1.63313        0.37712
--
0 1
C         -3.55453       -0.03100        0.21310
H         -3.82482        0.39983       -0.75303
H         -3.55701        0.78971        0.93431
H         -4.32733       -0.74403        0.50637
C          1.56048       -2.89066       -0.09736
H          1.35406       -3.95285       -0.24028
H          2.16661       -2.55186       -0.94174
H          2.16704       -2.77683        0.80435
C          0.22571       -0.71168       -0.06405
C         -0.99880       -0.02155       -0.00552
C          0.26968       -2.11331        0.00984
C         -0.94072       -2.79111        0.16314
C         -2.14927       -2.11075        0.23717
C         -2.21211       -0.71942        0.14374
H         -3.06939       -2.67168        0.36259
H         -0.93576       -3.87474        0.21806

symmetry c1
no_reorient
no_com
}

set {
basis jun-cc-pvdz
scf_type df
guess sad
freeze_core true
}

energy('fisapt0')
--------------------------------------------------------------------------

  Memory set to 698.492 GiB by Python driver.

*** tstart() called on ThinkPad-P50
*** at Tue Dec 12 11:10:43 2017

   => Loading Basis Set <=

    Name: JUN-CC-PVDZ
    Role: ORBITAL
    Keyword: BASIS
    atoms 1, 4, 8, 11, 15, 19, 23-28      entry C          line   157 file /home/junteng/Softwares/psi4conda/share/psi4/basis/jun-cc-pvdz.gbs 
    atoms 2-3, 9-10                       entry O          line   225 file /home/junteng/Softwares/psi4conda/share/psi4/basis/jun-cc-pvdz.gbs 
    atoms 5-7, 12-14, 16-18, 20-22, 29-30 entry H          line    35 file /home/junteng/Softwares/psi4conda/share/psi4/basis/jun-cc-pvdz.gbs 


         ---------------------------------------------------------
                                   SCF
            by Justin Turney, Rob Parrish, and Andy Simmonett
                              RHF Reference
                        1 Threads, 715255 MiB Core
         ---------------------------------------------------------

  ==> Geometry <==

    Molecular point group: c1
    Full point group: C1

    Geometry (in Angstrom), charge = 0, multiplicity = 1:

       Center              X                  Y                   Z               Mass       
    ------------   -----------------  -----------------  -----------------  -----------------
           C         -1.026210000000     1.470420000000    -0.114310000000    12.000000000000
           O         -1.804990000000     2.102490000000    -0.785810000000    15.994914619560
           O         -0.076130000000     2.039040000000     0.658240000000    15.994914619560
           C          0.086780000000     3.460890000000     0.509520000000    12.000000000000
           H         -0.846340000000     3.979300000000     0.732980000000     1.007825032070
           H          0.397710000000     3.693750000000    -0.510170000000     1.007825032070
           H          0.861190000000     3.739020000000     1.220950000000     1.007825032070
           C          1.488900000000     0.051390000000    -0.336450000000    12.000000000000
           O          1.683700000000     0.715530000000    -1.326020000000    15.994914619560
           O          2.398150000000    -0.120480000000     0.640120000000    15.994914619560
           C          3.654600000000     0.556480000000     0.450330000000    12.000000000000
           H          4.145220000000     0.203990000000    -0.458330000000     1.007825032070
           H          4.249400000000     0.314700000000     1.328190000000     1.007825032070
           H          3.495290000000     1.633130000000     0.377120000000     1.007825032070
           C         -3.554530000000    -0.031000000000     0.213100000000    12.000000000000
           H         -3.824820000000     0.399830000000    -0.753030000000     1.007825032070
           H         -3.557010000000     0.789710000000     0.934310000000     1.007825032070
           H         -4.327330000000    -0.744030000000     0.506370000000     1.007825032070
           C          1.560480000000    -2.890660000000    -0.097360000000    12.000000000000
           H          1.354060000000    -3.952850000000    -0.240280000000     1.007825032070
           H          2.166610000000    -2.551860000000    -0.941740000000     1.007825032070
           H          2.167040000000    -2.776830000000     0.804350000000     1.007825032070
           C          0.225710000000    -0.711680000000    -0.064050000000    12.000000000000
           C         -0.998800000000    -0.021550000000    -0.005520000000    12.000000000000
           C          0.269680000000    -2.113310000000     0.009840000000    12.000000000000
           C         -0.940720000000    -2.791110000000     0.163140000000    12.000000000000
           C         -2.149270000000    -2.110750000000     0.237170000000    12.000000000000
           C         -2.212110000000    -0.719420000000     0.143740000000    12.000000000000
           H         -3.069390000000    -2.671680000000     0.362590000000     1.007825032070
           H         -0.935760000000    -3.874740000000     0.218060000000     1.007825032070

  Running in c1 symmetry.

  Rotational constants: A =      0.02107  B =      0.01884  C =      0.01082 [cm^-1]
  Rotational constants: A =    631.65009  B =    564.66225  C =    324.31289 [MHz]
  Nuclear repulsion = 1141.563206009396481

  Charge       = 0
  Multiplicity = 1
  Electrons    = 118
  Nalpha       = 59
  Nbeta        = 59

  ==> Algorithm <==

  SCF Algorithm Type is DF.
  DIIS enabled.
  MOM disabled.
  Fractional occupation disabled.
  Guess Type is SAD.
  Energy threshold   = 1.00e-08
  Density threshold  = 1.00e-08
  Integral threshold = 0.00e+00

  ==> Primary Basis <==

  Basis Set: JUN-CC-PVDZ
    Blend: JUN-CC-PVDZ
    Number of shells: 170
    Number of basis function: 358
    Number of Cartesian functions: 374
    Spherical Harmonics?: true
    Max angular momentum: 2

   => Loading Basis Set <=

    Name: (JUN-CC-PVDZ AUX)
    Role: JKFIT
    Keyword: DF_BASIS_SCF
    atoms 1, 4, 8, 11, 15, 19, 23-28      entry C          line   145 file /home/junteng/Softwares/psi4conda/share/psi4/basis/jun-cc-pvdz-jkfit.gbs 
    atoms 2-3, 9-10                       entry O          line   257 file /home/junteng/Softwares/psi4conda/share/psi4/basis/jun-cc-pvdz-jkfit.gbs 
    atoms 5-7, 12-14, 16-18, 20-22, 29-30 entry H          line    69 file /home/junteng/Softwares/psi4conda/share/psi4/basis/jun-cc-pvdz-jkfit.gbs 

  ==> Pre-Iterations <==

   -------------------------------------------------------
    Irrep   Nso     Nmo     Nalpha   Nbeta   Ndocc  Nsocc
   -------------------------------------------------------
     A        358     358       0       0       0       0
   -------------------------------------------------------
    Total     358     358      59      59      59       0
   -------------------------------------------------------

  ==> Integral Setup <==

  ==> DFJK: Density-Fitted J/K Matrices <==

    J tasked:                  Yes
    K tasked:                  Yes
    wK tasked:                  No
    OpenMP threads:              1
    Integrals threads:           1
    Memory (MB):            536441
    Algorithm:                Core
    Integral Cache:           NONE
    Schwarz Cutoff:          1E-12
    Fitting Condition:       1E-12

   => Auxiliary Basis Set <=

  Basis Set: (JUN-CC-PVDZ AUX)
    Blend: JUN-CC-PVDZ-JKFIT
    Number of shells: 558
    Number of basis function: 1586
    Number of Cartesian functions: 1806
    Spherical Harmonics?: true
    Max angular momentum: 3

  Minimum eigenvalue in the overlap matrix is 3.1397645990E-06.
  Using Symmetric Orthogonalization.

  SCF Guess: Superposition of Atomic Densities via on-the-fly atomic UHF.

  ==> Iterations <==

                           Total Energy        Delta E     RMS |[F,P]|

   @DF-RHF iter   0:  -768.99018075331674   -7.68990e+02   2.09905e-02 
   @DF-RHF iter   1:  -761.57174761724309    7.41843e+00   2.51835e-03 
   @DF-RHF iter   2:  -761.95455964295070   -3.82812e-01   1.59803e-03 DIIS
   @DF-RHF iter   3:  -762.09150712559517   -1.36947e-01   4.95984e-04 DIIS
   @DF-RHF iter   4:  -762.11675509789370   -2.52480e-02   1.66089e-04 DIIS
   @DF-RHF iter   5:  -762.11998021575982   -3.22512e-03   5.93810e-05 DIIS
   @DF-RHF iter   6:  -762.12057777031441   -5.97555e-04   2.23302e-05 DIIS
   @DF-RHF iter   7:  -762.12066991828090   -9.21480e-05   8.02176e-06 DIIS
   @DF-RHF iter   8:  -762.12068086364161   -1.09454e-05   3.85173e-06 DIIS
   @DF-RHF iter   9:  -762.12068345395528   -2.59031e-06   1.62513e-06 DIIS
   @DF-RHF iter  10:  -762.12068408282846   -6.28873e-07   6.31994e-07 DIIS
   @DF-RHF iter  11:  -762.12068419310469   -1.10276e-07   2.21241e-07 DIIS
   @DF-RHF iter  12:  -762.12068420554226   -1.24376e-08   9.31101e-08 DIIS
   @DF-RHF iter  13:  -762.12068420712205   -1.57979e-09   3.66879e-08 DIIS
   @DF-RHF iter  14:  -762.12068420741434   -2.92289e-10   1.50630e-08 DIIS
   @DF-RHF iter  15:  -762.12068420744947   -3.51292e-11   5.66149e-09 DIIS

  ==> Post-Iterations <==

    Orbital Energies (a.u.)
    -----------------------

    Doubly Occupied:                                                      

       1A    -20.615395     2A    -20.610936     3A    -20.559524  
       4A    -20.556166     5A    -11.398395     6A    -11.394232  
       7A    -11.299709     8A    -11.293680     9A    -11.271968  
      10A    -11.268520    11A    -11.265178    12A    -11.264827  
      13A    -11.254161    14A    -11.250520    15A    -11.240204  
      16A    -11.231797    17A     -1.473222    18A     -1.465642  
      19A     -1.370267    20A     -1.366185    21A     -1.183683  
      22A     -1.086153    23A     -1.063939    24A     -0.994356  
      25A     -0.986489    26A     -0.970169    27A     -0.914883  
      28A     -0.877991    29A     -0.836980    30A     -0.780757  
      31A     -0.772934    32A     -0.721927    33A     -0.711954  
      34A     -0.697772    35A     -0.681945    36A     -0.675679  
      37A     -0.664705    38A     -0.653680    39A     -0.642448  
      40A     -0.605692    41A     -0.595935    42A     -0.582930  
      43A     -0.575763    44A     -0.568411    45A     -0.563423  
      46A     -0.553840    47A     -0.544012    48A     -0.541538  
      49A     -0.535461    50A     -0.529874    51A     -0.516456  
      52A     -0.504805    53A     -0.489180    54A     -0.469540  
      55A     -0.460677    56A     -0.455137    57A     -0.447324  
      58A     -0.352629    59A     -0.330970  

    Virtual:                                                              

      60A      0.051817    61A      0.055567    62A      0.059450  
      63A      0.067971    64A      0.075514    65A      0.078191  
      66A      0.084525    67A      0.094279    68A      0.095064  
      69A      0.099854    70A      0.104074    71A      0.106720  
      72A      0.116066    73A      0.118832    74A      0.120811  
      75A      0.123682    76A      0.133637    77A      0.135837  
      78A      0.147475    79A      0.149385    80A      0.152298  
      81A      0.163047    82A      0.166759    83A      0.170710  
      84A      0.176179    85A      0.182126    86A      0.188887  
      87A      0.194639    88A      0.198308    89A      0.201945  
      90A      0.210270    91A      0.213357    92A      0.221193  
      93A      0.224115    94A      0.230717    95A      0.233373  
      96A      0.242043    97A      0.246091    98A      0.248158  
      99A      0.254841   100A      0.261032   101A      0.265606  
     102A      0.269982   103A      0.273447   104A      0.276513  
     105A      0.289909   106A      0.296728   107A      0.301275  
     108A      0.305313   109A      0.314176   110A      0.319783  
     111A      0.324216   112A      0.326888   113A      0.330332  
     114A      0.336821   115A      0.341061   116A      0.343047  
     117A      0.347856   118A      0.357078   119A      0.358683  
     120A      0.365668   121A      0.375603   122A      0.378160  
     123A      0.384408   124A      0.386038   125A      0.398015  
     126A      0.399667   127A      0.407482   128A      0.412090  
     129A      0.422861   130A      0.423863   131A      0.431148  
     132A      0.433078   133A      0.434636   134A      0.440141  
     135A      0.448257   136A      0.452593   137A      0.458867  
     138A      0.463596   139A      0.472726   140A      0.486344  
     141A      0.491924   142A      0.496286   143A      0.501277  
     144A      0.510952   145A      0.523116   146A      0.538599  
     147A      0.552346   148A      0.554158   149A      0.562249  
     150A      0.571811   151A      0.600378   152A      0.620974  
     153A      0.634623   154A      0.653898   155A      0.703575  
     156A      0.712069   157A      0.748246   158A      0.756769  
     159A      0.770531   160A      0.776067   161A      0.789295  
     162A      0.796983   163A      0.824479   164A      0.828212  
     165A      0.832060   166A      0.845681   167A      0.851866  
     168A      0.861102   169A      0.884897   170A      0.888617  
     171A      0.892749   172A      0.907560   173A      0.910374  
     174A      0.914464   175A      0.917394   176A      0.920942  
     177A      0.925677   178A      0.929528   179A      0.932097  
     180A      0.945126   181A      0.947541   182A      0.955306  
     183A      0.956349   184A      0.963481   185A      0.970518  
     186A      0.972500   187A      0.983796   188A      0.988882  
     189A      1.002866   190A      1.005329   191A      1.007683  
     192A      1.013024   193A      1.019832   194A      1.035806  
     195A      1.050034   196A      1.062802   197A      1.071702  
     198A      1.089026   199A      1.104963   200A      1.114670  
     201A      1.139148   202A      1.143724   203A      1.146896  
     204A      1.164477   205A      1.181699   206A      1.205135  
     207A      1.211190   208A      1.230057   209A      1.246429  
     210A      1.253362   211A      1.277081   212A      1.283298  
     213A      1.290455   214A      1.301429   215A      1.317507  
     216A      1.326601   217A      1.334780   218A      1.345288  
     219A      1.363270   220A      1.376767   221A      1.380363  
     222A      1.423482   223A      1.433915   224A      1.468467  
     225A      1.489831   226A      1.501487   227A      1.526496  
     228A      1.529848   229A      1.546822   230A      1.552880  
     231A      1.564742   232A      1.578965   233A      1.589158  
     234A      1.597331   235A      1.602421   236A      1.608759  
     237A      1.637347   238A      1.646052   239A      1.657372  
     240A      1.661489   241A      1.668463   242A      1.678261  
     243A      1.688041   244A      1.689497   245A      1.712218  
     246A      1.721750   247A      1.724902   248A      1.748944  
     249A      1.767092   250A      1.779289   251A      1.797346  
     252A      1.805440   253A      1.815745   254A      1.829751  
     255A      1.839144   256A      1.863342   257A      1.877881  
     258A      1.899332   259A      1.909142   260A      1.918708  
     261A      1.930675   262A      1.938893   263A      1.944719  
     264A      1.954157   265A      1.958990   266A      1.967587  
     267A      1.975538   268A      1.985250   269A      1.989273  
     270A      2.001512   271A      2.008094   272A      2.016298  
     273A      2.020543   274A      2.025086   275A      2.036741  
     276A      2.043480   277A      2.049684   278A      2.051633  
     279A      2.059068   280A      2.084329   281A      2.104316  
     282A      2.116426   283A      2.125355   284A      2.143943  
     285A      2.154843   286A      2.159102   287A      2.180719  
     288A      2.190114   289A      2.200757   290A      2.221941  
     291A      2.224890   292A      2.273448   293A      2.281308  
     294A      2.292403   295A      2.308304   296A      2.336403  
     297A      2.362068   298A      2.370510   299A      2.390250  
     300A      2.395381   301A      2.403011   302A      2.414909  
     303A      2.425312   304A      2.430344   305A      2.434645  
     306A      2.453961   307A      2.500195   308A      2.506374  
     309A      2.545449   310A      2.561230   311A      2.572632  
     312A      2.594290   313A      2.604358   314A      2.624850  
     315A      2.666414   316A      2.716281   317A      2.736446  
     318A      2.758455   319A      2.776402   320A      2.791409  
     321A      2.805700   322A      2.815785   323A      2.847354  
     324A      2.852926   325A      2.858228   326A      2.870496  
     327A      2.874349   328A      2.879610   329A      2.895639  
     330A      2.906056   331A      2.918518   332A      2.929751  
     333A      2.974203   334A      3.017069   335A      3.040375  
     336A      3.057156   337A      3.077412   338A      3.103435  
     339A      3.123954   340A      3.135083   341A      3.201214  
     342A      3.265531   343A      3.271787   344A      3.291590  
     345A      3.316160   346A      3.384937   347A      3.417262  
     348A      3.571039   349A      3.579627   350A      3.644975  
     351A      3.686281   352A      3.746479   353A      3.784337  
     354A      3.793415   355A      3.943105   356A      3.950615  
     357A      4.066180   358A      4.075520  

    Final Occupation by Irrep:
              A 
    DOCC [    59 ]

  Energy converged.

  @DF-RHF Final Energy:  -762.12068420744947

   => Energetics <=

    Nuclear Repulsion Energy =           1141.5632060093964810
    One-Electron Energy =               -3308.1826452321183751
    Two-Electron Energy =                1404.4987550152720814
    DFT Exchange-Correlation Energy =       0.0000000000000000
    Empirical Dispersion Energy =           0.0000000000000000
    PCM Polarization Energy =               0.0000000000000000
    EFP Energy =                            0.0000000000000000
    Total Energy =                       -762.1206842074495853



Properties will be evaluated at   0.000000,   0.000000,   0.000000 Bohr

Properties computed using the SCF density matrix

  Nuclear Dipole Moment: (a.u.)
     X:    -3.1960      Y:     1.8373      Z:     7.0459

  Electronic Dipole Moment: (a.u.)
     X:     3.8460      Y:    -2.4757      Z:    -5.9911

  Dipole Moment: (a.u.)
     X:     0.6501      Y:    -0.6384      Z:     1.0547     Total:     1.3937

  Dipole Moment: (Debye)
     X:     1.6523      Y:    -1.6226      Z:     2.6808     Total:     3.5425


*** tstop() called on ThinkPad-P50 at Tue Dec 12 11:15:45 2017
Module time:
	user time   =     296.89 seconds =       4.95 minutes
	system time =       2.24 seconds =       0.04 minutes
	total time  =        302 seconds =       5.03 minutes
Total time:
	user time   =     296.89 seconds =       4.95 minutes
	system time =       2.24 seconds =       0.04 minutes
	total time  =        302 seconds =       5.03 minutes
   => Loading Basis Set <=

    Name: (JUN-CC-PVDZ AUX)
    Role: JKFIT
    Keyword: DF_BASIS_SCF
    atoms 1, 4, 8, 11, 15, 19, 23-28      entry C          line   145 file /home/junteng/Softwares/psi4conda/share/psi4/basis/jun-cc-pvdz-jkfit.gbs 
    atoms 2-3, 9-10                       entry O          line   257 file /home/junteng/Softwares/psi4conda/share/psi4/basis/jun-cc-pvdz-jkfit.gbs 
    atoms 5-7, 12-14, 16-18, 20-22, 29-30 entry H          line    69 file /home/junteng/Softwares/psi4conda/share/psi4/basis/jun-cc-pvdz-jkfit.gbs 

   => Loading Basis Set <=

    Name: (JUN-CC-PVDZ AUX)
    Role: RIFIT
    Keyword: DF_BASIS_SAPT
    atoms 1, 4, 8, 11, 15, 19, 23-28      entry C          line    99 file /home/junteng/Softwares/psi4conda/share/psi4/basis/jun-cc-pvdz-ri.gbs 
    atoms 2-3, 9-10                       entry O          line   187 file /home/junteng/Softwares/psi4conda/share/psi4/basis/jun-cc-pvdz-ri.gbs 
    atoms 5-7, 12-14, 16-18, 20-22, 29-30 entry H          line    29 file /home/junteng/Softwares/psi4conda/share/psi4/basis/jun-cc-pvdz-ri.gbs 

   => Loading Basis Set <=

    Name: CC-PVTZ-MINAO
    Role: ORBITAL
    Keyword: BASIS
    atoms 1, 4, 8, 11, 15, 19, 23-28      entry C          line   130 file /home/junteng/Softwares/psi4conda/share/psi4/basis/cc-pvtz-minao.gbs 
    atoms 2-3, 9-10                       entry O          line   190 file /home/junteng/Softwares/psi4conda/share/psi4/basis/cc-pvtz-minao.gbs 
    atoms 5-7, 12-14, 16-18, 20-22, 29-30 entry H          line    19 file /home/junteng/Softwares/psi4conda/share/psi4/basis/cc-pvtz-minao.gbs 


*** tstart() called on ThinkPad-P50
*** at Tue Dec 12 11:15:48 2017

	 --------------------------------------------
	                    FISAPT0                  
	                  Rob Parrish                
	 --------------------------------------------

    Do F-SAPT =         Yes
    Do Plot   =          No
    Memory    =      78.580 [GD]

  ==> Localization (IBO) <==

  ==> IBO Localizer 2 <==

    MinAO Basis = CC-PVTZ-MINAO
    Use Ghosts  =       FALSE
    Use Stars   =       FALSE
    Condition   =   1.000E-07
    Power       =           4
    Convergence =   1.000E-12
    Maxiter     =        1000

    @IBO Iter:                   Metric       Gradient
    @IBO    1:   1.9786503661978747E+00   3.088825E+00
    @IBO    2:   2.2083481666592886E+00   2.040101E+00
    @IBO    3:   2.2795936505521448E+00   9.452513E-01
    @IBO    4:   2.2879482430565825E+00   1.636373E-01
    @IBO    5:   2.2881199663553824E+00   3.654727E-03
    @IBO    6:   2.2881200949575513E+00   2.173387E-04
    @IBO    7:   2.2881200966637132E+00   4.503691E-05
    @IBO    8:   2.2881200967376301E+00   1.038730E-05
    @IBO    9:   2.2881200967416793E+00   2.501034E-06
    @IBO   10:   2.2881200967419328E+00   6.219846E-07
    @IBO   11:   2.2881200967419502E+00   1.591064E-07
    @IBO   12:   2.2881200967419515E+00   4.163393E-08
    @IBO   13:   2.2881200967419515E+00   1.107219E-08
    @IBO   14:   2.2881200967419515E+00   2.974789E-09
    @IBO   15:   2.2881200967419510E+00   8.037997E-10
    @IBO   16:   2.2881200967419510E+00   2.177695E-10
    @IBO   17:   2.2881200967419515E+00   5.904874E-11
    @IBO   18:   2.2881200967419510E+00   1.600849E-11
    @IBO   19:   2.2881200967419510E+00   4.337055E-12
    @IBO   20:   2.2881200967419515E+00   1.173988E-12
    @IBO   21:   2.2881200967419510E+00   3.174854E-13

    IBO Localizer 2 converged.

  ==> Partitioning <==

   => Atomic Partitioning <= 

    Monomer A:   7 atoms
    Monomer B:   7 atoms
    Monomer C:  16 atoms

   => Link Bond Identification <=

    Link Bond Selection = AUTOMATIC

    Charge Completeness = 0.800

    Total Link Bonds = 2

    --------------------------
    N     Orb Type Aind1 Aind2
    --------------------------
    1      18   AC     1    24
    2      19   BC     8    23
    --------------------------

   => Link Bond Assignment <=

    Link Bond Assignment      = C

   => Partition Summary <=

    Monomer A:  0 charge,  30 protons,  30 electrons,  15 docc
    Monomer B:  0 charge,  30 protons,  30 electrons,  15 docc
    Monomer C:  0 charge,  58 protons,  58 electrons,  29 docc

  ==> Overlap Integrals <==

  ==> Kinetic Integrals <==

  ==> Nuclear Integrals <==

    Nuclear Repulsion Tot:   1.1415632060093963E+03 [Eh]

  ==> Coulomb Integrals <==

  ==> DFJK: Density-Fitted J/K Matrices <==

    J tasked:                  Yes
    K tasked:                  Yes
    wK tasked:                  No
    OpenMP threads:              1
    Integrals threads:           1
    Memory (MB):            643730
    Algorithm:                Core
    Integral Cache:           NONE
    Schwarz Cutoff:          1E-12
    Fitting Condition:       1E-12

   => Auxiliary Basis Set <=

  Basis Set: (JUN-CC-PVDZ AUX)
    Blend: JUN-CC-PVDZ-JKFIT
    Number of shells: 558
    Number of basis function: 1586
    Number of Cartesian functions: 1806
    Spherical Harmonics?: true
    Max angular momentum: 3

  ==> Relaxed SCF Equations <==

  ==> SCF A: <==

    Maxiter =          50
    E Tol   =   1.000E-06
    D Tol   =   1.000E-08

    Max DIIS Vectors = 5

    Iter   N:                        E          dE         |D|
    Iter   1:  -2.2408307875945891E+02  -2.241E+02   8.314E-04 
    Iter   2:  -2.2409649325183068E+02  -1.341E-02   5.680E-05 DIIS
    Iter   3:  -2.2409670748308420E+02  -2.142E-04   2.603E-05 DIIS
    Iter   4:  -2.2409673945204946E+02  -3.197E-05   8.955E-06 DIIS
    Iter   5:  -2.2409674456956489E+02  -5.118E-06   1.621E-06 DIIS
    Iter   6:  -2.2409674487251834E+02  -3.030E-07   6.827E-07 DIIS
    Iter   7:  -2.2409674492485416E+02  -5.234E-08   2.386E-07 DIIS
    Iter   8:  -2.2409674493170670E+02  -6.853E-09   1.101E-07 DIIS
    Iter   9:  -2.2409674493315035E+02  -1.444E-09   4.280E-08 DIIS
    Iter  10:  -2.2409674493343755E+02  -2.872E-10   1.972E-08 DIIS
    Iter  11:  -2.2409674493347975E+02  -4.221E-11   8.654E-09 DIIS

    FISAPTSCF Converged.

    Final SCF Energy:  -2.2409674493347975E+02 [Eh]

   => Occupied Orbital Energies <=

       1  -20.604335     2  -20.549011     3  -11.388015  
       4  -11.292873     5   -1.435857     6   -1.356386  
       7   -0.959787     8   -0.764245     9   -0.668827  
      10   -0.660646    11   -0.619258    12   -0.541325  
      13   -0.533377    14   -0.473491    15   -0.458832  

   => Virtual Orbital Energies <=

      16    0.030884    17    0.054195    18    0.060627  
      19    0.065383    20    0.066714    21    0.078140  
      22    0.084056    23    0.096327    24    0.097321  
      25    0.100017    26    0.101826    27    0.107092  
      28    0.113414    29    0.117122    30    0.120004  
      31    0.126294    32    0.135216    33    0.135427  
      34    0.143314    35    0.148375    36    0.152813  
      37    0.156425    38    0.161109    39    0.165695  
      40    0.174338    41    0.179108    42    0.184426  
      43    0.191068    44    0.198176    45    0.199721  
      46    0.206058    47    0.215194    48    0.218222  
      49    0.224777    50    0.232671    51    0.235348  
      52    0.242936    53    0.247202    54    0.248348  
      55    0.255618    56    0.258688    57    0.260400  
      58    0.266049    59    0.273209    60    0.283526  
      61    0.285341    62    0.289963    63    0.302145  
      64    0.305714    65    0.310066    66    0.317640  
      67    0.319319    68    0.322596    69    0.326227  
      70    0.333749    71    0.336811    72    0.341827  
      73    0.346549    74    0.351172    75    0.359219  
      76    0.360675    77    0.363722    78    0.376776  
      79    0.383797    80    0.389843    81    0.393909  
      82    0.398098    83    0.400796    84    0.411018  
      85    0.419840    86    0.425471    87    0.426461  
      88    0.445210    89    0.446277    90    0.453939  
      91    0.456601    92    0.465122    93    0.473566  
      94    0.479828    95    0.492448    96    0.493044  
      97    0.503916    98    0.509457    99    0.517507  
     100    0.518934   101    0.547562   102    0.556417  
     103    0.559852   104    0.575744   105    0.578606  
     106    0.601832   107    0.614728   108    0.624971  
     109    0.640527   110    0.647091   111    0.648730  
     112    0.674713   113    0.695446   114    0.744717  
     115    0.769337   116    0.774477   117    0.785393  
     118    0.791202   119    0.814943   120    0.824960  
     121    0.841418   122    0.846303   123    0.851530  
     124    0.861108   125    0.884717   126    0.894673  
     127    0.909269   128    0.912778   129    0.919510  
     130    0.927275   131    0.930868   132    0.933465  
     133    0.935911   134    0.943393   135    0.960168  
     136    0.962280   137    0.965194   138    0.972379  
     139    0.976339   140    0.981183   141    0.987147  
     142    0.992255   143    1.002101   144    1.009578  
     145    1.018870   146    1.027239   147    1.052025  
     148    1.062107   149    1.064040   150    1.069293  
     151    1.077510   152    1.093780   153    1.109762  
     154    1.117605   155    1.135836   156    1.152834  
     157    1.161234   158    1.165755   159    1.179151  
     160    1.185164   161    1.217985   162    1.229352  
     163    1.237746   164    1.239918   165    1.266838  
     166    1.281604   167    1.295138   168    1.305470  
     169    1.318232   170    1.337944   171    1.339779  
     172    1.351238   173    1.368910   174    1.395635  
     175    1.415949   176    1.422445   177    1.478516  
     178    1.499369   179    1.527801   180    1.541745  
     181    1.547404   182    1.568100   183    1.572349  
     184    1.582408   185    1.586857   186    1.596139  
     187    1.608612   188    1.622443   189    1.631660  
     190    1.655480   191    1.673113   192    1.676200  
     193    1.693989   194    1.704311   195    1.713611  
     196    1.723139   197    1.749479   198    1.759529  
     199    1.782284   200    1.801782   201    1.804369  
     202    1.812078   203    1.830025   204    1.832422  
     205    1.846656   206    1.854358   207    1.888491  
     208    1.906996   209    1.919994   210    1.922315  
     211    1.935565   212    1.945372   213    1.952115  
     214    1.968653   215    1.972154   216    1.986389  
     217    1.996658   218    2.004129   219    2.007990  
     220    2.020472   221    2.027219   222    2.031299  
     223    2.041512   224    2.045317   225    2.058532  
     226    2.066972   227    2.092861   228    2.103720  
     229    2.116594   230    2.123997   231    2.126098  
     232    2.140435   233    2.150059   234    2.163534  
     235    2.176425   236    2.178307   237    2.200266  
     238    2.214404   239    2.215686   240    2.243164  
     241    2.266440   242    2.297928   243    2.305037  
     244    2.322284   245    2.327352   246    2.332461  
     247    2.342388   248    2.361572   249    2.382190  
     250    2.397254   251    2.402770   252    2.406259  
     253    2.422992   254    2.435771   255    2.441619  
     256    2.468838   257    2.495568   258    2.512946  
     259    2.520480   260    2.549545   261    2.573202  
     262    2.588884   263    2.602245   264    2.624627  
     265    2.636666   266    2.656553   267    2.692622  
     268    2.701653   269    2.721028   270    2.731528  
     271    2.791905   272    2.794693   273    2.797904  
     274    2.828268   275    2.854645   276    2.857630  
     277    2.861647   278    2.871148   279    2.875184  
     280    2.879384   281    2.886063   282    2.891052  
     283    2.913584   284    2.919988   285    2.954348  
     286    2.975497   287    2.992429   288    3.035436  
     289    3.056448   290    3.081237   291    3.120485  
     292    3.128141   293    3.185959   294    3.229830  
     295    3.284227   296    3.305129   297    3.422725  
     298    3.442070   299    3.584327   300    3.651044  
     301    3.683960   302    3.755367   303    3.797668  
     304    3.856100   305    3.954840   306    3.965383  
     307    4.076963   308    4.144399   309    4.197335  
     310    4.445829   311    4.509757   312    4.543077  
     313    4.759303   314    4.932514   315    5.040542  
     316    5.065789   317    5.200713   318    5.315233  
     319    5.521926   320    5.627260   321    5.723949  
     322    5.840343   323    6.093575   324    6.336810  
     325    6.687542   326   13.368105   327   18.423818  
     328   33.421491   329   33.470920  

  ==> SCF B: <==

    Maxiter =          50
    E Tol   =   1.000E-06
    D Tol   =   1.000E-08

    Max DIIS Vectors = 5

    Iter   N:                        E          dE         |D|
    Iter   1:  -2.2415912686365002E+02  -2.242E+02   6.383E-04 
    Iter   2:  -2.2416759029725975E+02  -8.463E-03   3.912E-05 DIIS
    Iter   3:  -2.2416773611214086E+02  -1.458E-04   1.302E-05 DIIS
    Iter   4:  -2.2416774722289063E+02  -1.111E-05   5.595E-06 DIIS
    Iter   5:  -2.2416774970432328E+02  -2.481E-06   1.543E-06 DIIS
    Iter   6:  -2.2416774994066918E+02  -2.363E-07   6.114E-07 DIIS
    Iter   7:  -2.2416774998747087E+02  -4.680E-08   2.820E-07 DIIS
    Iter   8:  -2.2416774999673925E+02  -9.268E-09   9.133E-08 DIIS
    Iter   9:  -2.2416774999787242E+02  -1.133E-09   4.095E-08 DIIS
    Iter  10:  -2.2416774999809621E+02  -2.238E-10   1.225E-08 DIIS
    Iter  11:  -2.2416774999810741E+02  -1.120E-11   7.718E-09 DIIS

    FISAPTSCF Converged.

    Final SCF Energy:  -2.2416774999810741E+02 [Eh]

   => Occupied Orbital Energies <=

       1  -20.607702     2  -20.547732     3  -11.386540  
       4  -11.293862     5   -1.438576     6   -1.354952  
       7   -0.962052     8   -0.766464     9   -0.668672  
      10   -0.663404    11   -0.620708    12   -0.540809  
      13   -0.535370    14   -0.471356    15   -0.458887  

   => Virtual Orbital Energies <=

      16    0.036043    17    0.053060    18    0.056538  
      19    0.066783    20    0.072894    21    0.079607  
      22    0.086899    23    0.093811    24    0.097583  
      25    0.098743    26    0.105400    27    0.108585  
      28    0.115709    29    0.119149    30    0.123992  
      31    0.130363    32    0.132952    33    0.135490  
      34    0.146701    35    0.150061    36    0.154272  
      37    0.159878    38    0.163089    39    0.164286  
      40    0.171367    41    0.181078    42    0.187790  
      43    0.194424    44    0.196569    45    0.199378  
      46    0.207593    47    0.210765    48    0.216897  
      49    0.221934    50    0.228656    51    0.232755  
      52    0.241597    53    0.242695    54    0.252005  
      55    0.253377    56    0.259318    57    0.264388  
      58    0.272142    59    0.280111    60    0.282438  
      61    0.283658    62    0.291360    63    0.297989  
      64    0.303478    65    0.309361    66    0.316874  
      67    0.320151    68    0.329555    69    0.332834  
      70    0.334633    71    0.338199    72    0.339332  
      73    0.346876    74    0.350357    75    0.358337  
      76    0.362891    77    0.365408    78    0.377444  
      79    0.384837    80    0.390478    81    0.394361  
      82    0.406273    83    0.408543    84    0.413520  
      85    0.421011    86    0.426722    87    0.431560  
      88    0.435566    89    0.447267    90    0.452879  
      91    0.457540    92    0.461349    93    0.469457  
      94    0.486696    95    0.489708    96    0.495768  
      97    0.502259    98    0.512193    99    0.523428  
     100    0.525891   101    0.536143   102    0.551944  
     103    0.560345   104    0.571064   105    0.593249  
     106    0.607373   107    0.629633   108    0.630568  
     109    0.633146   110    0.658944   111    0.670437  
     112    0.712076   113    0.717814   114    0.728406  
     115    0.759513   116    0.772212   117    0.778345  
     118    0.783734   119    0.795508   120    0.815556  
     121    0.831026   122    0.842820   123    0.847809  
     124    0.859262   125    0.884215   126    0.891645  
     127    0.900544   128    0.913046   129    0.924641  
     130    0.927571   131    0.931000   132    0.933497  
     133    0.935199   134    0.942845   135    0.951646  
     136    0.956737   137    0.959495   138    0.964541  
     139    0.971012   140    0.980551   141    0.987057  
     142    0.988030   143    0.998903   144    1.011551  
     145    1.027601   146    1.030030   147    1.041888  
     148    1.043653   149    1.062961   150    1.078921  
     151    1.084458   152    1.099641   153    1.109176  
     154    1.131216   155    1.137473   156    1.148234  
     157    1.160560   158    1.174952   159    1.184821  
     160    1.207157   161    1.220240   162    1.225721  
     163    1.227716   164    1.246105   165    1.268102  
     166    1.282275   167    1.305623   168    1.316154  
     169    1.321064   170    1.336762   171    1.345234  
     172    1.352894   173    1.376910   174    1.389229  
     175    1.418238   176    1.448694   177    1.461121  
     178    1.517590   179    1.527412   180    1.542777  
     181    1.551230   182    1.557102   183    1.566625  
     184    1.585519   185    1.593603   186    1.606566  
     187    1.626240   188    1.631123   189    1.649218  
     190    1.661343   191    1.675784   192    1.679902  
     193    1.691269   194    1.692636   195    1.704155  
     196    1.727733   197    1.729727   198    1.745681  
     199    1.781813   200    1.797283   201    1.806683  
     202    1.825180   203    1.834966   204    1.840029  
     205    1.847257   206    1.854516   207    1.879620  
     208    1.900879   209    1.917817   210    1.929226  
     211    1.934635   212    1.943036   213    1.952108  
     214    1.962627   215    1.977332   216    1.985067  
     217    1.992954   218    2.000735   219    2.011648  
     220    2.014144   221    2.026963   222    2.035568  
     223    2.042374   224    2.055071   225    2.061070  
     226    2.073388   227    2.078545   228    2.094225  
     229    2.110951   230    2.123525   231    2.131719  
     232    2.140112   233    2.157816   234    2.161237  
     235    2.166749   236    2.173972   237    2.198722  
     238    2.220457   239    2.238034   240    2.254329  
     241    2.277350   242    2.295739   243    2.307679  
     244    2.314642   245    2.329045   246    2.337178  
     247    2.354511   248    2.368234   249    2.381436  
     250    2.387833   251    2.396521   252    2.412016  
     253    2.426541   254    2.435689   255    2.442146  
     256    2.462093   257    2.511262   258    2.512629  
     259    2.530012   260    2.564275   261    2.573541  
     262    2.578963   263    2.607915   264    2.634536  
     265    2.649414   266    2.659262   267    2.673767  
     268    2.711101   269    2.733817   270    2.736889  
     271    2.757332   272    2.790230   273    2.811382  
     274    2.825657   275    2.847720   276    2.853756  
     277    2.859351   278    2.874667   279    2.875878  
     280    2.882656   281    2.895199   282    2.901794  
     283    2.915063   284    2.923591   285    2.948562  
     286    2.962380   287    3.007739   288    3.037924  
     289    3.046990   290    3.084686   291    3.113950  
     292    3.129807   293    3.184774   294    3.237071  
     295    3.274371   296    3.325541   297    3.391177  
     298    3.445668   299    3.583162   300    3.616274  
     301    3.679912   302    3.716480   303    3.792017  
     304    3.859063   305    3.946930   306    3.968768  
     307    4.088123   308    4.148557   309    4.204093  
     310    4.445360   311    4.513374   312    4.562764  
     313    4.763911   314    4.936586   315    5.052139  
     316    5.069148   317    5.181722   318    5.322589  
     319    5.517777   320    5.639184   321    5.741161  
     322    5.840443   323    6.105754   324    6.325459  
     325    6.704323   326   13.377599   327   18.431027  
     328   33.422891   329   33.475264  

  ==> Frozen Core <==


    ------------------
    Range      A     B
    ------------------
    nbf      358   358
    nmo      329   329
    nocc      15    15
    nvir     314   314
    nfocc      4     4
    naocc     11    11
    navir    314   314
    nfvir      0     0
    ------------------

  ==> Unification <==

  ==> dHF <==

    E ABC(HF) =  -7.6212068420744947E+02 [Eh]
    E AC(0)   =  -5.3411491835015329E+02 [Eh]
    E BC(0)   =  -5.3410424312344435E+02 [Eh]
    E A(0)    =  -2.1264454307309398E+02 [Eh]
    E B(0)    =  -2.1266137435245577E+02 [Eh]
    E AC(HF)  =  -5.3410125217613222E+02 [Eh]
    E BC(HF)  =  -5.3409561998898630E+02 [Eh]
    E AB(HF)  =  -4.2526870380793787E+02 [Eh]
    E A(HF)   =  -2.1261984395434666E+02 [Eh]
    E B(HF)   =  -2.1264375149685827E+02 [Eh]
    E C       =  -3.0608129631439209E+02 [Eh]
    E HF      =   1.7180951756074592E-02 [Eh]

  ==> Electrostatics <==

    Elst10,r            =     0.012824405789 [Eh]

  ==> Exchange <==

    Exch10(S^2)         =     0.006679440780 [Eh]
    Exch10              =     0.006706564158 [Eh]

  ==> Induction <==

    Ind20,u (A<-B)      =    -0.001848581502 [Eh]
    Ind20,u (B<-A)      =    -0.001453640081 [Eh]
    Ind20,u             =    -0.003302221583 [Eh]
    Exch-Ind20,u (A<-B) =     0.000684438247 [Eh]
    Exch-Ind20,u (B<-A) =     0.000916734776 [Eh]
    Exch-Ind20,u        =     0.001601173023 [Eh]

  ==> CPHF Iterations <==

    Maxiter     =          50
    Convergence =   1.000E-08

    -----------------------------------------
    Iter   Monomer A    Monomer B    Time [s]
    -----------------------------------------
    1      2.409E-01    1.951E-01          26
    2      8.941E-02    7.329E-02          49
    3      2.459E-02    1.758E-02          66
    4      8.601E-03    7.539E-03          85
    5      2.525E-03    2.620E-03         105
    6      8.334E-04    1.244E-03         132
    7      2.373E-04    3.789E-04         155
    8      8.083E-05    1.494E-04         172
    9      2.429E-05    4.084E-05         188
    10     9.461E-06    1.309E-05         199
    11     2.732E-06    4.632E-06         211
    12     5.587E-07    1.069E-06         228
    13     1.663E-07    1.940E-07         244
    14     4.445E-08    6.401E-08         260
    15     1.175E-08    1.595E-08         277
    16     3.298E-09*   3.661E-09*        294
    -----------------------------------------

    Ind20,r (A<-B)      =    -0.002141014178 [Eh]
    Ind20,r (B<-A)      =    -0.001719090333 [Eh]
    Ind20,r             =    -0.003860104510 [Eh]
    Exch-Ind20,r (A<-B) =     0.000877531037 [Eh]
    Exch-Ind20,r (B<-A) =     0.001142457601 [Eh]
    Exch-Ind20,r        =     0.002019988638 [Eh]

  ==> F-SAPT Localization (IBO) <==

  Local Orbitals for Monomer A:

  ==> IBO Localizer 2 <==

    MinAO Basis = CC-PVTZ-MINAO
    Use Ghosts  =       FALSE
    Use Stars   =       FALSE
    Condition   =   1.000E-07
    Power       =           4
    Convergence =   1.000E-12
    Maxiter     =        1000

    @IBO Iter:                   Metric       Gradient
    @IBO    1:   1.4791879118890598E+00   1.675418E+00
    @IBO    2:   1.6778516007864346E+00   9.369844E-01
    @IBO    3:   1.7095322036456286E+00   2.862559E-01
    @IBO    4:   1.7106007424578711E+00   3.754375E-03
    @IBO    5:   1.7106012747886736E+00   1.859391E-04
    @IBO    6:   1.7106012752739821E+00   4.313993E-06
    @IBO    7:   1.7106012752743704E+00   1.567929E-07
    @IBO    8:   1.7106012752743711E+00   5.684484E-09
    @IBO    9:   1.7106012752743709E+00   2.213877E-10
    @IBO   10:   1.7106012752743711E+00   8.929170E-12
    @IBO   11:   1.7106012752743711E+00   3.668180E-13

    IBO Localizer 2 converged.

  Local Orbitals for Monomer B:

  ==> IBO Localizer 2 <==

    MinAO Basis = CC-PVTZ-MINAO
    Use Ghosts  =       FALSE
    Use Stars   =       FALSE
    Condition   =   1.000E-07
    Power       =           4
    Convergence =   1.000E-12
    Maxiter     =        1000

    @IBO Iter:                   Metric       Gradient
    @IBO    1:   1.4848676685508577E+00   1.679140E+00
    @IBO    2:   1.6774421286755268E+00   9.243705E-01
    @IBO    3:   1.7093008225067281E+00   3.370518E-01
    @IBO    4:   1.7107071786272254E+00   2.748602E-03
    @IBO    5:   1.7107074648056178E+00   1.191684E-04
    @IBO    6:   1.7107074649758722E+00   1.816052E-06
    @IBO    7:   1.7107074649759304E+00   5.435712E-08
    @IBO    8:   1.7107074649759306E+00   1.253853E-09
    @IBO    9:   1.7107074649759306E+00   3.390460E-11
    @IBO   10:   1.7107074649759306E+00   1.182143E-12
    @IBO   11:   1.7107074649759306E+00   4.803579E-14

    IBO Localizer 2 converged.

  ==> F-SAPT Electrostatics <==

  ==> DFERI: Density Fitted 3-Index Tensors <==

    Schwarz cutoff =   0.000E+00
    J cutoff       =   1.000E-12
    Mem (GB)       =         628

   => Auxiliary Basis <=

  Basis Set: (JUN-CC-PVDZ AUX)
    Blend: JUN-CC-PVDZ-JKFIT
    Number of shells: 558
    Number of basis function: 1586
    Number of Cartesian functions: 1806
    Spherical Harmonics?: true
    Max angular momentum: 3

    Elst10,r            =     0.012824399827 [Eh]

  ==> F-SAPT Exchange <==

  ==> DFERI: Density Fitted 3-Index Tensors <==

    Schwarz cutoff =   0.000E+00
    J cutoff       =   1.000E-12
    Mem (GB)       =         628

   => Auxiliary Basis <=

  Basis Set: (JUN-CC-PVDZ AUX)
    Blend: JUN-CC-PVDZ-JKFIT
    Number of shells: 558
    Number of basis function: 1586
    Number of Cartesian functions: 1806
    Spherical Harmonics?: true
    Max angular momentum: 3

    Exch10(S^2)         =     0.006679435200 [Eh]

    Scaling F-SAPT Exch10(S^2) by   1.004E+00 to match Exch10

  ==> F-SAPT Induction <==

  ==> DFERI: Density Fitted 3-Index Tensors <==

    Schwarz cutoff =   0.000E+00
    J cutoff       =   1.000E-12
    Mem (GB)       =         628

   => Auxiliary Basis <=

  Basis Set: (JUN-CC-PVDZ AUX)
    Blend: JUN-CC-PVDZ-JKFIT
    Number of shells: 558
    Number of basis function: 1586
    Number of Cartesian functions: 1806
    Spherical Harmonics?: true
    Max angular momentum: 3

    Ind20,u (A<-B)      =    -0.001848580767 [Eh]
    Ind20,u (B<-A)      =    -0.001453640577 [Eh]
    Ind20,u             =    -0.003302221344 [Eh]
    Exch-Ind20,u (A<-B) =     0.000684438273 [Eh]
    Exch-Ind20,u (B<-A) =     0.000916734936 [Eh]
    Exch-Ind20,u        =     0.001601173209 [Eh]

    Scaling for delta HF        =   1.277E+00
    Scaling for response (A<-B) =   1.085E+00
    Scaling for response (B<-A) =   1.074E+00
    Scaling for total (A<-B)    =   1.386E+00
    Scaling for total (B<-A)    =   1.372E+00

  ==> F-SAPT Dispersion <==

  ==> DFERI: Density Fitted 3-Index Tensors <==

    Schwarz cutoff =   0.000E+00
    J cutoff       =   1.000E-12
    Mem (GB)       =         628

   => Auxiliary Basis <=

  Basis Set: (JUN-CC-PVDZ AUX)
    Blend: JUN-CC-PVDZ-RI
    Number of shells: 420
    Number of basis function: 1236
    Number of Cartesian functions: 1426
    Spherical Harmonics?: true
    Max angular momentum: 3

    Disp20              =    -0.004308338668 [Eh]
    Exch-Disp20         =     0.000509104493 [Eh]

  ==> F-SAPT Output <==

    F-SAPT Data Filepath = fsapt/

  ==> Results <==


    SAPT Results  
  --------------------------------------------------------------------------------------------------------
    Electrostatics                 12.82440579 [mEh]       8.04743646 [kcal/mol]      33.67047740 [kJ/mol]
      Elst10,r                     12.82440579 [mEh]       8.04743646 [kcal/mol]      33.67047740 [kJ/mol]

    Exchange                        6.70656416 [mEh]       4.20843272 [kcal/mol]      17.60808420 [kJ/mol]
      Exch10                        6.70656416 [mEh]       4.20843272 [kcal/mol]      17.60808420 [kJ/mol]
      Exch10(S^2)                   6.67944078 [mEh]       4.19141254 [kcal/mol]      17.53687177 [kJ/mol]

    Induction                      -2.35001819 [mEh]      -1.47465874 [kcal/mol]      -6.16997276 [kJ/mol]
      Ind20,r                      -3.86010451 [mEh]      -2.42225225 [kcal/mol]     -10.13470439 [kJ/mol]
      Exch-Ind20,r                  2.01998864 [mEh]       1.26756206 [kcal/mol]       5.30348017 [kJ/mol]
      delta HF,r (2)               -0.50990232 [mEh]      -0.31996855 [kcal/mol]      -1.33874854 [kJ/mol]
      Induction (A<-B)             -1.61359858 [mEh]      -1.01254844 [kcal/mol]      -4.23650308 [kJ/mol]
      Induction (B<-A)             -0.73641961 [mEh]      -0.46211030 [kcal/mol]      -1.93346968 [kJ/mol]

    Dispersion                     -3.79923417 [mEh]      -2.38405554 [kcal/mol]      -9.97488933 [kJ/mol]
      Disp20                       -4.30833867 [mEh]      -2.70352344 [kcal/mol]     -11.31154317 [kJ/mol]
      Exch-Disp20                   0.50910449 [mEh]       0.31946791 [kcal/mol]       1.33665385 [kJ/mol]

  Total HF                         17.18095176 [mEh]      10.78121045 [kcal/mol]      45.10858884 [kJ/mol]
  Total SAPT0                      13.38171758 [mEh]       8.39715491 [kcal/mol]      35.13369951 [kJ/mol]

  --------------------------------------------------------------------------------------------------------
    Han Solo: This is *not* gonna work.
    Luke Skywalker: Why didn't you say so before?
    Han Solo: I *did* say so before.

*** tstop() called on ThinkPad-P50 at Tue Dec 12 11:30:59 2017
Module time:
	user time   =     892.52 seconds =      14.88 minutes
	system time =       7.21 seconds =       0.12 minutes
	total time  =        911 seconds =      15.18 minutes
Total time:
	user time   =    1192.51 seconds =      19.88 minutes
	system time =       9.45 seconds =       0.16 minutes
	total time  =       1216 seconds =      20.27 minutes

*** Psi4 exiting successfully. Buy a developer a beer!
