
    -----------------------------------------------------------------------
          Psi4: An Open-Source Ab Initio Electronic Structure Package
                               Psi4 1.1 release

                         Git: Rev {HEAD} add49b9 


    R. M. Parrish, L. A. Burns, D. G. A. Smith, A. C. Simmonett,
    A. E. DePrince III, E. G. Hohenstein, U. Bozkaya, A. Yu. Sokolov,
    R. Di Remigio, R. M. Richard, J. F. Gonthier, A. M. James,
    H. R. McAlexander, A. Kumar, M. Saitow, X. Wang, B. P. Pritchard,
    P. Verma, H. F. Schaefer III, K. Patkowski, R. A. King, E. F. Valeev,
    F. A. Evangelista, J. M. Turney, T. D. Crawford, and C. D. Sherrill,
    J. Chem. Theory Comput. in press (2017).
    (doi: 10.1021/acs.jctc.7b00174)

    -----------------------------------------------------------------------


    Psi4 started on: Thursday, 19 October 2017 09:17AM

    Process ID:  18570
    PSIDATADIR: /opt/software/psi4/psi4conda/share/psi4
    Memory:     500.0 MiB
    Threads:    48
    
  ==> Input File <==

--------------------------------------------------------------------------
memory 750000 mb

molecule mol {
0 1
C         -3.55453       -0.03100        0.21310
H         -3.82482        0.39983       -0.75303
H         -3.55701        0.78971        0.93431
H         -4.32733       -0.74403        0.50637
--
0 1
C         -1.02621        1.47042       -0.11431
O         -1.80499        2.10249       -0.78581
O         -0.07613        2.03904        0.65824
C          0.08678        3.46089        0.50952
H         -0.84634        3.97930        0.73298
H          0.39771        3.69375       -0.51017
H          0.86119        3.73902        1.22095
--
0 1
C          1.56048       -2.89066       -0.09736
H          1.35406       -3.95285       -0.24028
H          2.16661       -2.55186       -0.94174
H          2.16704       -2.77683        0.80435
C          1.48890        0.05139       -0.33645
O          1.68370        0.71553       -1.32602
O          2.39815       -0.12048        0.64012
C          3.65460        0.55648        0.45033
H          4.14522        0.20399       -0.45833
H          4.24940        0.31470        1.32819
H          3.49529        1.63313        0.37712
C          0.22571       -0.71168       -0.06405
C         -0.99880       -0.02155       -0.00552
C          0.26968       -2.11331        0.00984
C         -0.94072       -2.79111        0.16314
C         -2.14927       -2.11075        0.23717
C         -2.21211       -0.71942        0.14374
H         -3.06939       -2.67168        0.36259
H         -0.93576       -3.87474        0.21806

symmetry c1
no_reorient
no_com
}

set {
basis jun-cc-pvdz
scf_type df
guess sad
freeze_core true
}

energy('fisapt0')
--------------------------------------------------------------------------

  Memory set to 698.492 GiB by Python driver.

*** tstart() called on vega02.cac.cornell.edu
*** at Thu Oct 19 09:17:42 2017

   => Loading Basis Set <=

    Name: JUN-CC-PVDZ
    Role: ORBITAL
    Keyword: BASIS
    atoms 1, 5, 8, 12, 16, 19, 23-28     entry C          line   157 file /opt/software/psi4/psi4conda/share/psi4/basis/jun-cc-pvdz.gbs 
    atoms 2-4, 9-11, 13-15, 20-22, 29-30 entry H          line    35 file /opt/software/psi4/psi4conda/share/psi4/basis/jun-cc-pvdz.gbs 
    atoms 6-7, 17-18                     entry O          line   225 file /opt/software/psi4/psi4conda/share/psi4/basis/jun-cc-pvdz.gbs 


         ---------------------------------------------------------
                                   SCF
            by Justin Turney, Rob Parrish, and Andy Simmonett
                              RHF Reference
                       48 Threads, 715255 MiB Core
         ---------------------------------------------------------

  ==> Geometry <==

    Molecular point group: c1
    Full point group: C1

    Geometry (in Angstrom), charge = 0, multiplicity = 1:

       Center              X                  Y                   Z               Mass       
    ------------   -----------------  -----------------  -----------------  -----------------
           C         -3.554530000000    -0.031000000000     0.213100000000    12.000000000000
           H         -3.824820000000     0.399830000000    -0.753030000000     1.007825032070
           H         -3.557010000000     0.789710000000     0.934310000000     1.007825032070
           H         -4.327330000000    -0.744030000000     0.506370000000     1.007825032070
           C         -1.026210000000     1.470420000000    -0.114310000000    12.000000000000
           O         -1.804990000000     2.102490000000    -0.785810000000    15.994914619560
           O         -0.076130000000     2.039040000000     0.658240000000    15.994914619560
           C          0.086780000000     3.460890000000     0.509520000000    12.000000000000
           H         -0.846340000000     3.979300000000     0.732980000000     1.007825032070
           H          0.397710000000     3.693750000000    -0.510170000000     1.007825032070
           H          0.861190000000     3.739020000000     1.220950000000     1.007825032070
           C          1.560480000000    -2.890660000000    -0.097360000000    12.000000000000
           H          1.354060000000    -3.952850000000    -0.240280000000     1.007825032070
           H          2.166610000000    -2.551860000000    -0.941740000000     1.007825032070
           H          2.167040000000    -2.776830000000     0.804350000000     1.007825032070
           C          1.488900000000     0.051390000000    -0.336450000000    12.000000000000
           O          1.683700000000     0.715530000000    -1.326020000000    15.994914619560
           O          2.398150000000    -0.120480000000     0.640120000000    15.994914619560
           C          3.654600000000     0.556480000000     0.450330000000    12.000000000000
           H          4.145220000000     0.203990000000    -0.458330000000     1.007825032070
           H          4.249400000000     0.314700000000     1.328190000000     1.007825032070
           H          3.495290000000     1.633130000000     0.377120000000     1.007825032070
           C          0.225710000000    -0.711680000000    -0.064050000000    12.000000000000
           C         -0.998800000000    -0.021550000000    -0.005520000000    12.000000000000
           C          0.269680000000    -2.113310000000     0.009840000000    12.000000000000
           C         -0.940720000000    -2.791110000000     0.163140000000    12.000000000000
           C         -2.149270000000    -2.110750000000     0.237170000000    12.000000000000
           C         -2.212110000000    -0.719420000000     0.143740000000    12.000000000000
           H         -3.069390000000    -2.671680000000     0.362590000000     1.007825032070
           H         -0.935760000000    -3.874740000000     0.218060000000     1.007825032070

  Running in c1 symmetry.

  Rotational constants: A =      0.02107  B =      0.01884  C =      0.01082 [cm^-1]
  Rotational constants: A =    631.65009  B =    564.66225  C =    324.31289 [MHz]
  Nuclear repulsion = 1141.563206009396936

  Charge       = 0
  Multiplicity = 1
  Electrons    = 118
  Nalpha       = 59
  Nbeta        = 59

  ==> Algorithm <==

  SCF Algorithm Type is DF.
  DIIS enabled.
  MOM disabled.
  Fractional occupation disabled.
  Guess Type is SAD.
  Energy threshold   = 1.00e-08
  Density threshold  = 1.00e-08
  Integral threshold = 0.00e+00

  ==> Primary Basis <==

  Basis Set: JUN-CC-PVDZ
    Blend: JUN-CC-PVDZ
    Number of shells: 170
    Number of basis function: 358
    Number of Cartesian functions: 374
    Spherical Harmonics?: true
    Max angular momentum: 2

   => Loading Basis Set <=

    Name: (JUN-CC-PVDZ AUX)
    Role: JKFIT
    Keyword: DF_BASIS_SCF
    atoms 1, 5, 8, 12, 16, 19, 23-28     entry C          line   145 file /opt/software/psi4/psi4conda/share/psi4/basis/jun-cc-pvdz-jkfit.gbs 
    atoms 2-4, 9-11, 13-15, 20-22, 29-30 entry H          line    69 file /opt/software/psi4/psi4conda/share/psi4/basis/jun-cc-pvdz-jkfit.gbs 
    atoms 6-7, 17-18                     entry O          line   257 file /opt/software/psi4/psi4conda/share/psi4/basis/jun-cc-pvdz-jkfit.gbs 

  ==> Pre-Iterations <==

   -------------------------------------------------------
    Irrep   Nso     Nmo     Nalpha   Nbeta   Ndocc  Nsocc
   -------------------------------------------------------
     A        358     358       0       0       0       0
   -------------------------------------------------------
    Total     358     358      59      59      59       0
   -------------------------------------------------------

  ==> Integral Setup <==

  ==> DFJK: Density-Fitted J/K Matrices <==

    J tasked:                  Yes
    K tasked:                  Yes
    wK tasked:                  No
    OpenMP threads:             48
    Integrals threads:          48
    Memory (MB):            536441
    Algorithm:                Core
    Integral Cache:           NONE
    Schwarz Cutoff:          1E-12
    Fitting Condition:       1E-12

   => Auxiliary Basis Set <=

  Basis Set: (JUN-CC-PVDZ AUX)
    Blend: JUN-CC-PVDZ-JKFIT
    Number of shells: 558
    Number of basis function: 1586
    Number of Cartesian functions: 1806
    Spherical Harmonics?: true
    Max angular momentum: 3

  Minimum eigenvalue in the overlap matrix is 3.1397645988E-06.
  Using Symmetric Orthogonalization.

  SCF Guess: Superposition of Atomic Densities via on-the-fly atomic UHF.

  ==> Iterations <==

                           Total Energy        Delta E     RMS |[F,P]|

   @DF-RHF iter   0:  -768.30389194188888   -7.68304e+02   1.04903e-01 
   @DF-RHF iter   1:  -761.64226202453369    6.66163e+00   9.97861e-03 
   @DF-RHF iter   2:  -762.00488105193608   -3.62619e-01   6.66226e-03 DIIS
   @DF-RHF iter   3:  -762.09781117959415   -9.29301e-02   2.40429e-03 DIIS
   @DF-RHF iter   4:  -762.11792282074771   -2.01116e-02   6.88862e-04 DIIS
   @DF-RHF iter   5:  -762.12006427357937   -2.14145e-03   2.71447e-04 DIIS
   @DF-RHF iter   6:  -762.12058396974567   -5.19696e-04   9.78431e-05 DIIS
   @DF-RHF iter   7:  -762.12067081265502   -8.68429e-05   3.71928e-05 DIIS
   @DF-RHF iter   8:  -762.12068172586851   -1.09132e-05   2.06513e-05 DIIS
   @DF-RHF iter   9:  -762.12068370008637   -1.97422e-06   6.79726e-06 DIIS
   @DF-RHF iter  10:  -762.12068412358587   -4.23500e-07   2.19379e-06 DIIS
   @DF-RHF iter  11:  -762.12068419706350   -7.34776e-08   8.62888e-07 DIIS
   @DF-RHF iter  12:  -762.12068420764967   -1.05862e-08   3.17911e-07 DIIS
   @DF-RHF iter  13:  -762.12068420929779   -1.64812e-09   1.56108e-07 DIIS
   @DF-RHF iter  14:  -762.12068420949618   -1.98384e-10   6.36217e-08 DIIS
   @DF-RHF iter  15:  -762.12068420952414   -2.79670e-11   2.67109e-08 DIIS
   @DF-RHF iter  16:  -762.12068420952880   -4.66116e-12   1.52533e-08 DIIS
   @DF-RHF iter  17:  -762.12068420953108   -2.27374e-12   4.71955e-09 DIIS

  ==> Post-Iterations <==

    Orbital Energies (a.u.)
    -----------------------

    Doubly Occupied:                                                      

       1A    -20.615395     2A    -20.610936     3A    -20.559523  
       4A    -20.556166     5A    -11.398395     6A    -11.394232  
       7A    -11.299709     8A    -11.293680     9A    -11.271969  
      10A    -11.268520    11A    -11.265178    12A    -11.264827  
      13A    -11.254161    14A    -11.250520    15A    -11.240204  
      16A    -11.231797    17A     -1.473222    18A     -1.465642  
      19A     -1.370267    20A     -1.366185    21A     -1.183683  
      22A     -1.086153    23A     -1.063939    24A     -0.994356  
      25A     -0.986489    26A     -0.970169    27A     -0.914883  
      28A     -0.877991    29A     -0.836980    30A     -0.780757  
      31A     -0.772934    32A     -0.721927    33A     -0.711954  
      34A     -0.697772    35A     -0.681945    36A     -0.675679  
      37A     -0.664705    38A     -0.653681    39A     -0.642448  
      40A     -0.605692    41A     -0.595935    42A     -0.582930  
      43A     -0.575763    44A     -0.568411    45A     -0.563423  
      46A     -0.553840    47A     -0.544012    48A     -0.541538  
      49A     -0.535461    50A     -0.529874    51A     -0.516456  
      52A     -0.504805    53A     -0.489180    54A     -0.469540  
      55A     -0.460677    56A     -0.455137    57A     -0.447324  
      58A     -0.352629    59A     -0.330970  

    Virtual:                                                              

      60A      0.051817    61A      0.055567    62A      0.059450  
      63A      0.067971    64A      0.075514    65A      0.078191  
      66A      0.084525    67A      0.094279    68A      0.095064  
      69A      0.099854    70A      0.104074    71A      0.106720  
      72A      0.116066    73A      0.118832    74A      0.120811  
      75A      0.123682    76A      0.133637    77A      0.135836  
      78A      0.147475    79A      0.149385    80A      0.152298  
      81A      0.163048    82A      0.166759    83A      0.170710  
      84A      0.176179    85A      0.182126    86A      0.188887  
      87A      0.194639    88A      0.198308    89A      0.201946  
      90A      0.210270    91A      0.213357    92A      0.221193  
      93A      0.224115    94A      0.230717    95A      0.233373  
      96A      0.242043    97A      0.246091    98A      0.248158  
      99A      0.254841   100A      0.261033   101A      0.265606  
     102A      0.269982   103A      0.273447   104A      0.276513  
     105A      0.289910   106A      0.296729   107A      0.301275  
     108A      0.305313   109A      0.314176   110A      0.319783  
     111A      0.324216   112A      0.326888   113A      0.330332  
     114A      0.336821   115A      0.341061   116A      0.343048  
     117A      0.347856   118A      0.357078   119A      0.358683  
     120A      0.365668   121A      0.375603   122A      0.378160  
     123A      0.384408   124A      0.386038   125A      0.398015  
     126A      0.399667   127A      0.407482   128A      0.412090  
     129A      0.422860   130A      0.423863   131A      0.431148  
     132A      0.433079   133A      0.434636   134A      0.440141  
     135A      0.448257   136A      0.452593   137A      0.458867  
     138A      0.463596   139A      0.472726   140A      0.486345  
     141A      0.491924   142A      0.496286   143A      0.501277  
     144A      0.510952   145A      0.523116   146A      0.538599  
     147A      0.552346   148A      0.554158   149A      0.562248  
     150A      0.571811   151A      0.600378   152A      0.620974  
     153A      0.634623   154A      0.653897   155A      0.703575  
     156A      0.712069   157A      0.748246   158A      0.756769  
     159A      0.770531   160A      0.776067   161A      0.789295  
     162A      0.796983   163A      0.824479   164A      0.828212  
     165A      0.832060   166A      0.845681   167A      0.851866  
     168A      0.861102   169A      0.884897   170A      0.888617  
     171A      0.892749   172A      0.907560   173A      0.910374  
     174A      0.914464   175A      0.917394   176A      0.920942  
     177A      0.925677   178A      0.929528   179A      0.932097  
     180A      0.945126   181A      0.947541   182A      0.955306  
     183A      0.956349   184A      0.963481   185A      0.970518  
     186A      0.972500   187A      0.983796   188A      0.988882  
     189A      1.002866   190A      1.005329   191A      1.007682  
     192A      1.013024   193A      1.019832   194A      1.035806  
     195A      1.050034   196A      1.062802   197A      1.071702  
     198A      1.089026   199A      1.104963   200A      1.114670  
     201A      1.139148   202A      1.143724   203A      1.146896  
     204A      1.164477   205A      1.181699   206A      1.205135  
     207A      1.211190   208A      1.230057   209A      1.246429  
     210A      1.253362   211A      1.277081   212A      1.283298  
     213A      1.290455   214A      1.301429   215A      1.317507  
     216A      1.326600   217A      1.334780   218A      1.345288  
     219A      1.363270   220A      1.376767   221A      1.380363  
     222A      1.423482   223A      1.433915   224A      1.468467  
     225A      1.489831   226A      1.501487   227A      1.526496  
     228A      1.529848   229A      1.546822   230A      1.552880  
     231A      1.564742   232A      1.578965   233A      1.589158  
     234A      1.597331   235A      1.602421   236A      1.608759  
     237A      1.637347   238A      1.646052   239A      1.657372  
     240A      1.661489   241A      1.668463   242A      1.678261  
     243A      1.688041   244A      1.689496   245A      1.712218  
     246A      1.721750   247A      1.724902   248A      1.748944  
     249A      1.767092   250A      1.779289   251A      1.797345  
     252A      1.805440   253A      1.815745   254A      1.829751  
     255A      1.839144   256A      1.863342   257A      1.877881  
     258A      1.899332   259A      1.909142   260A      1.918708  
     261A      1.930675   262A      1.938892   263A      1.944719  
     264A      1.954157   265A      1.958990   266A      1.967587  
     267A      1.975538   268A      1.985250   269A      1.989273  
     270A      2.001512   271A      2.008094   272A      2.016298  
     273A      2.020543   274A      2.025086   275A      2.036741  
     276A      2.043480   277A      2.049684   278A      2.051633  
     279A      2.059068   280A      2.084329   281A      2.104316  
     282A      2.116426   283A      2.125355   284A      2.143943  
     285A      2.154843   286A      2.159102   287A      2.180719  
     288A      2.190114   289A      2.200757   290A      2.221941  
     291A      2.224890   292A      2.273448   293A      2.281308  
     294A      2.292403   295A      2.308304   296A      2.336403  
     297A      2.362068   298A      2.370510   299A      2.390250  
     300A      2.395381   301A      2.403011   302A      2.414909  
     303A      2.425312   304A      2.430344   305A      2.434645  
     306A      2.453960   307A      2.500195   308A      2.506374  
     309A      2.545449   310A      2.561230   311A      2.572632  
     312A      2.594289   313A      2.604358   314A      2.624850  
     315A      2.666414   316A      2.716281   317A      2.736446  
     318A      2.758455   319A      2.776402   320A      2.791409  
     321A      2.805700   322A      2.815785   323A      2.847354  
     324A      2.852926   325A      2.858228   326A      2.870496  
     327A      2.874349   328A      2.879610   329A      2.895639  
     330A      2.906056   331A      2.918518   332A      2.929751  
     333A      2.974203   334A      3.017069   335A      3.040375  
     336A      3.057156   337A      3.077412   338A      3.103435  
     339A      3.123954   340A      3.135083   341A      3.201214  
     342A      3.265531   343A      3.271787   344A      3.291590  
     345A      3.316160   346A      3.384937   347A      3.417261  
     348A      3.571039   349A      3.579627   350A      3.644975  
     351A      3.686281   352A      3.746479   353A      3.784337  
     354A      3.793415   355A      3.943105   356A      3.950615  
     357A      4.066180   358A      4.075520  

    Final Occupation by Irrep:
              A 
    DOCC [    59 ]

  Energy converged.

  @DF-RHF Final Energy:  -762.12068420953108

   => Energetics <=

    Nuclear Repulsion Energy =           1141.5632060093969358
    One-Electron Energy =               -3308.1826389502452912
    Two-Electron Energy =                1404.4987487313169368
    DFT Exchange-Correlation Energy =       0.0000000000000000
    Empirical Dispersion Energy =           0.0000000000000000
    PCM Polarization Energy =               0.0000000000000000
    EFP Energy =                            0.0000000000000000
    Total Energy =                       -762.1206842095311913



Properties will be evaluated at   0.000000,   0.000000,   0.000000 Bohr

Properties computed using the SCF density matrix

  Nuclear Dipole Moment: (a.u.)
     X:    -3.1960      Y:     1.8373      Z:     7.0459

  Electronic Dipole Moment: (a.u.)
     X:     3.8460      Y:    -2.4757      Z:    -5.9911

  Dipole Moment: (a.u.)
     X:     0.6501      Y:    -0.6384      Z:     1.0547     Total:     1.3937

  Dipole Moment: (Debye)
     X:     1.6523      Y:    -1.6226      Z:     2.6808     Total:     3.5425


*** tstop() called on vega02.cac.cornell.edu at Thu Oct 19 09:18:14 2017
Module time:
	user time   =     701.24 seconds =      11.69 minutes
	system time =       6.45 seconds =       0.11 minutes
	total time  =         32 seconds =       0.53 minutes
Total time:
	user time   =     701.24 seconds =      11.69 minutes
	system time =       6.45 seconds =       0.11 minutes
	total time  =         32 seconds =       0.53 minutes
   => Loading Basis Set <=

    Name: (JUN-CC-PVDZ AUX)
    Role: JKFIT
    Keyword: DF_BASIS_SCF
    atoms 1, 5, 8, 12, 16, 19, 23-28     entry C          line   145 file /opt/software/psi4/psi4conda/share/psi4/basis/jun-cc-pvdz-jkfit.gbs 
    atoms 2-4, 9-11, 13-15, 20-22, 29-30 entry H          line    69 file /opt/software/psi4/psi4conda/share/psi4/basis/jun-cc-pvdz-jkfit.gbs 
    atoms 6-7, 17-18                     entry O          line   257 file /opt/software/psi4/psi4conda/share/psi4/basis/jun-cc-pvdz-jkfit.gbs 

   => Loading Basis Set <=

    Name: (JUN-CC-PVDZ AUX)
    Role: RIFIT
    Keyword: DF_BASIS_SAPT
    atoms 1, 5, 8, 12, 16, 19, 23-28     entry C          line    99 file /opt/software/psi4/psi4conda/share/psi4/basis/jun-cc-pvdz-ri.gbs 
    atoms 2-4, 9-11, 13-15, 20-22, 29-30 entry H          line    29 file /opt/software/psi4/psi4conda/share/psi4/basis/jun-cc-pvdz-ri.gbs 
    atoms 6-7, 17-18                     entry O          line   187 file /opt/software/psi4/psi4conda/share/psi4/basis/jun-cc-pvdz-ri.gbs 

   => Loading Basis Set <=

    Name: CC-PVTZ-MINAO
    Role: ORBITAL
    Keyword: BASIS
    atoms 1, 5, 8, 12, 16, 19, 23-28     entry C          line   130 file /opt/software/psi4/psi4conda/share/psi4/basis/cc-pvtz-minao.gbs 
    atoms 2-4, 9-11, 13-15, 20-22, 29-30 entry H          line    19 file /opt/software/psi4/psi4conda/share/psi4/basis/cc-pvtz-minao.gbs 
    atoms 6-7, 17-18                     entry O          line   190 file /opt/software/psi4/psi4conda/share/psi4/basis/cc-pvtz-minao.gbs 


*** tstart() called on vega02.cac.cornell.edu
*** at Thu Oct 19 09:18:15 2017

	 --------------------------------------------
	                    FISAPT0                  
	                  Rob Parrish                
	 --------------------------------------------

    Do F-SAPT =         Yes
    Do Plot   =          No
    Memory    =      78.580 [GD]

  ==> Localization (IBO) <==

  ==> IBO Localizer 2 <==

    MinAO Basis = CC-PVTZ-MINAO
    Use Ghosts  =       FALSE
    Use Stars   =       FALSE
    Condition   =   1.000E-07
    Power       =           4
    Convergence =   1.000E-12
    Maxiter     =        1000

    @IBO Iter:                   Metric       Gradient
    @IBO    1:   1.9786491727206450E+00   3.088859E+00
    @IBO    2:   2.2083481442136255E+00   2.040102E+00
    @IBO    3:   2.2795936506729637E+00   9.452492E-01
    @IBO    4:   2.2879482227381107E+00   1.636360E-01
    @IBO    5:   2.2881199436597837E+00   3.654716E-03
    @IBO    6:   2.2881200722675468E+00   2.173521E-04
    @IBO    7:   2.2881200739739604E+00   4.503989E-05
    @IBO    8:   2.2881200740478871E+00   1.038797E-05
    @IBO    9:   2.2881200740519367E+00   2.501190E-06
    @IBO   10:   2.2881200740521903E+00   6.220227E-07
    @IBO   11:   2.2881200740522076E+00   1.591162E-07
    @IBO   12:   2.2881200740522090E+00   4.163654E-08
    @IBO   13:   2.2881200740522094E+00   1.107291E-08
    @IBO   14:   2.2881200740522090E+00   2.974992E-09
    @IBO   15:   2.2881200740522085E+00   8.038576E-10
    @IBO   16:   2.2881200740522094E+00   2.177860E-10
    @IBO   17:   2.2881200740522094E+00   5.905347E-11
    @IBO   18:   2.2881200740522085E+00   1.600981E-11
    @IBO   19:   2.2881200740522090E+00   4.337433E-12
    @IBO   20:   2.2881200740522090E+00   1.174102E-12
    @IBO   21:   2.2881200740522090E+00   3.175024E-13

    IBO Localizer 2 converged.

  ==> Partitioning <==

   => Atomic Partitioning <= 

    Monomer A:   4 atoms
    Monomer B:   7 atoms
    Monomer C:  19 atoms

   => Link Bond Identification <=

    Link Bond Selection = AUTOMATIC

    Charge Completeness = 0.800

    Total Link Bonds = 2

    --------------------------
    N     Orb Type Aind1 Aind2
    --------------------------
    1      18   BC     5    24
    2      33   AC     1    28
    --------------------------

   => Link Bond Assignment <=

    Link Bond Assignment      = C

   => Partition Summary <=

    Monomer A:  0 charge,   8 protons,   8 electrons,   4 docc
    Monomer B:  0 charge,  30 protons,  30 electrons,  15 docc
    Monomer C:  0 charge,  80 protons,  80 electrons,  40 docc

  ==> Overlap Integrals <==

  ==> Kinetic Integrals <==

  ==> Nuclear Integrals <==

    Nuclear Repulsion Tot:   1.1415632060093963E+03 [Eh]

  ==> Coulomb Integrals <==

  ==> DFJK: Density-Fitted J/K Matrices <==

    J tasked:                  Yes
    K tasked:                  Yes
    wK tasked:                  No
    OpenMP threads:             48
    Integrals threads:          48
    Memory (MB):            643730
    Algorithm:                Core
    Integral Cache:           NONE
    Schwarz Cutoff:          1E-12
    Fitting Condition:       1E-12

   => Auxiliary Basis Set <=

  Basis Set: (JUN-CC-PVDZ AUX)
    Blend: JUN-CC-PVDZ-JKFIT
    Number of shells: 558
    Number of basis function: 1586
    Number of Cartesian functions: 1806
    Spherical Harmonics?: true
    Max angular momentum: 3

  ==> Relaxed SCF Equations <==

  ==> SCF A: <==

    Maxiter =          50
    E Tol   =   1.000E-06
    D Tol   =   1.000E-08

    Max DIIS Vectors = 5

    Iter   N:                        E          dE         |D|
    Iter   1:  -3.6314533261224980E+01  -3.631E+01   1.239E-03 
    Iter   2:  -3.6316813146260330E+01  -2.280E-03   1.673E-04 DIIS
    Iter   3:  -3.6316875171733585E+01  -6.203E-05   3.777E-05 DIIS
    Iter   4:  -3.6316878989479633E+01  -3.818E-06   8.800E-06 DIIS
    Iter   5:  -3.6316879207062371E+01  -2.176E-07   1.722E-06 DIIS
    Iter   6:  -3.6316879216043496E+01  -8.981E-09   2.518E-07 DIIS
    Iter   7:  -3.6316879216257448E+01  -2.140E-10   2.439E-08 DIIS
    Iter   8:  -3.6316879216260915E+01  -3.467E-12   4.283E-09 DIIS

    FISAPTSCF Converged.

    Final SCF Energy:  -3.6316879216260915E+01 [Eh]

   => Occupied Orbital Energies <=

       1  -11.233661     2   -0.848501     3   -0.557304  
       4   -0.553433  

   => Virtual Orbital Energies <=

       5    0.036352     6    0.053117     7    0.056495  
       8    0.066381     9    0.073006    10    0.079560  
      11    0.086883    12    0.093856    13    0.097650  
      14    0.098538    15    0.105192    16    0.108263  
      17    0.115612    18    0.119018    19    0.124232  
      20    0.130451    21    0.132862    22    0.135607  
      23    0.146723    24    0.149789    25    0.154288  
      26    0.159723    27    0.163125    28    0.164256  
      29    0.171198    30    0.180925    31    0.187757  
      32    0.194702    33    0.196847    34    0.199804  
      35    0.207621    36    0.210748    37    0.217020  
      38    0.222039    39    0.229289    40    0.232366  
      41    0.241845    42    0.242731    43    0.252105  
      44    0.253554    45    0.259299    46    0.264340  
      47    0.272461    48    0.279713    49    0.282242  
      50    0.283127    51    0.291205    52    0.298116  
      53    0.303129    54    0.309338    55    0.316591  
      56    0.320436    57    0.329330    58    0.332691  
      59    0.334496    60    0.337886    61    0.338836  
      62    0.346702    63    0.350522    64    0.358238  
      65    0.362951    66    0.364941    67    0.377269  
      68    0.384647    69    0.390047    70    0.394384  
      71    0.406027    72    0.408093    73    0.413405  
      74    0.420565    75    0.426463    76    0.431534  
      77    0.435609    78    0.447010    79    0.452579  
      80    0.456933    81    0.461347    82    0.470040  
      83    0.486766    84    0.489649    85    0.495106  
      86    0.501374    87    0.511861    88    0.523459  
      89    0.525545    90    0.535920    91    0.551697  
      92    0.560210    93    0.571004    94    0.593609  
      95    0.607277    96    0.629845    97    0.630678  
      98    0.633144    99    0.659199   100    0.670510  
     101    0.712083   102    0.717305   103    0.729122  
     104    0.759589   105    0.772346   106    0.778315  
     107    0.783452   108    0.794550   109    0.815349  
     110    0.830331   111    0.842689   112    0.847310  
     113    0.858457   114    0.883731   115    0.891510  
     116    0.900652   117    0.912398   118    0.924045  
     119    0.926777   120    0.930302   121    0.932445  
     122    0.934179   123    0.942432   124    0.951217  
     125    0.956803   126    0.959474   127    0.964354  
     128    0.970895   129    0.980005   130    0.986814  
     131    0.987718   132    0.998597   133    1.011022  
     134    1.027311   135    1.029608   136    1.041399  
     137    1.043667   138    1.062956   139    1.078968  
     140    1.084573   141    1.099454   142    1.107556  
     143    1.131576   144    1.137611   145    1.147979  
     146    1.160424   147    1.175183   148    1.184605  
     149    1.207040   150    1.219789   151    1.225373  
     152    1.227157   153    1.245376   154    1.267306  
     155    1.282145   156    1.304954   157    1.315513  
     158    1.320101   159    1.336231   160    1.344960  
     161    1.353539   162    1.376782   163    1.388953  
     164    1.418079   165    1.448286   166    1.461253  
     167    1.518097   168    1.527391   169    1.542956  
     170    1.551035   171    1.557238   172    1.566311  
     173    1.585260   174    1.593453   175    1.605981  
     176    1.626342   177    1.631399   178    1.649406  
     179    1.661330   180    1.674727   181    1.680051  
     182    1.690613   183    1.692456   184    1.704799  
     185    1.727596   186    1.729196   187    1.746084  
     188    1.781268   189    1.796638   190    1.806347  
     191    1.824575   192    1.834849   193    1.839506  
     194    1.846985   195    1.854225   196    1.878796  
     197    1.900151   198    1.917528   199    1.928556  
     200    1.933660   201    1.943105   202    1.951429  
     203    1.962140   204    1.977199   205    1.984589  
     206    1.992806   207    1.999770   208    2.010458  
     209    2.013733   210    2.025552   211    2.034863  
     212    2.041976   213    2.054296   214    2.060301  
     215    2.073236   216    2.077955   217    2.094087  
     218    2.110530   219    2.123099   220    2.131218  
     221    2.139506   222    2.157654   223    2.160785  
     224    2.166123   225    2.173954   226    2.198230  
     227    2.220246   228    2.238053   229    2.254388  
     230    2.276953   231    2.296035   232    2.307420  
     233    2.314637   234    2.328474   235    2.336930  
     236    2.354679   237    2.368559   238    2.381593  
     239    2.387244   240    2.395279   241    2.411473  
     242    2.425715   243    2.435429   244    2.441665  
     245    2.461358   246    2.511003   247    2.512224  
     248    2.530047   249    2.563642   250    2.573652  
     251    2.578694   252    2.607632   253    2.634434  
     254    2.649129   255    2.658896   256    2.673758  
     257    2.710604   258    2.733344   259    2.736578  
     260    2.756619   261    2.789671   262    2.809657  
     263    2.825160   264    2.846786   265    2.853605  
     266    2.858797   267    2.874336   268    2.874958  
     269    2.881931   270    2.894923   271    2.901815  
     272    2.914331   273    2.923484   274    2.948620  
     275    2.961272   276    3.008097   277    3.038139  
     278    3.047372   279    3.083538   280    3.113636  
     281    3.130135   282    3.184211   283    3.236428  
     284    3.273448   285    3.325491   286    3.391088  
     287    3.445483   288    3.584165   289    3.617100  
     290    3.680275   291    3.716695   292    3.791707  
     293    3.858762   294    3.946891   295    3.969076  
     296    4.089866   297    4.150394   298    4.206115  
     299    4.444854   300    4.513656   301    4.563043  
     302    4.764957   303    4.937546   304    5.051725  
     305    5.068720   306    5.181618   307    5.321961  
     308    5.519315   309    5.641145   310    5.739116  
     311    5.842331   312    6.105181   313    6.325139  
     314    6.705762   315   13.378085   316   18.430523  
     317   33.424610   318   33.475195  

  ==> SCF B: <==

    Maxiter =          50
    E Tol   =   1.000E-06
    D Tol   =   1.000E-08

    Max DIIS Vectors = 5

    Iter   N:                        E          dE         |D|
    Iter   1:  -2.2410144543809017E+02  -2.241E+02   3.825E-03 
    Iter   2:  -2.2411227028845977E+02  -1.082E-02   4.080E-04 DIIS
    Iter   3:  -2.2411267858837758E+02  -4.083E-04   9.493E-05 DIIS
    Iter   4:  -2.2411271216422173E+02  -3.358E-05   4.314E-05 DIIS
    Iter   5:  -2.2411272039222547E+02  -8.228E-06   7.955E-06 DIIS
    Iter   6:  -2.2411272086670166E+02  -4.745E-07   4.893E-06 DIIS
    Iter   7:  -2.2411272094298334E+02  -7.628E-08   1.563E-06 DIIS
    Iter   8:  -2.2411272096409471E+02  -2.111E-08   5.930E-07 DIIS
    Iter   9:  -2.2411272096745330E+02  -3.359E-09   2.572E-07 DIIS
    Iter  10:  -2.2411272096795514E+02  -5.018E-10   1.021E-07 DIIS
    Iter  11:  -2.2411272096803145E+02  -7.631E-11   4.286E-08 DIIS
    Iter  12:  -2.2411272096803617E+02  -4.718E-12   1.448E-08 DIIS
    Iter  13:  -2.2411272096803719E+02  -1.023E-12   8.558E-09 DIIS

    FISAPTSCF Converged.

    Final SCF Energy:  -2.2411272096803719E+02 [Eh]

   => Occupied Orbital Energies <=

       1  -20.606389     2  -20.550804     3  -11.389800  
       4  -11.290689     5   -1.437762     6   -1.357300  
       7   -0.959268     8   -0.765144     9   -0.670241  
      10   -0.660387    11   -0.620687    12   -0.539530  
      13   -0.534046    14   -0.474232    15   -0.460012  

   => Virtual Orbital Energies <=

      16    0.013867    17    0.054069    18    0.058859  
      19    0.067655    20    0.072600    21    0.084143  
      22    0.088541    23    0.092080    24    0.096711  
      25    0.098769    26    0.102483    27    0.105352  
      28    0.112368    29    0.117715    30    0.120239  
      31    0.123725    32    0.132010    33    0.132628  
      34    0.138197    35    0.149693    36    0.154772  
      37    0.155852    38    0.163243    39    0.167937  
      40    0.173200    41    0.178562    42    0.187728  
      43    0.193809    44    0.198653    45    0.202206  
      46    0.208806    47    0.214980    48    0.216012  
      49    0.224708    50    0.227816    51    0.236582  
      52    0.239632    53    0.243545    54    0.251380  
      55    0.253124    56    0.256826    57    0.263973  
      58    0.274528    59    0.276720    60    0.279559  
      61    0.291049    62    0.298753    63    0.302872  
      64    0.304855    65    0.311290    66    0.317600  
      67    0.326639    68    0.331424    69    0.334376  
      70    0.341088    71    0.345579    72    0.346883  
      73    0.350217    74    0.358148    75    0.363894  
      76    0.369967    77    0.372773    78    0.376253  
      79    0.380503    80    0.390355    81    0.396188  
      82    0.400162    83    0.404686    84    0.409562  
      85    0.420209    86    0.424349    87    0.427550  
      88    0.438819    89    0.441736    90    0.448244  
      91    0.450557    92    0.458123    93    0.461439  
      94    0.467033    95    0.475141    96    0.486303  
      97    0.496006    98    0.499556    99    0.502843  
     100    0.513886   101    0.532290   102    0.538248  
     103    0.555341   104    0.559217   105    0.577050  
     106    0.590945   107    0.596089   108    0.600648  
     109    0.623636   110    0.641813   111    0.651541  
     112    0.666635   113    0.685216   114    0.719612  
     115    0.727171   116    0.771530   117    0.780685  
     118    0.790331   119    0.800471   120    0.813643  
     121    0.830896   122    0.840473   123    0.854236  
     124    0.862641   125    0.868837   126    0.891353  
     127    0.898811   128    0.903589   129    0.918755  
     130    0.923032   131    0.925039   132    0.929964  
     133    0.936407   134    0.941553   135    0.946512  
     136    0.951704   137    0.957565   138    0.968882  
     139    0.970808   140    0.975572   141    0.989942  
     142    0.993299   143    1.012332   144    1.016127  
     145    1.018619   146    1.031926   147    1.038899  
     148    1.041719   149    1.063077   150    1.073893  
     151    1.085527   152    1.099023   153    1.113203  
     154    1.119918   155    1.153198   156    1.164079  
     157    1.175366   158    1.202489   159    1.216413  
     160    1.235222   161    1.240432   162    1.258706  
     163    1.275554   164    1.288875   165    1.299192  
     166    1.310083   167    1.321203   168    1.332211  
     169    1.343706   170    1.352708   171    1.366393  
     172    1.370876   173    1.385465   174    1.398100  
     175    1.415361   176    1.440195   177    1.475224  
     178    1.484348   179    1.487969   180    1.512523  
     181    1.517212   182    1.533995   183    1.554037  
     184    1.556843   185    1.572886   186    1.575938  
     187    1.594941   188    1.604877   189    1.614723  
     190    1.622600   191    1.647763   192    1.658429  
     193    1.661479   194    1.664789   195    1.672194  
     196    1.677546   197    1.686808   198    1.694403  
     199    1.713173   200    1.726076   201    1.745462  
     202    1.752098   203    1.768071   204    1.779181  
     205    1.799861   206    1.817624   207    1.841134  
     208    1.846628   209    1.854445   210    1.867033  
     211    1.874787   212    1.898486   213    1.904609  
     214    1.921864   215    1.931488   216    1.935675  
     217    1.944183   218    1.951447   219    1.967024  
     220    1.971722   221    1.981353   222    1.989494  
     223    1.999069   224    2.011079   225    2.014097  
     226    2.020551   227    2.028530   228    2.032280  
     229    2.041787   230    2.052144   231    2.058004  
     232    2.066968   233    2.068012   234    2.083110  
     235    2.105464   236    2.126353   237    2.143809  
     238    2.155282   239    2.163562   240    2.177478  
     241    2.182084   242    2.200182   243    2.214144  
     244    2.229829   245    2.245076   246    2.251069  
     247    2.275508   248    2.295875   249    2.325133  
     250    2.342812   251    2.362820   252    2.378494  
     253    2.392097   254    2.394845   255    2.398727  
     256    2.414320   257    2.420431   258    2.426147  
     259    2.436036   260    2.462829   261    2.466859  
     262    2.516845   263    2.527682   264    2.535661  
     265    2.561999   266    2.582808   267    2.620242  
     268    2.635476   269    2.641131   270    2.681446  
     271    2.715746   272    2.729391   273    2.749793  
     274    2.782574   275    2.786643   276    2.800339  
     277    2.812120   278    2.813036   279    2.840011  
     280    2.854178   281    2.862773   282    2.865887  
     283    2.874056   284    2.887149   285    2.903571  
     286    2.909431   287    2.920541   288    2.940711  
     289    3.010429   290    3.030554   291    3.051605  
     292    3.098377   293    3.108697   294    3.120887  
     295    3.135992   296    3.206405   297    3.243878  
     298    3.269795   299    3.281357   300    3.297301  
     301    3.323494   302    3.390328   303    3.427461  
     304    3.564205   305    3.581304   306    3.625768  
     307    3.676591   308    3.696008   309    3.788121  
     310    3.799350   311    3.926939   312    3.953053  
     313    4.053788   314    4.070623   315    4.106178  
     316    4.500006   317    4.548814   318   13.282772  

  ==> Frozen Core <==


    ------------------
    Range      A     B
    ------------------
    nbf      358   358
    nmo      318   318
    nocc       4    15
    nvir     314   303
    nfocc      1     4
    naocc      3    11
    navir    314   303
    nfvir      0     0
    ------------------

  ==> Unification <==

  ==> dHF <==

    E ABC(HF) =  -7.6212068420953108E+02 [Eh]
    E AC(0)   =  -5.3409796609733030E+02 [Eh]
    E BC(0)   =  -7.2198794169464395E+02 [Eh]
    E A(0)    =  -2.5024491893467879E+01 [Eh]
    E B(0)    =  -2.1263929811150382E+02 [Eh]
    E AC(HF)  =  -5.3409562014229414E+02 [Eh]
    E BC(HF)  =  -7.2197666616469564E+02 [Eh]
    E AB(HF)  =  -2.3763008218114840E+02 [Eh]
    E A(HF)   =  -2.5009335739258749E+01 [Eh]
    E B(HF)   =  -2.1261984384999562E+02 [Eh]
    E C       =  -4.9395250468935114E+02 [Eh]
    E HF      =   1.2718893092028338E-02 [Eh]

  ==> Electrostatics <==

    Elst10,r            =     0.008655797101 [Eh]

  ==> Exchange <==

    Exch10(S^2)         =     0.005531150967 [Eh]
    Exch10              =     0.005553959673 [Eh]

  ==> Induction <==

    Ind20,u (A<-B)      =    -0.001215790832 [Eh]
    Ind20,u (B<-A)      =    -0.000819554996 [Eh]
    Ind20,u             =    -0.002035345828 [Eh]
    Exch-Ind20,u (A<-B) =     0.000505957266 [Eh]
    Exch-Ind20,u (B<-A) =     0.000556224055 [Eh]
    Exch-Ind20,u        =     0.001062181321 [Eh]

  ==> CPHF Iterations <==

    Maxiter     =          50
    Convergence =   1.000E-08

    -----------------------------------------
    Iter   Monomer A    Monomer B    Time [s]
    -----------------------------------------
    1      1.422E-01    2.584E-01           1
    2      2.479E-02    9.551E-02           2
    3      5.928E-03    2.104E-02           2
    4      8.329E-04    9.561E-03           3
    5      9.980E-05    3.595E-03           4
    6      1.568E-05    1.584E-03           5
    7      2.236E-06    4.262E-04           6
    8      3.378E-07    1.670E-04           6
    9      3.631E-08    4.615E-05           7
    10     3.380E-09*   1.705E-05           8
    11     3.380E-09*   5.061E-06           9
    12     3.380E-09*   9.168E-07           9
    13     3.380E-09*   1.797E-07          10
    14     3.380E-09*   4.474E-08          10
    15     3.380E-09*   9.051E-09*         11
    -----------------------------------------

    Ind20,r (A<-B)      =    -0.001405862969 [Eh]
    Ind20,r (B<-A)      =    -0.000990942451 [Eh]
    Ind20,r             =    -0.002396805420 [Eh]
    Exch-Ind20,r (A<-B) =     0.000602227626 [Eh]
    Exch-Ind20,r (B<-A) =     0.000739595211 [Eh]
    Exch-Ind20,r        =     0.001341822838 [Eh]

  ==> F-SAPT Localization (IBO) <==

  Local Orbitals for Monomer A:

  ==> IBO Localizer 2 <==

    MinAO Basis = CC-PVTZ-MINAO
    Use Ghosts  =       FALSE
    Use Stars   =       FALSE
    Condition   =   1.000E-07
    Power       =           4
    Convergence =   1.000E-12
    Maxiter     =        1000

    @IBO Iter:                   Metric       Gradient
    @IBO    1:   1.0660086333110932E+00   7.045997E-02
    @IBO    2:   1.0834704054436766E+00   2.879996E-02
    @IBO    3:   1.0841035745633412E+00   6.084154E-04
    @IBO    4:   1.0841038399720966E+00   1.863060E-07
    @IBO    5:   1.0841038399721217E+00   3.182497E-10
    @IBO    6:   1.0841038399721217E+00   6.523728E-15

    IBO Localizer 2 converged.

  Local Orbitals for Monomer B:

  ==> IBO Localizer 2 <==

    MinAO Basis = CC-PVTZ-MINAO
    Use Ghosts  =       FALSE
    Use Stars   =       FALSE
    Condition   =   1.000E-07
    Power       =           4
    Convergence =   1.000E-12
    Maxiter     =        1000

    @IBO Iter:                   Metric       Gradient
    @IBO    1:   1.4801723600350551E+00   1.670424E+00
    @IBO    2:   1.6763418793855280E+00   9.439020E-01
    @IBO    3:   1.7092915056883995E+00   3.087376E-01
    @IBO    4:   1.7105362688931982E+00   4.790455E-03
    @IBO    5:   1.7105368707639614E+00   1.572590E-04
    @IBO    6:   1.7105368711450197E+00   3.578320E-06
    @IBO    7:   1.7105368711452904E+00   1.247542E-07
    @IBO    8:   1.7105368711452908E+00   4.154772E-09
    @IBO    9:   1.7105368711452908E+00   1.521600E-10
    @IBO   10:   1.7105368711452908E+00   5.892719E-12
    @IBO   11:   1.7105368711452911E+00   2.350380E-13

    IBO Localizer 2 converged.

  ==> F-SAPT Electrostatics <==

  ==> DFERI: Density Fitted 3-Index Tensors <==

    Schwarz cutoff =   0.000E+00
    J cutoff       =   1.000E-12
    Mem (GB)       =         628

   => Auxiliary Basis <=

  Basis Set: (JUN-CC-PVDZ AUX)
    Blend: JUN-CC-PVDZ-JKFIT
    Number of shells: 558
    Number of basis function: 1586
    Number of Cartesian functions: 1806
    Spherical Harmonics?: true
    Max angular momentum: 3

    Elst10,r            =     0.008655837635 [Eh]

  ==> F-SAPT Exchange <==

  ==> DFERI: Density Fitted 3-Index Tensors <==

    Schwarz cutoff =   0.000E+00
    J cutoff       =   1.000E-12
    Mem (GB)       =         628

   => Auxiliary Basis <=

  Basis Set: (JUN-CC-PVDZ AUX)
    Blend: JUN-CC-PVDZ-JKFIT
    Number of shells: 558
    Number of basis function: 1586
    Number of Cartesian functions: 1806
    Spherical Harmonics?: true
    Max angular momentum: 3

    Exch10(S^2)         =     0.005531136310 [Eh]

    Scaling F-SAPT Exch10(S^2) by   1.004E+00 to match Exch10

  ==> F-SAPT Induction <==

  ==> DFERI: Density Fitted 3-Index Tensors <==

    Schwarz cutoff =   0.000E+00
    J cutoff       =   1.000E-12
    Mem (GB)       =         628

   => Auxiliary Basis <=

  Basis Set: (JUN-CC-PVDZ AUX)
    Blend: JUN-CC-PVDZ-JKFIT
    Number of shells: 558
    Number of basis function: 1586
    Number of Cartesian functions: 1806
    Spherical Harmonics?: true
    Max angular momentum: 3

    Ind20,u (A<-B)      =    -0.001215791433 [Eh]
    Ind20,u (B<-A)      =    -0.000819555797 [Eh]
    Ind20,u             =    -0.002035347230 [Eh]
    Exch-Ind20,u (A<-B) =     0.000505957421 [Eh]
    Exch-Ind20,u (B<-A) =     0.000556224215 [Eh]
    Exch-Ind20,u        =     0.001062181636 [Eh]

    Scaling for delta HF        =   1.413E+00
    Scaling for response (A<-B) =   1.132E+00
    Scaling for response (B<-A) =   9.545E-01
    Scaling for total (A<-B)    =   1.600E+00
    Scaling for total (B<-A)    =   1.349E+00

  ==> F-SAPT Dispersion <==

  ==> DFERI: Density Fitted 3-Index Tensors <==

    Schwarz cutoff =   0.000E+00
    J cutoff       =   1.000E-12
    Mem (GB)       =         628

   => Auxiliary Basis <=

  Basis Set: (JUN-CC-PVDZ AUX)
    Blend: JUN-CC-PVDZ-RI
    Number of shells: 420
    Number of basis function: 1236
    Number of Cartesian functions: 1426
    Spherical Harmonics?: true
    Max angular momentum: 3

    Disp20              =    -0.002625519908 [Eh]
    Exch-Disp20         =     0.000386831969 [Eh]

  ==> F-SAPT Output <==

    F-SAPT Data Filepath = fsapt/

  ==> Results <==


    SAPT Results  
  --------------------------------------------------------------------------------------------------------
    Electrostatics                  8.65579710 [mEh]       5.43159491 [kcal/mol]      22.72579529 [kJ/mol]
      Elst10,r                      8.65579710 [mEh]       5.43159491 [kcal/mol]      22.72579529 [kJ/mol]

    Exchange                        5.55395967 [mEh]       3.48516246 [kcal/mol]      14.58192112 [kJ/mol]
      Exch10                        5.55395967 [mEh]       3.48516246 [kcal/mol]      14.58192112 [kJ/mol]
      Exch10(S^2)                   5.53115097 [mEh]       3.47084978 [kcal/mol]      14.52203686 [kJ/mol]

    Induction                      -1.49086368 [mEh]      -0.93553112 [kcal/mol]      -3.91426260 [kJ/mol]
      Ind20,r                      -2.39680542 [mEh]      -1.50401817 [kcal/mol]      -6.29281263 [kJ/mol]
      Exch-Ind20,r                  1.34182284 [mEh]       0.84200658 [kcal/mol]       3.52295586 [kJ/mol]
      delta HF,r (2)               -0.43588110 [mEh]      -0.27351953 [kcal/mol]      -1.14440583 [kJ/mol]
      Induction (A<-B)             -1.13566875 [mEh]      -0.71264293 [kcal/mol]      -2.98169829 [kJ/mol]
      Induction (B<-A)             -0.35519494 [mEh]      -0.22288820 [kcal/mol]      -0.93256431 [kJ/mol]

    Dispersion                     -2.23868794 [mEh]      -1.40479795 [kcal/mol]      -5.87767518 [kJ/mol]
      Disp20                       -2.62551991 [mEh]      -1.64753868 [kcal/mol]      -6.89330252 [kJ/mol]
      Exch-Disp20                   0.38683197 [mEh]       0.24274074 [kcal/mol]       1.01562733 [kJ/mol]

  Total HF                         12.71889309 [mEh]       7.98122624 [kcal/mol]      33.39345381 [kJ/mol]
  Total SAPT0                      10.48020515 [mEh]       6.57642830 [kcal/mol]      27.51577863 [kJ/mol]

  --------------------------------------------------------------------------------------------------------
    Han Solo: This is *not* gonna work.
    Luke Skywalker: Why didn't you say so before?
    Han Solo: I *did* say so before.

*** tstop() called on vega02.cac.cornell.edu at Thu Oct 19 09:19:22 2017
Module time:
	user time   =    1744.62 seconds =      29.08 minutes
	system time =      10.58 seconds =       0.18 minutes
	total time  =         67 seconds =       1.12 minutes
Total time:
	user time   =    2451.76 seconds =      40.86 minutes
	system time =      17.06 seconds =       0.28 minutes
	total time  =        100 seconds =       1.67 minutes

*** Psi4 exiting successfully. Buy a developer a beer!
