
    -----------------------------------------------------------------------
          Psi4: An Open-Source Ab Initio Electronic Structure Package
                               Psi4 1.1 release

                         Git: Rev {HEAD} add49b9 


    R. M. Parrish, L. A. Burns, D. G. A. Smith, A. C. Simmonett,
    A. E. DePrince III, E. G. Hohenstein, U. Bozkaya, A. Yu. Sokolov,
    R. Di Remigio, R. M. Richard, J. F. Gonthier, A. M. James,
    H. R. McAlexander, A. Kumar, M. Saitow, X. Wang, B. P. Pritchard,
    P. Verma, H. F. Schaefer III, K. Patkowski, R. A. King, E. F. Valeev,
    F. A. Evangelista, J. M. Turney, T. D. Crawford, and C. D. Sherrill,
    J. Chem. Theory Comput. in press (2017).
    (doi: 10.1021/acs.jctc.7b00174)

    -----------------------------------------------------------------------


    Psi4 started on: Thursday, 19 October 2017 09:19AM

    Process ID:  18721
    PSIDATADIR: /opt/software/psi4/psi4conda/share/psi4
    Memory:     500.0 MiB
    Threads:    48
    
  ==> Input File <==

--------------------------------------------------------------------------
memory 750000 mb

molecule mol {
0 1
C          1.56048       -2.89066       -0.09736
H          1.35406       -3.95285       -0.24028
H          2.16661       -2.55186       -0.94174
H          2.16704       -2.77683        0.80435
--
0 1
C          1.48890        0.05139       -0.33645
O          1.68370        0.71553       -1.32602
O          2.39815       -0.12048        0.64012
C          3.65460        0.55648        0.45033
H          4.14522        0.20399       -0.45833
H          4.24940        0.31470        1.32819
H          3.49529        1.63313        0.37712
--
0 1
C          0.22571       -0.71168       -0.06405
C         -0.99880       -0.02155       -0.00552
C          0.26968       -2.11331        0.00984
C         -0.94072       -2.79111        0.16314
C         -2.14927       -2.11075        0.23717
C         -2.21211       -0.71942        0.14374
H         -3.06939       -2.67168        0.36259
H         -0.93576       -3.87474        0.21806
C         -3.55453       -0.03100        0.21310
H         -3.82482        0.39983       -0.75303
H         -3.55701        0.78971        0.93431
H         -4.32733       -0.74403        0.50637
C         -1.02621        1.47042       -0.11431
O         -1.80499        2.10249       -0.78581
O         -0.07613        2.03904        0.65824
C          0.08678        3.46089        0.50952
H         -0.84634        3.97930        0.73298
H          0.39771        3.69375       -0.51017
H          0.86119        3.73902        1.22095

symmetry c1
no_reorient
no_com
}

set {
basis jun-cc-pvdz
scf_type df
guess sad
freeze_core true
}

energy('fisapt0')
--------------------------------------------------------------------------

  Memory set to 698.492 GiB by Python driver.

*** tstart() called on vega02.cac.cornell.edu
*** at Thu Oct 19 09:19:22 2017

   => Loading Basis Set <=

    Name: JUN-CC-PVDZ
    Role: ORBITAL
    Keyword: BASIS
    atoms 1, 5, 8, 12-17, 20, 24, 27     entry C          line   157 file /opt/software/psi4/psi4conda/share/psi4/basis/jun-cc-pvdz.gbs 
    atoms 2-4, 9-11, 18-19, 21-23, 28-30 entry H          line    35 file /opt/software/psi4/psi4conda/share/psi4/basis/jun-cc-pvdz.gbs 
    atoms 6-7, 25-26                     entry O          line   225 file /opt/software/psi4/psi4conda/share/psi4/basis/jun-cc-pvdz.gbs 


         ---------------------------------------------------------
                                   SCF
            by Justin Turney, Rob Parrish, and Andy Simmonett
                              RHF Reference
                       48 Threads, 715255 MiB Core
         ---------------------------------------------------------

  ==> Geometry <==

    Molecular point group: c1
    Full point group: C1

    Geometry (in Angstrom), charge = 0, multiplicity = 1:

       Center              X                  Y                   Z               Mass       
    ------------   -----------------  -----------------  -----------------  -----------------
           C          1.560480000000    -2.890660000000    -0.097360000000    12.000000000000
           H          1.354060000000    -3.952850000000    -0.240280000000     1.007825032070
           H          2.166610000000    -2.551860000000    -0.941740000000     1.007825032070
           H          2.167040000000    -2.776830000000     0.804350000000     1.007825032070
           C          1.488900000000     0.051390000000    -0.336450000000    12.000000000000
           O          1.683700000000     0.715530000000    -1.326020000000    15.994914619560
           O          2.398150000000    -0.120480000000     0.640120000000    15.994914619560
           C          3.654600000000     0.556480000000     0.450330000000    12.000000000000
           H          4.145220000000     0.203990000000    -0.458330000000     1.007825032070
           H          4.249400000000     0.314700000000     1.328190000000     1.007825032070
           H          3.495290000000     1.633130000000     0.377120000000     1.007825032070
           C          0.225710000000    -0.711680000000    -0.064050000000    12.000000000000
           C         -0.998800000000    -0.021550000000    -0.005520000000    12.000000000000
           C          0.269680000000    -2.113310000000     0.009840000000    12.000000000000
           C         -0.940720000000    -2.791110000000     0.163140000000    12.000000000000
           C         -2.149270000000    -2.110750000000     0.237170000000    12.000000000000
           C         -2.212110000000    -0.719420000000     0.143740000000    12.000000000000
           H         -3.069390000000    -2.671680000000     0.362590000000     1.007825032070
           H         -0.935760000000    -3.874740000000     0.218060000000     1.007825032070
           C         -3.554530000000    -0.031000000000     0.213100000000    12.000000000000
           H         -3.824820000000     0.399830000000    -0.753030000000     1.007825032070
           H         -3.557010000000     0.789710000000     0.934310000000     1.007825032070
           H         -4.327330000000    -0.744030000000     0.506370000000     1.007825032070
           C         -1.026210000000     1.470420000000    -0.114310000000    12.000000000000
           O         -1.804990000000     2.102490000000    -0.785810000000    15.994914619560
           O         -0.076130000000     2.039040000000     0.658240000000    15.994914619560
           C          0.086780000000     3.460890000000     0.509520000000    12.000000000000
           H         -0.846340000000     3.979300000000     0.732980000000     1.007825032070
           H          0.397710000000     3.693750000000    -0.510170000000     1.007825032070
           H          0.861190000000     3.739020000000     1.220950000000     1.007825032070

  Running in c1 symmetry.

  Rotational constants: A =      0.02107  B =      0.01884  C =      0.01082 [cm^-1]
  Rotational constants: A =    631.65009  B =    564.66225  C =    324.31289 [MHz]
  Nuclear repulsion = 1141.563206009395572

  Charge       = 0
  Multiplicity = 1
  Electrons    = 118
  Nalpha       = 59
  Nbeta        = 59

  ==> Algorithm <==

  SCF Algorithm Type is DF.
  DIIS enabled.
  MOM disabled.
  Fractional occupation disabled.
  Guess Type is SAD.
  Energy threshold   = 1.00e-08
  Density threshold  = 1.00e-08
  Integral threshold = 0.00e+00

  ==> Primary Basis <==

  Basis Set: JUN-CC-PVDZ
    Blend: JUN-CC-PVDZ
    Number of shells: 170
    Number of basis function: 358
    Number of Cartesian functions: 374
    Spherical Harmonics?: true
    Max angular momentum: 2

   => Loading Basis Set <=

    Name: (JUN-CC-PVDZ AUX)
    Role: JKFIT
    Keyword: DF_BASIS_SCF
    atoms 1, 5, 8, 12-17, 20, 24, 27     entry C          line   145 file /opt/software/psi4/psi4conda/share/psi4/basis/jun-cc-pvdz-jkfit.gbs 
    atoms 2-4, 9-11, 18-19, 21-23, 28-30 entry H          line    69 file /opt/software/psi4/psi4conda/share/psi4/basis/jun-cc-pvdz-jkfit.gbs 
    atoms 6-7, 25-26                     entry O          line   257 file /opt/software/psi4/psi4conda/share/psi4/basis/jun-cc-pvdz-jkfit.gbs 

  ==> Pre-Iterations <==

   -------------------------------------------------------
    Irrep   Nso     Nmo     Nalpha   Nbeta   Ndocc  Nsocc
   -------------------------------------------------------
     A        358     358       0       0       0       0
   -------------------------------------------------------
    Total     358     358      59      59      59       0
   -------------------------------------------------------

  ==> Integral Setup <==

  ==> DFJK: Density-Fitted J/K Matrices <==

    J tasked:                  Yes
    K tasked:                  Yes
    wK tasked:                  No
    OpenMP threads:             48
    Integrals threads:          48
    Memory (MB):            536441
    Algorithm:                Core
    Integral Cache:           NONE
    Schwarz Cutoff:          1E-12
    Fitting Condition:       1E-12

   => Auxiliary Basis Set <=

  Basis Set: (JUN-CC-PVDZ AUX)
    Blend: JUN-CC-PVDZ-JKFIT
    Number of shells: 558
    Number of basis function: 1586
    Number of Cartesian functions: 1806
    Spherical Harmonics?: true
    Max angular momentum: 3

  Minimum eigenvalue in the overlap matrix is 3.1397645995E-06.
  Using Symmetric Orthogonalization.

  SCF Guess: Superposition of Atomic Densities via on-the-fly atomic UHF.

  ==> Iterations <==

                           Total Energy        Delta E     RMS |[F,P]|

   @DF-RHF iter   0:  -771.28185474880911   -7.71282e+02   9.28838e-02 
   @DF-RHF iter   1:  -761.56683235263517    9.71502e+00   6.50826e-03 
   @DF-RHF iter   2:  -761.90192749842845   -3.35095e-01   1.13154e-02 DIIS
   @DF-RHF iter   3:  -762.10085060446477   -1.98923e-01   1.77740e-03 DIIS
   @DF-RHF iter   4:  -762.11755963741325   -1.67090e-02   7.70379e-04 DIIS
   @DF-RHF iter   5:  -762.12012901175547   -2.56937e-03   3.24604e-04 DIIS
   @DF-RHF iter   6:  -762.12057318367397   -4.44172e-04   1.06272e-04 DIIS
   @DF-RHF iter   7:  -762.12066918570781   -9.60020e-05   3.68333e-05 DIIS
   @DF-RHF iter   8:  -762.12068138784093   -1.22021e-05   1.80235e-05 DIIS
   @DF-RHF iter   9:  -762.12068363034041   -2.24250e-06   1.07343e-05 DIIS
   @DF-RHF iter  10:  -762.12068410020549   -4.69865e-07   3.16791e-06 DIIS
   @DF-RHF iter  11:  -762.12068418100944   -8.08039e-08   1.33325e-06 DIIS
   @DF-RHF iter  12:  -762.12068419460661   -1.35972e-08   4.81090e-07 DIIS
   @DF-RHF iter  13:  -762.12068419746402   -2.85740e-09   3.02425e-07 DIIS
   @DF-RHF iter  14:  -762.12068419786931   -4.05294e-10   1.06209e-07 DIIS
   @DF-RHF iter  15:  -762.12068419794070   -7.13953e-11   3.92028e-08 DIIS
   @DF-RHF iter  16:  -762.12068419795719   -1.64846e-11   1.82076e-08 DIIS
   @DF-RHF iter  17:  -762.12068419796265   -5.45697e-12   1.20621e-08 DIIS
   @DF-RHF iter  18:  -762.12068419796208    5.68434e-13   2.31956e-09 DIIS

  ==> Post-Iterations <==

    Orbital Energies (a.u.)
    -----------------------

    Doubly Occupied:                                                      

       1A    -20.615395     2A    -20.610936     3A    -20.559523  
       4A    -20.556166     5A    -11.398395     6A    -11.394232  
       7A    -11.299709     8A    -11.293680     9A    -11.271968  
      10A    -11.268520    11A    -11.265178    12A    -11.264827  
      13A    -11.254161    14A    -11.250520    15A    -11.240204  
      16A    -11.231797    17A     -1.473222    18A     -1.465642  
      19A     -1.370267    20A     -1.366185    21A     -1.183683  
      22A     -1.086153    23A     -1.063939    24A     -0.994356  
      25A     -0.986489    26A     -0.970169    27A     -0.914883  
      28A     -0.877991    29A     -0.836980    30A     -0.780757  
      31A     -0.772934    32A     -0.721927    33A     -0.711954  
      34A     -0.697772    35A     -0.681945    36A     -0.675679  
      37A     -0.664705    38A     -0.653681    39A     -0.642448  
      40A     -0.605692    41A     -0.595935    42A     -0.582930  
      43A     -0.575763    44A     -0.568411    45A     -0.563423  
      46A     -0.553840    47A     -0.544012    48A     -0.541538  
      49A     -0.535461    50A     -0.529874    51A     -0.516456  
      52A     -0.504805    53A     -0.489180    54A     -0.469540  
      55A     -0.460677    56A     -0.455137    57A     -0.447324  
      58A     -0.352629    59A     -0.330970  

    Virtual:                                                              

      60A      0.051817    61A      0.055567    62A      0.059450  
      63A      0.067971    64A      0.075514    65A      0.078191  
      66A      0.084525    67A      0.094279    68A      0.095064  
      69A      0.099854    70A      0.104074    71A      0.106720  
      72A      0.116066    73A      0.118832    74A      0.120811  
      75A      0.123682    76A      0.133637    77A      0.135837  
      78A      0.147475    79A      0.149385    80A      0.152298  
      81A      0.163048    82A      0.166759    83A      0.170710  
      84A      0.176179    85A      0.182126    86A      0.188887  
      87A      0.194639    88A      0.198308    89A      0.201946  
      90A      0.210270    91A      0.213357    92A      0.221193  
      93A      0.224115    94A      0.230717    95A      0.233373  
      96A      0.242043    97A      0.246091    98A      0.248158  
      99A      0.254841   100A      0.261033   101A      0.265606  
     102A      0.269982   103A      0.273447   104A      0.276513  
     105A      0.289910   106A      0.296729   107A      0.301275  
     108A      0.305313   109A      0.314176   110A      0.319784  
     111A      0.324217   112A      0.326888   113A      0.330332  
     114A      0.336821   115A      0.341061   116A      0.343048  
     117A      0.347857   118A      0.357078   119A      0.358683  
     120A      0.365669   121A      0.375603   122A      0.378160  
     123A      0.384408   124A      0.386038   125A      0.398015  
     126A      0.399667   127A      0.407483   128A      0.412090  
     129A      0.422861   130A      0.423864   131A      0.431148  
     132A      0.433078   133A      0.434636   134A      0.440141  
     135A      0.448257   136A      0.452593   137A      0.458867  
     138A      0.463596   139A      0.472726   140A      0.486344  
     141A      0.491924   142A      0.496286   143A      0.501277  
     144A      0.510952   145A      0.523116   146A      0.538599  
     147A      0.552346   148A      0.554158   149A      0.562248  
     150A      0.571811   151A      0.600378   152A      0.620974  
     153A      0.634623   154A      0.653897   155A      0.703575  
     156A      0.712069   157A      0.748246   158A      0.756769  
     159A      0.770531   160A      0.776067   161A      0.789295  
     162A      0.796983   163A      0.824479   164A      0.828212  
     165A      0.832060   166A      0.845681   167A      0.851866  
     168A      0.861102   169A      0.884897   170A      0.888617  
     171A      0.892749   172A      0.907560   173A      0.910374  
     174A      0.914464   175A      0.917394   176A      0.920942  
     177A      0.925677   178A      0.929528   179A      0.932097  
     180A      0.945126   181A      0.947541   182A      0.955306  
     183A      0.956349   184A      0.963481   185A      0.970518  
     186A      0.972500   187A      0.983796   188A      0.988882  
     189A      1.002866   190A      1.005329   191A      1.007682  
     192A      1.013024   193A      1.019832   194A      1.035806  
     195A      1.050034   196A      1.062802   197A      1.071702  
     198A      1.089026   199A      1.104963   200A      1.114670  
     201A      1.139148   202A      1.143724   203A      1.146896  
     204A      1.164477   205A      1.181699   206A      1.205135  
     207A      1.211190   208A      1.230057   209A      1.246429  
     210A      1.253362   211A      1.277081   212A      1.283298  
     213A      1.290455   214A      1.301429   215A      1.317507  
     216A      1.326601   217A      1.334780   218A      1.345288  
     219A      1.363270   220A      1.376767   221A      1.380363  
     222A      1.423482   223A      1.433915   224A      1.468467  
     225A      1.489831   226A      1.501487   227A      1.526496  
     228A      1.529848   229A      1.546822   230A      1.552880  
     231A      1.564742   232A      1.578965   233A      1.589158  
     234A      1.597331   235A      1.602421   236A      1.608759  
     237A      1.637347   238A      1.646052   239A      1.657372  
     240A      1.661489   241A      1.668463   242A      1.678261  
     243A      1.688041   244A      1.689496   245A      1.712218  
     246A      1.721750   247A      1.724902   248A      1.748944  
     249A      1.767092   250A      1.779289   251A      1.797345  
     252A      1.805440   253A      1.815745   254A      1.829751  
     255A      1.839144   256A      1.863342   257A      1.877881  
     258A      1.899332   259A      1.909142   260A      1.918708  
     261A      1.930675   262A      1.938892   263A      1.944719  
     264A      1.954157   265A      1.958990   266A      1.967587  
     267A      1.975538   268A      1.985250   269A      1.989273  
     270A      2.001512   271A      2.008094   272A      2.016298  
     273A      2.020543   274A      2.025086   275A      2.036741  
     276A      2.043480   277A      2.049684   278A      2.051633  
     279A      2.059068   280A      2.084329   281A      2.104316  
     282A      2.116426   283A      2.125355   284A      2.143943  
     285A      2.154843   286A      2.159102   287A      2.180719  
     288A      2.190114   289A      2.200757   290A      2.221941  
     291A      2.224890   292A      2.273448   293A      2.281308  
     294A      2.292403   295A      2.308304   296A      2.336403  
     297A      2.362068   298A      2.370510   299A      2.390250  
     300A      2.395381   301A      2.403011   302A      2.414909  
     303A      2.425312   304A      2.430344   305A      2.434645  
     306A      2.453961   307A      2.500195   308A      2.506374  
     309A      2.545449   310A      2.561230   311A      2.572632  
     312A      2.594289   313A      2.604358   314A      2.624850  
     315A      2.666414   316A      2.716281   317A      2.736446  
     318A      2.758455   319A      2.776402   320A      2.791409  
     321A      2.805700   322A      2.815785   323A      2.847354  
     324A      2.852926   325A      2.858228   326A      2.870496  
     327A      2.874349   328A      2.879610   329A      2.895639  
     330A      2.906056   331A      2.918518   332A      2.929751  
     333A      2.974203   334A      3.017069   335A      3.040375  
     336A      3.057156   337A      3.077412   338A      3.103435  
     339A      3.123954   340A      3.135083   341A      3.201214  
     342A      3.265531   343A      3.271787   344A      3.291590  
     345A      3.316160   346A      3.384937   347A      3.417261  
     348A      3.571039   349A      3.579627   350A      3.644975  
     351A      3.686281   352A      3.746479   353A      3.784337  
     354A      3.793415   355A      3.943105   356A      3.950615  
     357A      4.066180   358A      4.075520  

    Final Occupation by Irrep:
              A 
    DOCC [    59 ]

  Energy converged.

  @DF-RHF Final Energy:  -762.12068419796208

   => Energetics <=

    Nuclear Repulsion Energy =           1141.5632060093955715
    One-Electron Energy =               -3308.1826393432165787
    Two-Electron Energy =                1404.4987491358588159
    DFT Exchange-Correlation Energy =       0.0000000000000000
    Empirical Dispersion Energy =           0.0000000000000000
    PCM Polarization Energy =               0.0000000000000000
    EFP Energy =                            0.0000000000000000
    Total Energy =                       -762.1206841979619639



Properties will be evaluated at   0.000000,   0.000000,   0.000000 Bohr

Properties computed using the SCF density matrix

  Nuclear Dipole Moment: (a.u.)
     X:    -3.1960      Y:     1.8373      Z:     7.0459

  Electronic Dipole Moment: (a.u.)
     X:     3.8460      Y:    -2.4757      Z:    -5.9911

  Dipole Moment: (a.u.)
     X:     0.6501      Y:    -0.6384      Z:     1.0547     Total:     1.3937

  Dipole Moment: (Debye)
     X:     1.6523      Y:    -1.6226      Z:     2.6808     Total:     3.5425


*** tstop() called on vega02.cac.cornell.edu at Thu Oct 19 09:19:55 2017
Module time:
	user time   =     721.78 seconds =      12.03 minutes
	system time =       5.89 seconds =       0.10 minutes
	total time  =         33 seconds =       0.55 minutes
Total time:
	user time   =     721.78 seconds =      12.03 minutes
	system time =       5.89 seconds =       0.10 minutes
	total time  =         33 seconds =       0.55 minutes
   => Loading Basis Set <=

    Name: (JUN-CC-PVDZ AUX)
    Role: JKFIT
    Keyword: DF_BASIS_SCF
    atoms 1, 5, 8, 12-17, 20, 24, 27     entry C          line   145 file /opt/software/psi4/psi4conda/share/psi4/basis/jun-cc-pvdz-jkfit.gbs 
    atoms 2-4, 9-11, 18-19, 21-23, 28-30 entry H          line    69 file /opt/software/psi4/psi4conda/share/psi4/basis/jun-cc-pvdz-jkfit.gbs 
    atoms 6-7, 25-26                     entry O          line   257 file /opt/software/psi4/psi4conda/share/psi4/basis/jun-cc-pvdz-jkfit.gbs 

   => Loading Basis Set <=

    Name: (JUN-CC-PVDZ AUX)
    Role: RIFIT
    Keyword: DF_BASIS_SAPT
    atoms 1, 5, 8, 12-17, 20, 24, 27     entry C          line    99 file /opt/software/psi4/psi4conda/share/psi4/basis/jun-cc-pvdz-ri.gbs 
    atoms 2-4, 9-11, 18-19, 21-23, 28-30 entry H          line    29 file /opt/software/psi4/psi4conda/share/psi4/basis/jun-cc-pvdz-ri.gbs 
    atoms 6-7, 25-26                     entry O          line   187 file /opt/software/psi4/psi4conda/share/psi4/basis/jun-cc-pvdz-ri.gbs 

   => Loading Basis Set <=

    Name: CC-PVTZ-MINAO
    Role: ORBITAL
    Keyword: BASIS
    atoms 1, 5, 8, 12-17, 20, 24, 27     entry C          line   130 file /opt/software/psi4/psi4conda/share/psi4/basis/cc-pvtz-minao.gbs 
    atoms 2-4, 9-11, 18-19, 21-23, 28-30 entry H          line    19 file /opt/software/psi4/psi4conda/share/psi4/basis/cc-pvtz-minao.gbs 
    atoms 6-7, 25-26                     entry O          line   190 file /opt/software/psi4/psi4conda/share/psi4/basis/cc-pvtz-minao.gbs 


*** tstart() called on vega02.cac.cornell.edu
*** at Thu Oct 19 09:19:56 2017

	 --------------------------------------------
	                    FISAPT0                  
	                  Rob Parrish                
	 --------------------------------------------

    Do F-SAPT =         Yes
    Do Plot   =          No
    Memory    =      78.580 [GD]

  ==> Localization (IBO) <==

  ==> IBO Localizer 2 <==

    MinAO Basis = CC-PVTZ-MINAO
    Use Ghosts  =       FALSE
    Use Stars   =       FALSE
    Condition   =   1.000E-07
    Power       =           4
    Convergence =   1.000E-12
    Maxiter     =        1000

    @IBO Iter:                   Metric       Gradient
    @IBO    1:   1.9786493271236409E+00   3.088856E+00
    @IBO    2:   2.2083481168438497E+00   2.040103E+00
    @IBO    3:   2.2795936433505215E+00   9.452494E-01
    @IBO    4:   2.2879482198089778E+00   1.636363E-01
    @IBO    5:   2.2881199410217783E+00   3.654718E-03
    @IBO    6:   2.2881200696312076E+00   2.173556E-04
    @IBO    7:   2.2881200713376844E+00   4.504064E-05
    @IBO    8:   2.2881200714116128E+00   1.038813E-05
    @IBO    9:   2.2881200714156633E+00   2.501228E-06
    @IBO   10:   2.2881200714159169E+00   6.220321E-07
    @IBO   11:   2.2881200714159342E+00   1.591186E-07
    @IBO   12:   2.2881200714159351E+00   4.163717E-08
    @IBO   13:   2.2881200714159355E+00   1.107308E-08
    @IBO   14:   2.2881200714159355E+00   2.975041E-09
    @IBO   15:   2.2881200714159355E+00   8.038715E-10
    @IBO   16:   2.2881200714159355E+00   2.177900E-10
    @IBO   17:   2.2881200714159355E+00   5.905459E-11
    @IBO   18:   2.2881200714159355E+00   1.601015E-11
    @IBO   19:   2.2881200714159351E+00   4.337512E-12
    @IBO   20:   2.2881200714159351E+00   1.174132E-12
    @IBO   21:   2.2881200714159351E+00   3.175092E-13

    IBO Localizer 2 converged.

  ==> Partitioning <==

   => Atomic Partitioning <= 

    Monomer A:   4 atoms
    Monomer B:   7 atoms
    Monomer C:  19 atoms

   => Link Bond Identification <=

    Link Bond Selection = AUTOMATIC

    Charge Completeness = 0.800

    Total Link Bonds = 2

    --------------------------
    N     Orb Type Aind1 Aind2
    --------------------------
    1      19   BC     5    12
    2      43   AC     1    14
    --------------------------

   => Link Bond Assignment <=

    Link Bond Assignment      = C

   => Partition Summary <=

    Monomer A:  0 charge,   8 protons,   8 electrons,   4 docc
    Monomer B:  0 charge,  30 protons,  30 electrons,  15 docc
    Monomer C:  0 charge,  80 protons,  80 electrons,  40 docc

  ==> Overlap Integrals <==

  ==> Kinetic Integrals <==

  ==> Nuclear Integrals <==

    Nuclear Repulsion Tot:   1.1415632060093963E+03 [Eh]

  ==> Coulomb Integrals <==

  ==> DFJK: Density-Fitted J/K Matrices <==

    J tasked:                  Yes
    K tasked:                  Yes
    wK tasked:                  No
    OpenMP threads:             48
    Integrals threads:          48
    Memory (MB):            643730
    Algorithm:                Core
    Integral Cache:           NONE
    Schwarz Cutoff:          1E-12
    Fitting Condition:       1E-12

   => Auxiliary Basis Set <=

  Basis Set: (JUN-CC-PVDZ AUX)
    Blend: JUN-CC-PVDZ-JKFIT
    Number of shells: 558
    Number of basis function: 1586
    Number of Cartesian functions: 1806
    Spherical Harmonics?: true
    Max angular momentum: 3

  ==> Relaxed SCF Equations <==

  ==> SCF A: <==

    Maxiter =          50
    E Tol   =   1.000E-06
    D Tol   =   1.000E-08

    Max DIIS Vectors = 5

    Iter   N:                        E          dE         |D|
    Iter   1:  -3.6265418901241546E+01  -3.627E+01   1.467E-03 
    Iter   2:  -3.6267125154877633E+01  -1.706E-03   1.518E-04 DIIS
    Iter   3:  -3.6267165019909235E+01  -3.987E-05   2.686E-05 DIIS
    Iter   4:  -3.6267167189111952E+01  -2.169E-06   7.311E-06 DIIS
    Iter   5:  -3.6267167327299774E+01  -1.382E-07   1.439E-06 DIIS
    Iter   6:  -3.6267167332998120E+01  -5.698E-09   2.022E-07 DIIS
    Iter   7:  -3.6267167333136541E+01  -1.384E-10   3.037E-08 DIIS
    Iter   8:  -3.6267167333139014E+01  -2.473E-12   3.620E-09 DIIS

    FISAPTSCF Converged.

    Final SCF Energy:  -3.6267167333139014E+01 [Eh]

   => Occupied Orbital Energies <=

       1  -11.230457     2   -0.845725     3   -0.552086  
       4   -0.547287  

   => Virtual Orbital Energies <=

       5    0.031032     6    0.054331     7    0.060714  
       8    0.065292     9    0.066445    10    0.078486  
      11    0.084504    12    0.096665    13    0.097706  
      14    0.100131    15    0.101488    16    0.107368  
      17    0.113423    18    0.117074    19    0.120261  
      20    0.126937    21    0.135176    22    0.135574  
      23    0.143210    24    0.148317    25    0.152786  
      26    0.156520    27    0.161358    28    0.165723  
      29    0.174801    30    0.179527    31    0.184891  
      32    0.190903    33    0.198432    34    0.200113  
      35    0.205364    36    0.215445    37    0.218902  
      38    0.225515    39    0.233091    40    0.235619  
      41    0.243283    42    0.247606    43    0.248109  
      44    0.256031    45    0.259389    46    0.260892  
      47    0.266189    48    0.272864    49    0.283833  
      50    0.285483    51    0.289990    52    0.301867  
      53    0.305619    54    0.310221    55    0.317775  
      56    0.319356    57    0.322571    58    0.326389  
      59    0.333863    60    0.336736    61    0.342052  
      62    0.346701    63    0.351417    64    0.358728  
      65    0.360590    66    0.363245    67    0.376530  
      68    0.383898    69    0.390188    70    0.393917  
      71    0.397789    72    0.400875    73    0.410668  
      74    0.419735    75    0.425094    76    0.427234  
      77    0.445304    78    0.446562    79    0.453937  
      80    0.456589    81    0.465963    82    0.474759  
      83    0.480755    84    0.492838    85    0.493379  
      86    0.504186    87    0.509552    88    0.518297  
      89    0.519235    90    0.547997    91    0.556055  
      92    0.561141    93    0.577108    94    0.579072  
      95    0.602635    96    0.615506    97    0.625399  
      98    0.641622    99    0.648095   100    0.649658  
     101    0.675441   102    0.696269   103    0.745268  
     104    0.769897   105    0.774887   106    0.785811  
     107    0.790768   108    0.815449   109    0.825229  
     110    0.841298   111    0.845620   112    0.852100  
     113    0.860937   114    0.883914   115    0.894529  
     116    0.909294   117    0.913253   118    0.919835  
     119    0.927421   120    0.929869   121    0.933643  
     122    0.935298   123    0.943294   124    0.960139  
     125    0.962638   126    0.964634   127    0.972966  
     128    0.976897   129    0.981033   130    0.987544  
     131    0.992792   132    1.002209   133    1.009998  
     134    1.019212   135    1.028428   136    1.052071  
     137    1.062744   138    1.065218   139    1.070074  
     140    1.077779   141    1.093093   142    1.109943  
     143    1.116267   144    1.136805   145    1.153430  
     146    1.161796   147    1.166502   148    1.180162  
     149    1.185618   150    1.218624   151    1.229177  
     152    1.237377   153    1.240030   154    1.265767  
     155    1.281933   156    1.295586   157    1.305825  
     158    1.319577   159    1.339704   160    1.340564  
     161    1.351868   162    1.369825   163    1.395906  
     164    1.417397   165    1.423575   166    1.478809  
     167    1.499785   168    1.527558   169    1.542481  
     170    1.547631   171    1.568596   172    1.572865  
     173    1.582663   174    1.586724   175    1.596360  
     176    1.609104   177    1.623165   178    1.632241  
     179    1.655891   180    1.670408   181    1.676952  
     182    1.694388   183    1.705276   184    1.714164  
     185    1.723725   186    1.750402   187    1.759917  
     188    1.782552   189    1.802122   190    1.805102  
     191    1.812431   192    1.830272   193    1.833011  
     194    1.846879   195    1.854700   196    1.888295  
     197    1.907335   198    1.919898   199    1.922420  
     200    1.935558   201    1.946104   202    1.952754  
     203    1.968887   204    1.972580   205    1.986841  
     206    1.997313   207    2.004139   208    2.007761  
     209    2.020547   210    2.026489   211    2.030594  
     212    2.041026   213    2.045460   214    2.058630  
     215    2.067412   216    2.093217   217    2.104154  
     218    2.117261   219    2.124524   220    2.126611  
     221    2.140525   222    2.150530   223    2.164044  
     224    2.176383   225    2.178896   226    2.200485  
     227    2.214977   228    2.216718   229    2.244122  
     230    2.266989   231    2.298498   232    2.305751  
     233    2.322741   234    2.327963   235    2.333329  
     236    2.342691   237    2.362267   238    2.383687  
     239    2.395184   240    2.402968   241    2.405902  
     242    2.421558   243    2.436406   244    2.442384  
     245    2.469414   246    2.495653   247    2.513077  
     248    2.520759   249    2.549730   250    2.573379  
     251    2.589541   252    2.602782   253    2.625541  
     254    2.637685   255    2.657229   256    2.693289  
     257    2.702183   258    2.721434   259    2.730975  
     260    2.791204   261    2.794633   262    2.797121  
     263    2.828840   264    2.853655   265    2.857224  
     266    2.861474   267    2.871233   268    2.874203  
     269    2.879730   270    2.885647   271    2.890901  
     272    2.913852   273    2.919835   274    2.953978  
     275    2.975696   276    2.992373   277    3.035667  
     278    3.056625   279    3.080566   280    3.119239  
     281    3.128220   282    3.186664   283    3.230309  
     284    3.286899   285    3.306931   286    3.424519  
     287    3.443669   288    3.584667   289    3.651876  
     290    3.686298   291    3.756828   292    3.801338  
     293    3.857476   294    3.955676   295    3.966777  
     296    4.075764   297    4.144674   298    4.197442  
     299    4.447225   300    4.510769   301    4.544120  
     302    4.759953   303    4.933207   304    5.041152  
     305    5.066580   306    5.201915   307    5.316581  
     308    5.522344   309    5.627062   310    5.723329  
     311    5.840849   312    6.095130   313    6.338198  
     314    6.688232   315   13.369049   316   18.424564  
     317   33.422244   318   33.472599  

  ==> SCF B: <==

    Maxiter =          50
    E Tol   =   1.000E-06
    D Tol   =   1.000E-08

    Max DIIS Vectors = 5

    Iter   N:                        E          dE         |D|
    Iter   1:  -2.2431474800700855E+02  -2.243E+02   2.665E-03 
    Iter   2:  -2.2432394855997052E+02  -9.201E-03   3.305E-04 DIIS
    Iter   3:  -2.2432422901155851E+02  -2.805E-04   8.400E-05 DIIS
    Iter   4:  -2.2432424841412802E+02  -1.940E-05   3.875E-05 DIIS
    Iter   5:  -2.2432425245725457E+02  -4.043E-06   9.353E-06 DIIS
    Iter   6:  -2.2432425269381795E+02  -2.366E-07   4.996E-06 DIIS
    Iter   7:  -2.2432425273091681E+02  -3.710E-08   1.323E-06 DIIS
    Iter   8:  -2.2432425273549867E+02  -4.582E-09   4.073E-07 DIIS
    Iter   9:  -2.2432425273615871E+02  -6.600E-10   1.941E-07 DIIS
    Iter  10:  -2.2432425273633632E+02  -1.776E-10   9.493E-08 DIIS
    Iter  11:  -2.2432425273636207E+02  -2.575E-11   4.562E-08 DIIS
    Iter  12:  -2.2432425273636531E+02  -3.240E-12   2.095E-08 DIIS
    Iter  13:  -2.2432425273636690E+02  -1.592E-12   8.631E-09 DIIS

    FISAPTSCF Converged.

    Final SCF Energy:  -2.2432425273636690E+02 [Eh]

   => Occupied Orbital Energies <=

       1  -20.613113     2  -20.552878     3  -11.393527  
       4  -11.298469     5   -1.443662     6   -1.361520  
       7   -0.966557     8   -0.771347     9   -0.674228  
      10   -0.667975    11   -0.625312    12   -0.546868  
      13   -0.540332    14   -0.477970    15   -0.464897  

   => Virtual Orbital Energies <=

      16    0.004536    17    0.056129    18    0.061319  
      19    0.066796    20    0.072042    21    0.079683  
      22    0.089336    23    0.092310    24    0.093449  
      25    0.098212    26    0.102572    27    0.104787  
      28    0.111597    29    0.116008    30    0.118244  
      31    0.124469    32    0.130631    33    0.135815  
      34    0.138794    35    0.151946    36    0.154010  
      37    0.156077    38    0.163239    39    0.168568  
      40    0.173481    41    0.179688    42    0.185593  
      43    0.192790    44    0.200718    45    0.202504  
      46    0.207937    47    0.216324    48    0.218744  
      49    0.226596    50    0.227377    51    0.236409  
      52    0.239580    53    0.243366    54    0.249764  
      55    0.254804    56    0.259994    57    0.265192  
      58    0.274724    59    0.279324    60    0.279990  
      61    0.290074    62    0.297741    63    0.300968  
      64    0.306012    65    0.311613    66    0.313293  
      67    0.321670    68    0.324033    69    0.335337  
      70    0.338222    71    0.342857    72    0.345222  
      73    0.356388    74    0.357851    75    0.360742  
      76    0.371377    77    0.373943    78    0.378553  
      79    0.387995    80    0.391637    81    0.392634  
      82    0.404468    83    0.408809    84    0.417012  
      85    0.423505    86    0.424461    87    0.433228  
      88    0.438037    89    0.439740    90    0.444230  
      91    0.449910    92    0.454893    93    0.458482  
      94    0.464095    95    0.476885    96    0.483932  
      97    0.490261    98    0.504673    99    0.515267  
     100    0.519759   101    0.531526   102    0.541264  
     103    0.544043   104    0.567502   105    0.572955  
     106    0.574481   107    0.588911   108    0.617236  
     109    0.625034   110    0.626551   111    0.655892  
     112    0.664619   113    0.681160   114    0.727696  
     115    0.748675   116    0.768927   117    0.778401  
     118    0.798583   119    0.804705   120    0.829246  
     121    0.832099   122    0.846733   123    0.853290  
     124    0.862048   125    0.872013   126    0.887374  
     127    0.899172   128    0.904209   129    0.912988  
     130    0.919157   131    0.924865   132    0.927438  
     133    0.931245   134    0.939256   135    0.945446  
     136    0.950244   137    0.959832   138    0.961934  
     139    0.973009   140    0.982575   141    0.989691  
     142    0.999204   143    1.010637   144    1.014559  
     145    1.018722   146    1.029047   147    1.038696  
     148    1.044730   149    1.056604   150    1.062954  
     151    1.087864   152    1.099393   153    1.115476  
     154    1.118023   155    1.159412   156    1.164307  
     157    1.169223   158    1.204010   159    1.209648  
     160    1.230356   161    1.246802   162    1.254572  
     163    1.276951   164    1.287223   165    1.295922  
     166    1.310724   167    1.317297   168    1.331569  
     169    1.343061   170    1.349221   171    1.372817  
     172    1.385531   173    1.391508   174    1.398922  
     175    1.411038   176    1.447941   177    1.472048  
     178    1.483446   179    1.488169   180    1.501588  
     181    1.523202   182    1.535847   183    1.554876  
     184    1.561078   185    1.577042   186    1.583075  
     187    1.599700   188    1.605750   189    1.609965  
     190    1.616898   191    1.644577   192    1.653196  
     193    1.660867   194    1.663287   195    1.667976  
     196    1.674277   197    1.688482   198    1.699449  
     199    1.719109   200    1.726856   201    1.733340  
     202    1.761655   203    1.771275   204    1.775449  
     205    1.804568   206    1.818431   207    1.827798  
     208    1.844244   209    1.858160   210    1.872282  
     211    1.876871   212    1.892396   213    1.905613  
     214    1.923463   215    1.929344   216    1.943006  
     217    1.947287   218    1.958330   219    1.970515  
     220    1.973710   221    1.984606   222    1.990635  
     223    2.000348   224    2.010776   225    2.013200  
     226    2.016167   227    2.027385   228    2.032295  
     229    2.038790   230    2.049603   231    2.053779  
     232    2.064263   233    2.081384   234    2.087113  
     235    2.099668   236    2.112622   237    2.145230  
     238    2.153726   239    2.162974   240    2.178496  
     241    2.191250   242    2.200177   243    2.223451  
     244    2.235947   245    2.241266   246    2.256886  
     247    2.282669   248    2.300336   249    2.325283  
     250    2.338989   251    2.353736   252    2.373882  
     253    2.389077   254    2.396636   255    2.400549  
     256    2.410729   257    2.422707   258    2.426835  
     259    2.435516   260    2.455324   261    2.461218  
     262    2.510606   263    2.533579   264    2.547590  
     265    2.565447   266    2.587534   267    2.616785  
     268    2.637197   269    2.642524   270    2.677932  
     271    2.721172   272    2.730598   273    2.756248  
     274    2.772738   275    2.781333   276    2.799124  
     277    2.808974   278    2.815755   279    2.836040  
     280    2.856931   281    2.861067   282    2.877239  
     283    2.885145   284    2.898447   285    2.907819  
     286    2.918934   287    2.928305   288    2.946841  
     289    2.985844   290    3.039769   291    3.074597  
     292    3.084230   293    3.107317   294    3.124063  
     295    3.135827   296    3.202649   297    3.251971  
     298    3.270869   299    3.276891   300    3.297569  
     301    3.321373   302    3.396301   303    3.423321  
     304    3.570509   305    3.578878   306    3.603902  
     307    3.689607   308    3.702289   309    3.785508  
     310    3.796146   311    3.930058   312    3.953983  
     313    4.046916   314    4.073122   315    4.102951  
     316    4.493077   317    4.538837   318   13.275495  

  ==> Frozen Core <==


    ------------------
    Range      A     B
    ------------------
    nbf      358   358
    nmo      318   318
    nocc       4    15
    nvir     314   303
    nfocc      1     4
    naocc      3    11
    navir    314   303
    nfvir      0     0
    ------------------

  ==> Unification <==

  ==> dHF <==

    E ABC(HF) =  -7.6212068419796208E+02 [Eh]
    E AC(0)   =  -5.3410300031788506E+02 [Eh]
    E BC(0)   =  -7.2199077844315525E+02 [Eh]
    E A(0)    =  -2.5019717756620441E+01 [Eh]
    E B(0)    =  -2.1266069909032046E+02 [Eh]
    E AC(HF)  =  -5.3410125188598590E+02 [Eh]
    E BC(HF)  =  -7.2198127371379564E+02 [Eh]
    E AB(HF)  =  -2.3764958761388172E+02 [Eh]
    E A(HF)   =  -2.5005792737973533E+01 [Eh]
    E B(HF)   =  -2.1264375142343164E+02 [Eh]
    E C       =  -4.9396188485429866E+02 [Eh]
    E HF      =   1.1209708779574612E-02 [Eh]

  ==> Electrostatics <==

    Elst10,r            =     0.008422005801 [Eh]

  ==> Exchange <==

    Exch10(S^2)         =     0.003953009599 [Eh]
    Exch10              =     0.003963738613 [Eh]

  ==> Induction <==

    Ind20,u (A<-B)      =    -0.000962642445 [Eh]
    Ind20,u (B<-A)      =    -0.000494499203 [Eh]
    Ind20,u             =    -0.001457141648 [Eh]
    Exch-Ind20,u (A<-B) =     0.000414613101 [Eh]
    Exch-Ind20,u (B<-A) =     0.000216506270 [Eh]
    Exch-Ind20,u        =     0.000631119370 [Eh]

  ==> CPHF Iterations <==

    Maxiter     =          50
    Convergence =   1.000E-08

    -----------------------------------------
    Iter   Monomer A    Monomer B    Time [s]
    -----------------------------------------
    1      1.523E-01    2.317E-01           1
    2      2.758E-02    7.627E-02           1
    3      5.471E-03    2.147E-02           2
    4      7.837E-04    8.163E-03           3
    5      9.993E-05    2.786E-03           4
    6      1.438E-05    7.854E-04           5
    7      2.126E-06    2.045E-04           5
    8      3.098E-07    5.701E-05           6
    9      3.916E-08    1.498E-05           7
    10     3.999E-09*   4.837E-06           8
    11     3.999E-09*   1.421E-06           8
    12     3.999E-09*   3.406E-07           9
    13     3.999E-09*   1.107E-07           9
    14     3.999E-09*   3.374E-08          10
    15     3.999E-09*   8.475E-09*         10
    -----------------------------------------

    Ind20,r (A<-B)      =    -0.001117525831 [Eh]
    Ind20,r (B<-A)      =    -0.000567386036 [Eh]
    Ind20,r             =    -0.001684911867 [Eh]
    Exch-Ind20,r (A<-B) =     0.000505953997 [Eh]
    Exch-Ind20,r (B<-A) =     0.000277448144 [Eh]
    Exch-Ind20,r        =     0.000783402141 [Eh]

  ==> F-SAPT Localization (IBO) <==

  Local Orbitals for Monomer A:

  ==> IBO Localizer 2 <==

    MinAO Basis = CC-PVTZ-MINAO
    Use Ghosts  =       FALSE
    Use Stars   =       FALSE
    Condition   =   1.000E-07
    Power       =           4
    Convergence =   1.000E-12
    Maxiter     =        1000

    @IBO Iter:                   Metric       Gradient
    @IBO    1:   1.0649742241485174E+00   3.189913E-02
    @IBO    2:   1.0836139401348270E+00   1.351241E-02
    @IBO    3:   1.0837433168787725E+00   6.511675E-05
    @IBO    4:   1.0837433198443993E+00   5.181652E-09
    @IBO    5:   1.0837433198443993E+00   2.890433E-12
    @IBO    6:   1.0837433198443993E+00   3.249998E-16

    IBO Localizer 2 converged.

  Local Orbitals for Monomer B:

  ==> IBO Localizer 2 <==

    MinAO Basis = CC-PVTZ-MINAO
    Use Ghosts  =       FALSE
    Use Stars   =       FALSE
    Condition   =   1.000E-07
    Power       =           4
    Convergence =   1.000E-12
    Maxiter     =        1000

    @IBO Iter:                   Metric       Gradient
    @IBO    1:   1.4834408389265301E+00   1.685195E+00
    @IBO    2:   1.6771594115245700E+00   9.310334E-01
    @IBO    3:   1.7088664380191032E+00   3.446173E-01
    @IBO    4:   1.7103681186268844E+00   3.489548E-03
    @IBO    5:   1.7103685806760029E+00   1.692249E-04
    @IBO    6:   1.7103685810117806E+00   2.519491E-06
    @IBO    7:   1.7103685810118845E+00   6.866782E-08
    @IBO    8:   1.7103685810118845E+00   1.548034E-09
    @IBO    9:   1.7103685810118847E+00   4.129862E-11
    @IBO   10:   1.7103685810118845E+00   1.481058E-12
    @IBO   11:   1.7103685810118845E+00   6.275649E-14

    IBO Localizer 2 converged.

  ==> F-SAPT Electrostatics <==

  ==> DFERI: Density Fitted 3-Index Tensors <==

    Schwarz cutoff =   0.000E+00
    J cutoff       =   1.000E-12
    Mem (GB)       =         628

   => Auxiliary Basis <=

  Basis Set: (JUN-CC-PVDZ AUX)
    Blend: JUN-CC-PVDZ-JKFIT
    Number of shells: 558
    Number of basis function: 1586
    Number of Cartesian functions: 1806
    Spherical Harmonics?: true
    Max angular momentum: 3

    Elst10,r            =     0.008421979928 [Eh]

  ==> F-SAPT Exchange <==

  ==> DFERI: Density Fitted 3-Index Tensors <==

    Schwarz cutoff =   0.000E+00
    J cutoff       =   1.000E-12
    Mem (GB)       =         628

   => Auxiliary Basis <=

  Basis Set: (JUN-CC-PVDZ AUX)
    Blend: JUN-CC-PVDZ-JKFIT
    Number of shells: 558
    Number of basis function: 1586
    Number of Cartesian functions: 1806
    Spherical Harmonics?: true
    Max angular momentum: 3

    Exch10(S^2)         =     0.003952994699 [Eh]

    Scaling F-SAPT Exch10(S^2) by   1.003E+00 to match Exch10

  ==> F-SAPT Induction <==

  ==> DFERI: Density Fitted 3-Index Tensors <==

    Schwarz cutoff =   0.000E+00
    J cutoff       =   1.000E-12
    Mem (GB)       =         628

   => Auxiliary Basis <=

  Basis Set: (JUN-CC-PVDZ AUX)
    Blend: JUN-CC-PVDZ-JKFIT
    Number of shells: 558
    Number of basis function: 1586
    Number of Cartesian functions: 1806
    Spherical Harmonics?: true
    Max angular momentum: 3

    Ind20,u (A<-B)      =    -0.000962643338 [Eh]
    Ind20,u (B<-A)      =    -0.000494499416 [Eh]
    Ind20,u             =    -0.001457142754 [Eh]
    Exch-Ind20,u (A<-B) =     0.000414613059 [Eh]
    Exch-Ind20,u (B<-A) =     0.000216506428 [Eh]
    Exch-Ind20,u        =     0.000631119487 [Eh]

    Scaling for delta HF        =   1.305E+00
    Scaling for response (A<-B) =   1.116E+00
    Scaling for response (B<-A) =   1.043E+00
    Scaling for total (A<-B)    =   1.456E+00
    Scaling for total (B<-A)    =   1.361E+00

  ==> F-SAPT Dispersion <==

  ==> DFERI: Density Fitted 3-Index Tensors <==

    Schwarz cutoff =   0.000E+00
    J cutoff       =   1.000E-12
    Mem (GB)       =         628

   => Auxiliary Basis <=

  Basis Set: (JUN-CC-PVDZ AUX)
    Blend: JUN-CC-PVDZ-RI
    Number of shells: 420
    Number of basis function: 1236
    Number of Cartesian functions: 1426
    Spherical Harmonics?: true
    Max angular momentum: 3

    Disp20              =    -0.002689804192 [Eh]
    Exch-Disp20         =     0.000283908533 [Eh]

  ==> F-SAPT Output <==

    F-SAPT Data Filepath = fsapt/

  ==> Results <==


    SAPT Results  
  --------------------------------------------------------------------------------------------------------
    Electrostatics                  8.42200580 [mEh]       5.28488865 [kcal/mol]      22.11197623 [kJ/mol]
      Elst10,r                      8.42200580 [mEh]       5.28488865 [kcal/mol]      22.11197623 [kJ/mol]

    Exchange                        3.96373861 [mEh]       2.48728364 [kcal/mol]      10.40679573 [kJ/mol]
      Exch10                        3.96373861 [mEh]       2.48728364 [kcal/mol]      10.40679573 [kJ/mol]
      Exch10(S^2)                   3.95300960 [mEh]       2.48055108 [kcal/mol]      10.37862670 [kJ/mol]

    Induction                      -1.17603563 [mEh]      -0.73797353 [kcal/mol]      -3.08768156 [kJ/mol]
      Ind20,r                      -1.68491187 [mEh]      -1.05729820 [kcal/mol]      -4.42373611 [kJ/mol]
      Exch-Ind20,r                  0.78340214 [mEh]       0.49159229 [kcal/mol]       2.05682232 [kJ/mol]
      delta HF,r (2)               -0.27452591 [mEh]      -0.17226762 [kcal/mol]      -0.72076777 [kJ/mol]
      Induction (A<-B)             -0.79780645 [mEh]      -0.50063112 [kcal/mol]      -2.09464082 [kJ/mol]
      Induction (B<-A)             -0.37822919 [mEh]      -0.23734241 [kcal/mol]      -0.99304074 [kJ/mol]

    Dispersion                     -2.40589566 [mEh]      -1.50972238 [kcal/mol]      -6.31667905 [kJ/mol]
      Disp20                       -2.68980419 [mEh]      -1.68787768 [kcal/mol]      -7.06208091 [kJ/mol]
      Exch-Disp20                   0.28390853 [mEh]       0.17815530 [kcal/mol]       0.74540185 [kJ/mol]

  Total HF                         11.20970878 [mEh]       7.03419875 [kcal/mol]      29.43109040 [kJ/mol]
  Total SAPT0                       8.80381312 [mEh]       5.52447637 [kcal/mol]      23.11441135 [kJ/mol]

  --------------------------------------------------------------------------------------------------------
    Han Solo: This is *not* gonna work.
    Luke Skywalker: Why didn't you say so before?
    Han Solo: I *did* say so before.

*** tstop() called on vega02.cac.cornell.edu at Thu Oct 19 09:21:02 2017
Module time:
	user time   =    1726.21 seconds =      28.77 minutes
	system time =      11.25 seconds =       0.19 minutes
	total time  =         66 seconds =       1.10 minutes
Total time:
	user time   =    2454.00 seconds =      40.90 minutes
	system time =      17.17 seconds =       0.29 minutes
	total time  =        100 seconds =       1.67 minutes

*** Psi4 exiting successfully. Buy a developer a beer!
