
    -----------------------------------------------------------------------
          Psi4: An Open-Source Ab Initio Electronic Structure Package
                               Psi4 1.1 release

                         Git: Rev {HEAD} add49b9 


    R. M. Parrish, L. A. Burns, D. G. A. Smith, A. C. Simmonett,
    A. E. DePrince III, E. G. Hohenstein, U. Bozkaya, A. Yu. Sokolov,
    R. Di Remigio, R. M. Richard, J. F. Gonthier, A. M. James,
    H. R. McAlexander, A. Kumar, M. Saitow, X. Wang, B. P. Pritchard,
    P. Verma, H. F. Schaefer III, K. Patkowski, R. A. King, E. F. Valeev,
    F. A. Evangelista, J. M. Turney, T. D. Crawford, and C. D. Sherrill,
    J. Chem. Theory Comput. in press (2017).
    (doi: 10.1021/acs.jctc.7b00174)

    -----------------------------------------------------------------------


    Psi4 started on: Tuesday, 12 December 2017 11:31AM

    Process ID:  15648
    PSIDATADIR: /home/junteng/Softwares/psi4conda/share/psi4
    Memory:     500.0 MiB
    Threads:    1
    
  ==> Input File <==

--------------------------------------------------------------------------
memory 750000 mb

molecule mol {
0 1
C         -0.36246        1.77404       -0.03093
O         -1.01115        2.79517        0.01728
O          0.98150        1.78708       -0.14230
C          1.60613        3.07592       -0.24426
H          1.19886        3.62977       -1.09082
H          1.44902        3.64872        0.67119
H          2.66388        2.87120       -0.39418
--
0 1
C          1.41689       -0.66363       -0.25233
O          1.99747       -0.72055       -1.30696
O          2.02794       -0.66002        0.94797
C          3.46566       -0.62344        0.91669
H          3.77915       -0.63557        1.95813
H          3.80824        0.28723        0.42255
H          3.86081       -1.48987        0.38392
--
0 1
C         -3.31850        1.33923        0.25178
H         -4.32452        0.92570        0.34946
H         -3.29004        1.99245       -0.62168
H         -3.11588        1.97683        1.11393
C          0.28394       -3.26195       -0.22184
H         -0.29293       -4.17626       -0.07391
H          0.73875       -3.30313       -1.21531
H          1.09648       -3.25476        0.50988
C         -0.07938       -0.74456       -0.09226
C         -0.91886        0.38718        0.01080
C         -0.60256       -2.04673       -0.08055
C         -1.98191       -2.19664        0.05166
C         -2.81528       -1.09361        0.16028
C         -2.32023        0.21153        0.13817
H         -3.88430       -1.24347        0.26351
H         -2.40797       -3.19452        0.06838

symmetry c1
no_reorient
no_com
}

set {
basis jun-cc-pvdz
scf_type df
guess sad
freeze_core true
}

energy('fisapt0')
--------------------------------------------------------------------------

  Memory set to 698.492 GiB by Python driver.

*** tstart() called on ThinkPad-P50
*** at Tue Dec 12 11:31:00 2017

   => Loading Basis Set <=

    Name: JUN-CC-PVDZ
    Role: ORBITAL
    Keyword: BASIS
    atoms 1, 4, 8, 11, 15, 19, 23-28      entry C          line   157 file /home/junteng/Softwares/psi4conda/share/psi4/basis/jun-cc-pvdz.gbs 
    atoms 2-3, 9-10                       entry O          line   225 file /home/junteng/Softwares/psi4conda/share/psi4/basis/jun-cc-pvdz.gbs 
    atoms 5-7, 12-14, 16-18, 20-22, 29-30 entry H          line    35 file /home/junteng/Softwares/psi4conda/share/psi4/basis/jun-cc-pvdz.gbs 


         ---------------------------------------------------------
                                   SCF
            by Justin Turney, Rob Parrish, and Andy Simmonett
                              RHF Reference
                        1 Threads, 715255 MiB Core
         ---------------------------------------------------------

  ==> Geometry <==

    Molecular point group: c1
    Full point group: C1

    Geometry (in Angstrom), charge = 0, multiplicity = 1:

       Center              X                  Y                   Z               Mass       
    ------------   -----------------  -----------------  -----------------  -----------------
           C         -0.362460000000     1.774040000000    -0.030930000000    12.000000000000
           O         -1.011150000000     2.795170000000     0.017280000000    15.994914619560
           O          0.981500000000     1.787080000000    -0.142300000000    15.994914619560
           C          1.606130000000     3.075920000000    -0.244260000000    12.000000000000
           H          1.198860000000     3.629770000000    -1.090820000000     1.007825032070
           H          1.449020000000     3.648720000000     0.671190000000     1.007825032070
           H          2.663880000000     2.871200000000    -0.394180000000     1.007825032070
           C          1.416890000000    -0.663630000000    -0.252330000000    12.000000000000
           O          1.997470000000    -0.720550000000    -1.306960000000    15.994914619560
           O          2.027940000000    -0.660020000000     0.947970000000    15.994914619560
           C          3.465660000000    -0.623440000000     0.916690000000    12.000000000000
           H          3.779150000000    -0.635570000000     1.958130000000     1.007825032070
           H          3.808240000000     0.287230000000     0.422550000000     1.007825032070
           H          3.860810000000    -1.489870000000     0.383920000000     1.007825032070
           C         -3.318500000000     1.339230000000     0.251780000000    12.000000000000
           H         -4.324520000000     0.925700000000     0.349460000000     1.007825032070
           H         -3.290040000000     1.992450000000    -0.621680000000     1.007825032070
           H         -3.115880000000     1.976830000000     1.113930000000     1.007825032070
           C          0.283940000000    -3.261950000000    -0.221840000000    12.000000000000
           H         -0.292930000000    -4.176260000000    -0.073910000000     1.007825032070
           H          0.738750000000    -3.303130000000    -1.215310000000     1.007825032070
           H          1.096480000000    -3.254760000000     0.509880000000     1.007825032070
           C         -0.079380000000    -0.744560000000    -0.092260000000    12.000000000000
           C         -0.918860000000     0.387180000000     0.010800000000    12.000000000000
           C         -0.602560000000    -2.046730000000    -0.080550000000    12.000000000000
           C         -1.981910000000    -2.196640000000     0.051660000000    12.000000000000
           C         -2.815280000000    -1.093610000000     0.160280000000    12.000000000000
           C         -2.320230000000     0.211530000000     0.138170000000    12.000000000000
           H         -3.884300000000    -1.243470000000     0.263510000000     1.007825032070
           H         -2.407970000000    -3.194520000000     0.068380000000     1.007825032070

  Running in c1 symmetry.

  Rotational constants: A =      0.02124  B =      0.01870  C =      0.01077 [cm^-1]
  Rotational constants: A =    636.63916  B =    560.58684  C =    322.97746 [MHz]
  Nuclear repulsion = 1142.423963576102324

  Charge       = 0
  Multiplicity = 1
  Electrons    = 118
  Nalpha       = 59
  Nbeta        = 59

  ==> Algorithm <==

  SCF Algorithm Type is DF.
  DIIS enabled.
  MOM disabled.
  Fractional occupation disabled.
  Guess Type is SAD.
  Energy threshold   = 1.00e-08
  Density threshold  = 1.00e-08
  Integral threshold = 0.00e+00

  ==> Primary Basis <==

  Basis Set: JUN-CC-PVDZ
    Blend: JUN-CC-PVDZ
    Number of shells: 170
    Number of basis function: 358
    Number of Cartesian functions: 374
    Spherical Harmonics?: true
    Max angular momentum: 2

   => Loading Basis Set <=

    Name: (JUN-CC-PVDZ AUX)
    Role: JKFIT
    Keyword: DF_BASIS_SCF
    atoms 1, 4, 8, 11, 15, 19, 23-28      entry C          line   145 file /home/junteng/Softwares/psi4conda/share/psi4/basis/jun-cc-pvdz-jkfit.gbs 
    atoms 2-3, 9-10                       entry O          line   257 file /home/junteng/Softwares/psi4conda/share/psi4/basis/jun-cc-pvdz-jkfit.gbs 
    atoms 5-7, 12-14, 16-18, 20-22, 29-30 entry H          line    69 file /home/junteng/Softwares/psi4conda/share/psi4/basis/jun-cc-pvdz-jkfit.gbs 

  ==> Pre-Iterations <==

   -------------------------------------------------------
    Irrep   Nso     Nmo     Nalpha   Nbeta   Ndocc  Nsocc
   -------------------------------------------------------
     A        358     358       0       0       0       0
   -------------------------------------------------------
    Total     358     358      59      59      59       0
   -------------------------------------------------------

  ==> Integral Setup <==

  ==> DFJK: Density-Fitted J/K Matrices <==

    J tasked:                  Yes
    K tasked:                  Yes
    wK tasked:                  No
    OpenMP threads:              1
    Integrals threads:           1
    Memory (MB):            536441
    Algorithm:                Core
    Integral Cache:           NONE
    Schwarz Cutoff:          1E-12
    Fitting Condition:       1E-12

   => Auxiliary Basis Set <=

  Basis Set: (JUN-CC-PVDZ AUX)
    Blend: JUN-CC-PVDZ-JKFIT
    Number of shells: 558
    Number of basis function: 1586
    Number of Cartesian functions: 1806
    Spherical Harmonics?: true
    Max angular momentum: 3

  Minimum eigenvalue in the overlap matrix is 2.7559880425E-06.
  Using Symmetric Orthogonalization.

  SCF Guess: Superposition of Atomic Densities via on-the-fly atomic UHF.

  ==> Iterations <==

                           Total Energy        Delta E     RMS |[F,P]|

   @DF-RHF iter   0:  -768.14764490932987   -7.68148e+02   2.04751e-02 
   @DF-RHF iter   1:  -761.59651530457654    6.55113e+00   2.43339e-03 
   @DF-RHF iter   2:  -761.98737550847079   -3.90860e-01   1.44953e-03 DIIS
   @DF-RHF iter   3:  -762.09562224364845   -1.08247e-01   4.77963e-04 DIIS
   @DF-RHF iter   4:  -762.11520750081240   -1.95853e-02   1.57197e-04 DIIS
   @DF-RHF iter   5:  -762.11765103790390   -2.44354e-03   5.06092e-05 DIIS
   @DF-RHF iter   6:  -762.11810992471408   -4.58887e-04   2.24040e-05 DIIS
   @DF-RHF iter   7:  -762.11821024248547   -1.00318e-04   9.34474e-06 DIIS
   @DF-RHF iter   8:  -762.11822836737542   -1.81249e-05   3.31468e-06 DIIS
   @DF-RHF iter   9:  -762.11823108466024   -2.71728e-06   1.64487e-06 DIIS
   @DF-RHF iter  10:  -762.11823167329646   -5.88636e-07   5.90816e-07 DIIS
   @DF-RHF iter  11:  -762.11823175412223   -8.08258e-08   2.12254e-07 DIIS
   @DF-RHF iter  12:  -762.11823176412508   -1.00029e-08   9.48400e-08 DIIS
   @DF-RHF iter  13:  -762.11823176580913   -1.68404e-09   3.80424e-08 DIIS
   @DF-RHF iter  14:  -762.11823176615292   -3.43789e-10   1.71672e-08 DIIS
   @DF-RHF iter  15:  -762.11823176622988   -7.69660e-11   6.98934e-09 DIIS

  ==> Post-Iterations <==

    Orbital Energies (a.u.)
    -----------------------

    Doubly Occupied:                                                      

       1A    -20.612584     2A    -20.610918     3A    -20.555298  
       4A    -20.554145     5A    -11.397558     6A    -11.396853  
       7A    -11.298022     8A    -11.297013     9A    -11.276514  
      10A    -11.271021    11A    -11.269174    12A    -11.261988  
      13A    -11.257638    14A    -11.247689    15A    -11.238557  
      16A    -11.227434    17A     -1.473574    18A     -1.464807  
      19A     -1.367365    20A     -1.365875    21A     -1.183207  
      22A     -1.085381    23A     -1.064732    24A     -0.993822  
      25A     -0.985384    26A     -0.970212    27A     -0.914906  
      28A     -0.879042    29A     -0.833034    30A     -0.784992  
      31A     -0.770423    32A     -0.726626    33A     -0.708241  
      34A     -0.696648    35A     -0.680226    36A     -0.673518  
      37A     -0.668488    38A     -0.655308    39A     -0.641024  
      40A     -0.607125    41A     -0.592198    42A     -0.583252  
      43A     -0.574890    44A     -0.566977    45A     -0.561838  
      46A     -0.551483    47A     -0.547962    48A     -0.537875  
      49A     -0.534509    50A     -0.527891    51A     -0.515376  
      52A     -0.503744    53A     -0.488750    54A     -0.472206  
      55A     -0.457093    56A     -0.453029    57A     -0.444501  
      58A     -0.355286    59A     -0.330407  

    Virtual:                                                              

      60A      0.053284    61A      0.055049    62A      0.058599  
      63A      0.066801    64A      0.071283    65A      0.076490  
      66A      0.084517    67A      0.092534    68A      0.095991  
      69A      0.101152    70A      0.103327    71A      0.108932  
      72A      0.114314    73A      0.117166    74A      0.119102  
      75A      0.126304    76A      0.134735    77A      0.137329  
      78A      0.143674    79A      0.149406    80A      0.152146  
      81A      0.160177    82A      0.164037    83A      0.170772  
      84A      0.172864    85A      0.182289    86A      0.189218  
      87A      0.191519    88A      0.201379    89A      0.203253  
      90A      0.211489    91A      0.221073    92A      0.225176  
      93A      0.229069    94A      0.230077    95A      0.234724  
      96A      0.235523    97A      0.243397    98A      0.249249  
      99A      0.255011   100A      0.262303   101A      0.266645  
     102A      0.271134   103A      0.273641   104A      0.277430  
     105A      0.292459   106A      0.294898   107A      0.296283  
     108A      0.301447   109A      0.303394   110A      0.316015  
     111A      0.320383   112A      0.324472   113A      0.332264  
     114A      0.333820   115A      0.339599   116A      0.341527  
     117A      0.346934   118A      0.352559   119A      0.359336  
     120A      0.372628   121A      0.375323   122A      0.375904  
     123A      0.382723   124A      0.394064   125A      0.400565  
     126A      0.401049   127A      0.413032   128A      0.414121  
     129A      0.418250   130A      0.421199   131A      0.432449  
     132A      0.434255   133A      0.440575   134A      0.448980  
     135A      0.456365   136A      0.464213   137A      0.466693  
     138A      0.475294   139A      0.476946   140A      0.484909  
     141A      0.495301   142A      0.497192   143A      0.510747  
     144A      0.517282   145A      0.524573   146A      0.533974  
     147A      0.540417   148A      0.553005   149A      0.582877  
     150A      0.586566   151A      0.611116   152A      0.624180  
     153A      0.641893   154A      0.677097   155A      0.699604  
     156A      0.727986   157A      0.747514   158A      0.755075  
     159A      0.767689   160A      0.784039   161A      0.791112  
     162A      0.795166   163A      0.805895   164A      0.826026  
     165A      0.838081   166A      0.842564   167A      0.855891  
     168A      0.871781   169A      0.880975   170A      0.891807  
     171A      0.895636   172A      0.908856   173A      0.911423  
     174A      0.916620   175A      0.922459   176A      0.928877  
     177A      0.932710   178A      0.934699   179A      0.941635  
     180A      0.944224   181A      0.950433   182A      0.958127  
     183A      0.964782   184A      0.965062   185A      0.969620  
     186A      0.976601   187A      0.986221   188A      0.991095  
     189A      0.993775   190A      1.003489   191A      1.023250  
     192A      1.026890   193A      1.042898   194A      1.057444  
     195A      1.060429   196A      1.068748   197A      1.076225  
     198A      1.094965   199A      1.119295   200A      1.133039  
     201A      1.139343   202A      1.143147   203A      1.160550  
     204A      1.171164   205A      1.176546   206A      1.211670  
     207A      1.216099   208A      1.228446   209A      1.233115  
     210A      1.245664   211A      1.258063   212A      1.264176  
     213A      1.282054   214A      1.306877   215A      1.322353  
     216A      1.326921   217A      1.332336   218A      1.360053  
     219A      1.372272   220A      1.386561   221A      1.396930  
     222A      1.406449   223A      1.428301   224A      1.450817  
     225A      1.490243   226A      1.491979   227A      1.510869  
     228A      1.519919   229A      1.542969   230A      1.557287  
     231A      1.563295   232A      1.578095   233A      1.590223  
     234A      1.599073   235A      1.607272   236A      1.612579  
     237A      1.627828   238A      1.644447   239A      1.655843  
     240A      1.667957   241A      1.673238   242A      1.678328  
     243A      1.696785   244A      1.699867   245A      1.712440  
     246A      1.719823   247A      1.732933   248A      1.757965  
     249A      1.775400   250A      1.795088   251A      1.803415  
     252A      1.815510   253A      1.826506   254A      1.835154  
     255A      1.856283   256A      1.872098   257A      1.880271  
     258A      1.903903   259A      1.908968   260A      1.923546  
     261A      1.932056   262A      1.939350   263A      1.950292  
     264A      1.962179   265A      1.969703   266A      1.971098  
     267A      1.981592   268A      1.986552   269A      1.999592  
     270A      2.011029   271A      2.016272   272A      2.023764  
     273A      2.035790   274A      2.043561   275A      2.048836  
     276A      2.056842   277A      2.063508   278A      2.075186  
     279A      2.082484   280A      2.096800   281A      2.108970  
     282A      2.114560   283A      2.135575   284A      2.144290  
     285A      2.166186   286A      2.172155   287A      2.181511  
     288A      2.187101   289A      2.197888   290A      2.213572  
     291A      2.247349   292A      2.263982   293A      2.281884  
     294A      2.297928   295A      2.308290   296A      2.337927  
     297A      2.359884   298A      2.365688   299A      2.388768  
     300A      2.398387   301A      2.405306   302A      2.419657  
     303A      2.432769   304A      2.436797   305A      2.449048  
     306A      2.472549   307A      2.514582   308A      2.517408  
     309A      2.530115   310A      2.556680   311A      2.593196  
     312A      2.599486   313A      2.607249   314A      2.652035  
     315A      2.684468   316A      2.713549   317A      2.758832  
     318A      2.772111   319A      2.780029   320A      2.790338  
     321A      2.814108   322A      2.836882   323A      2.852021  
     324A      2.857347   325A      2.867549   326A      2.874861  
     327A      2.879092   328A      2.893709   329A      2.904539  
     330A      2.913666   331A      2.939354   332A      2.954106  
     333A      2.995384   334A      3.027197   335A      3.037798  
     336A      3.061343   337A      3.087433   338A      3.113912  
     339A      3.139475   340A      3.154128   341A      3.233807  
     342A      3.248731   343A      3.284016   344A      3.292665  
     345A      3.338380   346A      3.375796   347A      3.440558  
     348A      3.550580   349A      3.576152   350A      3.646294  
     351A      3.681140   352A      3.732188   353A      3.775123  
     354A      3.832623   355A      3.939662   356A      3.991461  
     357A      4.086793   358A      4.094094  

    Final Occupation by Irrep:
              A 
    DOCC [    59 ]

  Energy converged.

  @DF-RHF Final Energy:  -762.11823176622988

   => Energetics <=

    Nuclear Repulsion Energy =           1142.4239635761023237
    One-Electron Energy =               -3309.9531224992015268
    Two-Electron Energy =                1405.4109271568693202
    DFT Exchange-Correlation Energy =       0.0000000000000000
    Empirical Dispersion Energy =           0.0000000000000000
    PCM Polarization Energy =               0.0000000000000000
    EFP Energy =                            0.0000000000000000
    Total Energy =                       -762.1182317662298829



Properties will be evaluated at   0.000000,   0.000000,   0.000000 Bohr

Properties computed using the SCF density matrix

  Nuclear Dipole Moment: (a.u.)
     X:    -0.9708      Y:     1.1183      Z:     3.9991

  Electronic Dipole Moment: (a.u.)
     X:     1.2676      Y:    -1.6706      Z:    -3.3393

  Dipole Moment: (a.u.)
     X:     0.2968      Y:    -0.5523      Z:     0.6598     Total:     0.9102

  Dipole Moment: (Debye)
     X:     0.7545      Y:    -1.4038      Z:     1.6771     Total:     2.3135


*** tstop() called on ThinkPad-P50 at Tue Dec 12 11:34:15 2017
Module time:
	user time   =     193.06 seconds =       3.22 minutes
	system time =       1.56 seconds =       0.03 minutes
	total time  =        195 seconds =       3.25 minutes
Total time:
	user time   =     193.06 seconds =       3.22 minutes
	system time =       1.56 seconds =       0.03 minutes
	total time  =        195 seconds =       3.25 minutes
   => Loading Basis Set <=

    Name: (JUN-CC-PVDZ AUX)
    Role: JKFIT
    Keyword: DF_BASIS_SCF
    atoms 1, 4, 8, 11, 15, 19, 23-28      entry C          line   145 file /home/junteng/Softwares/psi4conda/share/psi4/basis/jun-cc-pvdz-jkfit.gbs 
    atoms 2-3, 9-10                       entry O          line   257 file /home/junteng/Softwares/psi4conda/share/psi4/basis/jun-cc-pvdz-jkfit.gbs 
    atoms 5-7, 12-14, 16-18, 20-22, 29-30 entry H          line    69 file /home/junteng/Softwares/psi4conda/share/psi4/basis/jun-cc-pvdz-jkfit.gbs 

   => Loading Basis Set <=

    Name: (JUN-CC-PVDZ AUX)
    Role: RIFIT
    Keyword: DF_BASIS_SAPT
    atoms 1, 4, 8, 11, 15, 19, 23-28      entry C          line    99 file /home/junteng/Softwares/psi4conda/share/psi4/basis/jun-cc-pvdz-ri.gbs 
    atoms 2-3, 9-10                       entry O          line   187 file /home/junteng/Softwares/psi4conda/share/psi4/basis/jun-cc-pvdz-ri.gbs 
    atoms 5-7, 12-14, 16-18, 20-22, 29-30 entry H          line    29 file /home/junteng/Softwares/psi4conda/share/psi4/basis/jun-cc-pvdz-ri.gbs 

   => Loading Basis Set <=

    Name: CC-PVTZ-MINAO
    Role: ORBITAL
    Keyword: BASIS
    atoms 1, 4, 8, 11, 15, 19, 23-28      entry C          line   130 file /home/junteng/Softwares/psi4conda/share/psi4/basis/cc-pvtz-minao.gbs 
    atoms 2-3, 9-10                       entry O          line   190 file /home/junteng/Softwares/psi4conda/share/psi4/basis/cc-pvtz-minao.gbs 
    atoms 5-7, 12-14, 16-18, 20-22, 29-30 entry H          line    19 file /home/junteng/Softwares/psi4conda/share/psi4/basis/cc-pvtz-minao.gbs 


*** tstart() called on ThinkPad-P50
*** at Tue Dec 12 11:34:17 2017

	 --------------------------------------------
	                    FISAPT0                  
	                  Rob Parrish                
	 --------------------------------------------

    Do F-SAPT =         Yes
    Do Plot   =          No
    Memory    =      78.580 [GD]

  ==> Localization (IBO) <==

  ==> IBO Localizer 2 <==

    MinAO Basis = CC-PVTZ-MINAO
    Use Ghosts  =       FALSE
    Use Stars   =       FALSE
    Condition   =   1.000E-07
    Power       =           4
    Convergence =   1.000E-12
    Maxiter     =        1000

    @IBO Iter:                   Metric       Gradient
    @IBO    1:   1.9689205564991383E+00   2.828342E+00
    @IBO    2:   2.2120486978125604E+00   1.949304E+00
    @IBO    3:   2.2821443635447540E+00   9.671307E-01
    @IBO    4:   2.2886270872361463E+00   5.820771E-02
    @IBO    5:   2.2886479186556175E+00   6.625279E-04
    @IBO    6:   2.2886479229838215E+00   3.973451E-05
    @IBO    7:   2.2886479230401808E+00   8.227243E-06
    @IBO    8:   2.2886479230428449E+00   1.841823E-06
    @IBO    9:   2.2886479230429830E+00   4.174160E-07
    @IBO   10:   2.2886479230429906E+00   9.504981E-08
    @IBO   11:   2.2886479230429906E+00   2.169600E-08
    @IBO   12:   2.2886479230429906E+00   4.959222E-09
    @IBO   13:   2.2886479230429906E+00   1.134533E-09
    @IBO   14:   2.2886479230429906E+00   2.596907E-10
    @IBO   15:   2.2886479230429910E+00   5.946421E-11
    @IBO   16:   2.2886479230429901E+00   1.361995E-11
    @IBO   17:   2.2886479230429906E+00   3.120316E-12
    @IBO   18:   2.2886479230429906E+00   7.150276E-13

    IBO Localizer 2 converged.

  ==> Partitioning <==

   => Atomic Partitioning <= 

    Monomer A:   7 atoms
    Monomer B:   7 atoms
    Monomer C:  16 atoms

   => Link Bond Identification <=

    Link Bond Selection = AUTOMATIC

    Charge Completeness = 0.800

    Total Link Bonds = 2

    --------------------------
    N     Orb Type Aind1 Aind2
    --------------------------
    1      18   AC     1    24
    2      19   BC     8    23
    --------------------------

   => Link Bond Assignment <=

    Link Bond Assignment      = C

   => Partition Summary <=

    Monomer A:  0 charge,  30 protons,  30 electrons,  15 docc
    Monomer B:  0 charge,  30 protons,  30 electrons,  15 docc
    Monomer C:  0 charge,  58 protons,  58 electrons,  29 docc

  ==> Overlap Integrals <==

  ==> Kinetic Integrals <==

  ==> Nuclear Integrals <==

    Nuclear Repulsion Tot:   1.1424239635761030E+03 [Eh]

  ==> Coulomb Integrals <==

  ==> DFJK: Density-Fitted J/K Matrices <==

    J tasked:                  Yes
    K tasked:                  Yes
    wK tasked:                  No
    OpenMP threads:              1
    Integrals threads:           1
    Memory (MB):            643730
    Algorithm:                Core
    Integral Cache:           NONE
    Schwarz Cutoff:          1E-12
    Fitting Condition:       1E-12

   => Auxiliary Basis Set <=

  Basis Set: (JUN-CC-PVDZ AUX)
    Blend: JUN-CC-PVDZ-JKFIT
    Number of shells: 558
    Number of basis function: 1586
    Number of Cartesian functions: 1806
    Spherical Harmonics?: true
    Max angular momentum: 3

  ==> Relaxed SCF Equations <==

  ==> SCF A: <==

    Maxiter =          50
    E Tol   =   1.000E-06
    D Tol   =   1.000E-08

    Max DIIS Vectors = 5

    Iter   N:                        E          dE         |D|
    Iter   1:  -2.2385959810814103E+02  -2.239E+02   1.130E-03 
    Iter   2:  -2.2388328928204726E+02  -2.369E-02   7.107E-05 DIIS
    Iter   3:  -2.2388364322142604E+02  -3.539E-04   2.800E-05 DIIS
    Iter   4:  -2.2388368234385933E+02  -3.912E-05   1.151E-05 DIIS
    Iter   5:  -2.2388369012149329E+02  -7.778E-06   1.978E-06 DIIS
    Iter   6:  -2.2388369052254350E+02  -4.011E-07   7.158E-07 DIIS
    Iter   7:  -2.2388369058075878E+02  -5.822E-08   2.239E-07 DIIS
    Iter   8:  -2.2388369058540681E+02  -4.648E-09   9.177E-08 DIIS
    Iter   9:  -2.2388369058610107E+02  -6.943E-10   3.539E-08 DIIS
    Iter  10:  -2.2388369058623573E+02  -1.347E-10   1.344E-08 DIIS
    Iter  11:  -2.2388369058625051E+02  -1.478E-11   6.113E-09 DIIS

    FISAPTSCF Converged.

    Final SCF Energy:  -2.2388369058625051E+02 [Eh]

   => Occupied Orbital Energies <=

       1  -20.598454     2  -20.540236     3  -11.383414  
       4  -11.289320     5   -1.431892     6   -1.348757  
       7   -0.956542     8   -0.760320     9   -0.662535  
      10   -0.653976    11   -0.616601    12   -0.531397  
      13   -0.529629    14   -0.467515    15   -0.453639  

   => Virtual Orbital Energies <=

      16    0.032478    17    0.053026    18    0.061251  
      19    0.064363    20    0.067208    21    0.078547  
      22    0.081928    23    0.091988    24    0.096119  
      25    0.099318    26    0.103269    27    0.108087  
      28    0.112412    29    0.115167    30    0.117157  
      31    0.128309    32    0.135944    33    0.136882  
      34    0.141146    35    0.147015    36    0.152295  
      37    0.154878    38    0.163499    39    0.167562  
      40    0.171021    41    0.177321    42    0.180556  
      43    0.185024    44    0.198911    45    0.201076  
      46    0.210413    47    0.218013    48    0.223979  
      49    0.226161    50    0.228286    51    0.239933  
      52    0.247503    53    0.248263    54    0.250404  
      55    0.255780    56    0.258203    57    0.263638  
      58    0.267550    59    0.276854    60    0.281397  
      61    0.288042    62    0.292414    63    0.296085  
      64    0.300721    65    0.307579    66    0.313882  
      67    0.317975    68    0.324331    69    0.325186  
      70    0.328058    71    0.336311    72    0.342937  
      73    0.349244    74    0.353669    75    0.357556  
      76    0.367171    77    0.375472    78    0.383587  
      79    0.383869    80    0.392602    81    0.395225  
      82    0.405633    83    0.408272    84    0.410512  
      85    0.416862    86    0.426304    87    0.429476  
      88    0.438753    89    0.449390    90    0.456434  
      91    0.464740    92    0.473327    93    0.480552  
      94    0.486223    95    0.491858    96    0.498246  
      97    0.503919    98    0.518764    99    0.521549  
     100    0.529618   101    0.538827   102    0.546017  
     103    0.566951   104    0.573565   105    0.599634  
     106    0.607359   107    0.617711   108    0.633284  
     109    0.649126   110    0.658537   111    0.686358  
     112    0.693008   113    0.704891   114    0.744663  
     115    0.757787   116    0.765516   117    0.789421  
     118    0.797147   119    0.815531   120    0.824617  
     121    0.843486   122    0.856421   123    0.864272  
     124    0.877727   125    0.888413   126    0.900547  
     127    0.910346   128    0.914654   129    0.926344  
     130    0.928810   131    0.930527   132    0.945194  
     133    0.947283   134    0.951623   135    0.955106  
     136    0.965678   137    0.972526   138    0.975196  
     139    0.977659   140    0.990006   141    0.992983  
     142    0.996239   143    1.003864   144    1.013457  
     145    1.020657   146    1.022628   147    1.049616  
     148    1.055447   149    1.074171   150    1.082648  
     151    1.096902   152    1.106635   153    1.126100  
     154    1.147487   155    1.155345   156    1.163515  
     157    1.164549   158    1.177512   159    1.183859  
     160    1.193457   161    1.214335   162    1.224814  
     163    1.246694   164    1.250089   165    1.264430  
     166    1.271923   167    1.284092   168    1.303993  
     169    1.316748   170    1.323467   171    1.345312  
     172    1.353747   173    1.374680   174    1.384703  
     175    1.409787   176    1.449247   177    1.469236  
     178    1.477532   179    1.516324   180    1.538431  
     181    1.541469   182    1.561519   183    1.567151  
     184    1.581966   185    1.593634   186    1.599915  
     187    1.608453   188    1.616160   189    1.632573  
     190    1.641433   191    1.661580   192    1.676355  
     193    1.702296   194    1.711037   195    1.731241  
     196    1.733849   197    1.745643   198    1.789298  
     199    1.796459   200    1.800700   201    1.810986  
     202    1.828811   203    1.833386   204    1.842604  
     205    1.847580   206    1.868744   207    1.877372  
     208    1.899248   209    1.927836   210    1.935734  
     211    1.945249   212    1.951773   213    1.967536  
     214    1.970594   215    1.978939   216    1.989096  
     217    1.995746   218    2.007945   219    2.019580  
     220    2.030151   221    2.036602   222    2.045160  
     223    2.060757   224    2.064046   225    2.067115  
     226    2.078382   227    2.084358   228    2.094852  
     229    2.108656   230    2.116629   231    2.123626  
     232    2.144997   233    2.158458   234    2.161784  
     235    2.169829   236    2.187277   237    2.202057  
     238    2.210156   239    2.235779   240    2.259682  
     241    2.269793   242    2.277562   243    2.304476  
     244    2.316728   245    2.332765   246    2.338825  
     247    2.358078   248    2.376290   249    2.383852  
     250    2.395115   251    2.401604   252    2.422568  
     253    2.435023   254    2.444974   255    2.462609  
     256    2.493108   257    2.497189   258    2.541457  
     259    2.548965   260    2.566896   261    2.579304  
     262    2.607942   263    2.618101   264    2.635622  
     265    2.644944   266    2.663957   267    2.687133  
     268    2.713513   269    2.733869   270    2.781644  
     271    2.786700   272    2.792209   273    2.827319  
     274    2.849908   275    2.855177   276    2.857682  
     277    2.873424   278    2.878464   279    2.888152  
     280    2.892621   281    2.907261   282    2.917669  
     283    2.932318   284    2.954170   285    2.972445  
     286    2.994787   287    3.006638   288    3.033123  
     289    3.085664   290    3.105729   291    3.120325  
     292    3.161989   293    3.194807   294    3.262213  
     295    3.268533   296    3.309563   297    3.431619  
     298    3.471474   299    3.565897   300    3.633991  
     301    3.704004   302    3.779083   303    3.829345  
     304    3.871229   305    3.953116   306    4.013221  
     307    4.106294   308    4.144682   309    4.200988  
     310    4.448264   311    4.530388   312    4.536621  
     313    4.758597   314    4.933484   315    5.041029  
     316    5.067291   317    5.244003   318    5.325977  
     319    5.497135   320    5.583581   321    5.788758  
     322    5.850107   323    6.091171   324    6.373784  
     325    6.676819   326   13.390761   327   18.427451  
     328   33.425308   329   33.473445  

  ==> SCF B: <==

    Maxiter =          50
    E Tol   =   1.000E-06
    D Tol   =   1.000E-08

    Max DIIS Vectors = 5

    Iter   N:                        E          dE         |D|
    Iter   1:  -2.2426212786314684E+02  -2.243E+02   7.871E-04 
    Iter   2:  -2.2427388397323926E+02  -1.176E-02   4.599E-05 DIIS
    Iter   3:  -2.2427409469266186E+02  -2.107E-04   1.283E-05 DIIS
    Iter   4:  -2.2427410978156053E+02  -1.509E-05   6.360E-06 DIIS
    Iter   5:  -2.2427411271372020E+02  -2.932E-06   2.196E-06 DIIS
    Iter   6:  -2.2427411317922039E+02  -4.655E-07   7.337E-07 DIIS
    Iter   7:  -2.2427411324887913E+02  -6.966E-08   3.080E-07 DIIS
    Iter   8:  -2.2427411325962933E+02  -1.075E-08   1.015E-07 DIIS
    Iter   9:  -2.2427411326083939E+02  -1.210E-09   4.393E-08 DIIS
    Iter  10:  -2.2427411326109072E+02  -2.513E-10   1.497E-08 DIIS
    Iter  11:  -2.2427411326111655E+02  -2.584E-11   9.482E-09 DIIS

    FISAPTSCF Converged.

    Final SCF Energy:  -2.2427411326111655E+02 [Eh]

   => Occupied Orbital Energies <=

       1  -20.609132     2  -20.553237     3  -11.392095  
       4  -11.294017     5   -1.440407     6   -1.360667  
       7   -0.962357     8   -0.767987     9   -0.672635  
      10   -0.664825    11   -0.621547    12   -0.544547  
      13   -0.536458    14   -0.476097    15   -0.461174  

   => Virtual Orbital Energies <=

      16    0.033346    17    0.051580    18    0.056785  
      19    0.066530    20    0.073060    21    0.079352  
      22    0.085769    23    0.094320    24    0.099697  
      25    0.100947    26    0.103647    27    0.108222  
      28    0.115950    29    0.118653    30    0.126340  
      31    0.129090    32    0.134362    33    0.141280  
      34    0.146024    35    0.148935    36    0.154226  
      37    0.158245    38    0.160593    39    0.166109  
      40    0.168153    41    0.176089    42    0.181546  
      43    0.190214    44    0.200083    45    0.201312  
      46    0.207177    47    0.212099    48    0.219499  
      49    0.221772    50    0.229085    51    0.233686  
      52    0.238284    53    0.242040    54    0.251184  
      55    0.253946    56    0.261922    57    0.268720  
      58    0.272878    59    0.277884    60    0.279354  
      61    0.283989    62    0.288515    63    0.288839  
      64    0.301363    65    0.304935    66    0.307107  
      67    0.314774    68    0.322071    69    0.328981  
      70    0.335010    71    0.335574    72    0.345054  
      73    0.351785    74    0.352416    75    0.359397  
      76    0.368418    77    0.374726    78    0.377386  
      79    0.384671    80    0.387791    81    0.395222  
      82    0.399799    83    0.404102    84    0.414414  
      85    0.420203    86    0.431341    87    0.436571  
      88    0.443084    89    0.450701    90    0.459745  
      91    0.463080    92    0.470150    93    0.482499  
      94    0.486932    95    0.495706    96    0.498047  
      97    0.503690    98    0.519000    99    0.526814  
     100    0.534154   101    0.553886   102    0.563924  
     103    0.587153   104    0.588845   105    0.603771  
     106    0.608342   107    0.632425   108    0.634888  
     109    0.636383   110    0.651398   111    0.663167  
     112    0.693219   113    0.712661   114    0.738737  
     115    0.757666   116    0.759898   117    0.768717  
     118    0.784073   119    0.807460   120    0.812759  
     121    0.830346   122    0.838318   123    0.852156  
     124    0.862887   125    0.867841   126    0.890556  
     127    0.910100   128    0.915085   129    0.920098  
     130    0.926630   131    0.927929   132    0.931642  
     133    0.935416   134    0.941462   135    0.947949  
     136    0.950272   137    0.953013   138    0.968919  
     139    0.977657   140    0.981316   141    0.982630  
     142    0.991724   143    1.002122   144    1.004539  
     145    1.011180   146    1.023533   147    1.041254  
     148    1.044521   149    1.050916   150    1.069191  
     151    1.082864   152    1.106476   153    1.107218  
     154    1.130945   155    1.147967   156    1.157353  
     157    1.164803   158    1.171114   159    1.188512  
     160    1.206726   161    1.209462   162    1.243992  
     163    1.259750   164    1.267354   165    1.273485  
     166    1.298589   167    1.311335   168    1.325287  
     169    1.338627   170    1.351101   171    1.362494  
     172    1.393176   173    1.411261   174    1.419412  
     175    1.449933   176    1.470939   177    1.481227  
     178    1.495258   179    1.503739   180    1.531925  
     181    1.558679   182    1.566568   183    1.574192  
     184    1.582682   185    1.586819   186    1.595226  
     187    1.621973   188    1.637621   189    1.647276  
     190    1.667547   191    1.673873   192    1.683454  
     193    1.693538   194    1.707896   195    1.713911  
     196    1.743388   197    1.753146   198    1.764401  
     199    1.781200   200    1.784137   201    1.813067  
     202    1.816342   203    1.830377   204    1.836725  
     205    1.853583   206    1.881483   207    1.890323  
     208    1.898543   209    1.926736   210    1.931226  
     211    1.938658   212    1.947899   213    1.957427  
     214    1.965477   215    1.979067   216    1.985402  
     217    1.993096   218    2.003293   219    2.016616  
     220    2.027382   221    2.029491   222    2.037950  
     223    2.046733   224    2.057549   225    2.061128  
     226    2.064392   227    2.072658   228    2.074181  
     229    2.090328   230    2.126233   231    2.136610  
     232    2.149549   233    2.158393   234    2.165021  
     235    2.176103   236    2.178998   237    2.196882  
     238    2.200471   239    2.243526   240    2.267786  
     241    2.273132   242    2.278949   243    2.295578  
     244    2.309799   245    2.329859   246    2.339091  
     247    2.343826   248    2.357895   249    2.381859  
     250    2.391940   251    2.400193   252    2.410920  
     253    2.427278   254    2.432124   255    2.442771  
     256    2.475061   257    2.515860   258    2.523815  
     259    2.533669   260    2.565163   261    2.571754  
     262    2.595370   263    2.603232   264    2.635404  
     265    2.649367   266    2.677260   267    2.688274  
     268    2.705295   269    2.713352   270    2.727182  
     271    2.762338   272    2.780302   273    2.809651  
     274    2.818607   275    2.834848   276    2.855519  
     277    2.867468   278    2.874780   279    2.878134  
     280    2.886015   281    2.889795   282    2.912737  
     283    2.914879   284    2.922538   285    2.944532  
     286    2.966697   287    2.988444   288    3.061360  
     289    3.082211   290    3.101188   291    3.112319  
     292    3.150158   293    3.193382   294    3.250990  
     295    3.290558   296    3.342247   297    3.379600  
     298    3.445996   299    3.581448   300    3.655887  
     301    3.674228   302    3.776762   303    3.804218  
     304    3.876415   305    3.948670   306    4.005900  
     307    4.090807   308    4.124423   309    4.248467  
     310    4.434274   311    4.513369   312    4.568477  
     313    4.741157   314    4.966952   315    5.041633  
     316    5.069048   317    5.222121   318    5.347690  
     319    5.544157   320    5.554299   321    5.644095  
     322    5.872527   323    6.262386   324    6.387583  
     325    6.741940   326   13.414059   327   18.437115  
     328   33.423774   329   33.480995  

  ==> Frozen Core <==


    ------------------
    Range      A     B
    ------------------
    nbf      358   358
    nmo      329   329
    nocc      15    15
    nvir     314   314
    nfocc      4     4
    naocc     11    11
    navir    314   314
    nfvir      0     0
    ------------------

  ==> Unification <==

  ==> dHF <==

    E ABC(HF) =  -7.6211823176622988E+02 [Eh]
    E AC(0)   =  -5.3413771042353210E+02 [Eh]
    E BC(0)   =  -5.3407375984892224E+02 [Eh]
    E A(0)    =  -2.1262601278456313E+02 [Eh]
    E B(0)    =  -2.1266474916996225E+02 [Eh]
    E AC(HF)  =  -5.3411361794542290E+02 [Eh]
    E BC(HF)  =  -5.3406177445095273E+02 [Eh]
    E AB(HF)  =  -4.2525305719244244E+02 [Eh]
    E A(HF)   =  -2.1259052401473397E+02 [Eh]
    E B(HF)   =  -2.1264510972640176E+02 [Eh]
    E C       =  -3.0607458408144487E+02 [Eh]
    E HF      =   1.8654424779583678E-02 [Eh]

  ==> Electrostatics <==

    Elst10,r            =     0.010553822601 [Eh]

  ==> Exchange <==

    Exch10(S^2)         =     0.011304857970 [Eh]
    Exch10              =     0.011367164727 [Eh]

  ==> Induction <==

    Ind20,u (A<-B)      =    -0.002727518927 [Eh]
    Ind20,u (B<-A)      =    -0.001771779351 [Eh]
    Ind20,u             =    -0.004499298278 [Eh]
    Exch-Ind20,u (A<-B) =     0.001210422113 [Eh]
    Exch-Ind20,u (B<-A) =     0.001311262915 [Eh]
    Exch-Ind20,u        =     0.002521685027 [Eh]

  ==> CPHF Iterations <==

    Maxiter     =          50
    Convergence =   1.000E-08

    -----------------------------------------
    Iter   Monomer A    Monomer B    Time [s]
    -----------------------------------------
    1      2.306E-01    1.462E-01          20
    2      8.603E-02    5.257E-02          41
    3      2.308E-02    1.021E-02          58
    4      7.680E-03    4.177E-03          74
    5      2.294E-03    1.366E-03          90
    6      9.145E-04    5.479E-04         116
    7      2.632E-04    1.643E-04         145
    8      1.067E-04    7.884E-05         171
    9      2.592E-05    1.812E-05         196
    10     7.688E-06    4.165E-06         215
    11     1.906E-06    1.984E-06         230
    12     4.259E-07    6.081E-07         246
    13     1.704E-07    1.309E-07         264
    14     5.143E-08    4.181E-08         282
    15     9.118E-09*   7.241E-09*        307
    -----------------------------------------

    Ind20,r (A<-B)      =    -0.003235813882 [Eh]
    Ind20,r (B<-A)      =    -0.002026588786 [Eh]
    Ind20,r             =    -0.005262402668 [Eh]
    Exch-Ind20,r (A<-B) =     0.001573483841 [Eh]
    Exch-Ind20,r (B<-A) =     0.001550524168 [Eh]
    Exch-Ind20,r        =     0.003124008009 [Eh]

  ==> F-SAPT Localization (IBO) <==

  Local Orbitals for Monomer A:

  ==> IBO Localizer 2 <==

    MinAO Basis = CC-PVTZ-MINAO
    Use Ghosts  =       FALSE
    Use Stars   =       FALSE
    Condition   =   1.000E-07
    Power       =           4
    Convergence =   1.000E-12
    Maxiter     =        1000

    @IBO Iter:                   Metric       Gradient
    @IBO    1:   1.4800729946573554E+00   1.655258E+00
    @IBO    2:   1.6780118233278407E+00   9.300472E-01
    @IBO    3:   1.7094900431994855E+00   2.893983E-01
    @IBO    4:   1.7105775603410103E+00   3.172447E-03
    @IBO    5:   1.7105778539041590E+00   8.844242E-05
    @IBO    6:   1.7105778540211496E+00   1.529268E-06
    @IBO    7:   1.7105778540211971E+00   4.718499E-08
    @IBO    8:   1.7105778540211971E+00   1.059700E-09
    @IBO    9:   1.7105778540211971E+00   2.610782E-11
    @IBO   10:   1.7105778540211971E+00   7.673836E-13

    IBO Localizer 2 converged.

  Local Orbitals for Monomer B:

  ==> IBO Localizer 2 <==

    MinAO Basis = CC-PVTZ-MINAO
    Use Ghosts  =       FALSE
    Use Stars   =       FALSE
    Condition   =   1.000E-07
    Power       =           4
    Convergence =   1.000E-12
    Maxiter     =        1000

    @IBO Iter:                   Metric       Gradient
    @IBO    1:   1.4820943903688066E+00   1.688278E+00
    @IBO    2:   1.6775232618635860E+00   9.394233E-01
    @IBO    3:   1.7088975896102563E+00   3.277256E-01
    @IBO    4:   1.7102141338713426E+00   2.619258E-03
    @IBO    5:   1.7102143562188883E+00   1.085178E-04
    @IBO    6:   1.7102143563612091E+00   1.925516E-06
    @IBO    7:   1.7102143563612824E+00   6.643631E-08
    @IBO    8:   1.7102143563612826E+00   2.136371E-09
    @IBO    9:   1.7102143563612826E+00   8.206309E-11
    @IBO   10:   1.7102143563612826E+00   3.432403E-12
    @IBO   11:   1.7102143563612826E+00   1.477378E-13

    IBO Localizer 2 converged.

  ==> F-SAPT Electrostatics <==

  ==> DFERI: Density Fitted 3-Index Tensors <==

    Schwarz cutoff =   0.000E+00
    J cutoff       =   1.000E-12
    Mem (GB)       =         628

   => Auxiliary Basis <=

  Basis Set: (JUN-CC-PVDZ AUX)
    Blend: JUN-CC-PVDZ-JKFIT
    Number of shells: 558
    Number of basis function: 1586
    Number of Cartesian functions: 1806
    Spherical Harmonics?: true
    Max angular momentum: 3

    Elst10,r            =     0.010553826787 [Eh]

  ==> F-SAPT Exchange <==

  ==> DFERI: Density Fitted 3-Index Tensors <==

    Schwarz cutoff =   0.000E+00
    J cutoff       =   1.000E-12
    Mem (GB)       =         628

   => Auxiliary Basis <=

  Basis Set: (JUN-CC-PVDZ AUX)
    Blend: JUN-CC-PVDZ-JKFIT
    Number of shells: 558
    Number of basis function: 1586
    Number of Cartesian functions: 1806
    Spherical Harmonics?: true
    Max angular momentum: 3

    Exch10(S^2)         =     0.011304844250 [Eh]

    Scaling F-SAPT Exch10(S^2) by   1.006E+00 to match Exch10

  ==> F-SAPT Induction <==

  ==> DFERI: Density Fitted 3-Index Tensors <==

    Schwarz cutoff =   0.000E+00
    J cutoff       =   1.000E-12
    Mem (GB)       =         628

   => Auxiliary Basis <=

  Basis Set: (JUN-CC-PVDZ AUX)
    Blend: JUN-CC-PVDZ-JKFIT
    Number of shells: 558
    Number of basis function: 1586
    Number of Cartesian functions: 1806
    Spherical Harmonics?: true
    Max angular momentum: 3

    Ind20,u (A<-B)      =    -0.002727519349 [Eh]
    Ind20,u (B<-A)      =    -0.001771779448 [Eh]
    Ind20,u             =    -0.004499298797 [Eh]
    Exch-Ind20,u (A<-B) =     0.001210422070 [Eh]
    Exch-Ind20,u (B<-A) =     0.001311262891 [Eh]
    Exch-Ind20,u        =     0.002521684961 [Eh]

    Scaling for delta HF        =   1.528E+00
    Scaling for response (A<-B) =   1.096E+00
    Scaling for response (B<-A) =   1.034E+00
    Scaling for total (A<-B)    =   1.674E+00
    Scaling for total (B<-A)    =   1.579E+00

  ==> F-SAPT Dispersion <==

  ==> DFERI: Density Fitted 3-Index Tensors <==

    Schwarz cutoff =   0.000E+00
    J cutoff       =   1.000E-12
    Mem (GB)       =         628

   => Auxiliary Basis <=

  Basis Set: (JUN-CC-PVDZ AUX)
    Blend: JUN-CC-PVDZ-RI
    Number of shells: 420
    Number of basis function: 1236
    Number of Cartesian functions: 1426
    Spherical Harmonics?: true
    Max angular momentum: 3

    Disp20              =    -0.005358541726 [Eh]
    Exch-Disp20         =     0.000776030478 [Eh]

  ==> F-SAPT Output <==

    F-SAPT Data Filepath = fsapt/

  ==> Results <==


    SAPT Results  
  --------------------------------------------------------------------------------------------------------
    Electrostatics                 10.55382260 [mEh]       6.62262394 [kcal/mol]      27.70906124 [kJ/mol]
      Elst10,r                     10.55382260 [mEh]       6.62262394 [kcal/mol]      27.70906124 [kJ/mol]

    Exchange                       11.36716473 [mEh]       7.13300385 [kcal/mol]      29.84449099 [kJ/mol]
      Exch10                       11.36716473 [mEh]       7.13300385 [kcal/mol]      29.84449099 [kJ/mol]
      Exch10(S^2)                  11.30485797 [mEh]       7.09390577 [kcal/mol]      29.68090460 [kJ/mol]

    Induction                      -3.26656255 [mEh]      -2.04979903 [kcal/mol]      -8.57635997 [kJ/mol]
      Ind20,r                      -5.26240267 [mEh]      -3.30220767 [kcal/mol]     -13.81643820 [kJ/mol]
      Exch-Ind20,r                  3.12400801 [mEh]       1.96034470 [kcal/mol]       8.20208303 [kJ/mol]
      delta HF,r (2)               -1.12816789 [mEh]      -0.70793607 [kcal/mol]      -2.96200479 [kJ/mol]
      Induction (A<-B)             -2.53933718 [mEh]      -1.59345820 [kcal/mol]      -6.66702975 [kJ/mol]
      Induction (B<-A)             -0.72722537 [mEh]      -0.45634083 [kcal/mol]      -1.90933022 [kJ/mol]

    Dispersion                     -4.58251125 [mEh]      -2.87556934 [kcal/mol]     -12.03138328 [kJ/mol]
      Disp20                       -5.35854173 [mEh]      -3.36253584 [kcal/mol]     -14.06885130 [kJ/mol]
      Exch-Disp20                   0.77603048 [mEh]       0.48696650 [kcal/mol]       2.03746802 [kJ/mol]

  Total HF                         18.65442478 [mEh]      11.70582877 [kcal/mol]      48.97719226 [kJ/mol]
  Total SAPT0                      14.07191353 [mEh]       8.83025942 [kcal/mol]      36.94580898 [kJ/mol]

  --------------------------------------------------------------------------------------------------------
    Han Solo: This is *not* gonna work.
    Luke Skywalker: Why didn't you say so before?
    Han Solo: I *did* say so before.

*** tstop() called on ThinkPad-P50 at Tue Dec 12 11:48:00 2017
Module time:
	user time   =     815.58 seconds =      13.59 minutes
	system time =       6.31 seconds =       0.11 minutes
	total time  =        823 seconds =      13.72 minutes
Total time:
	user time   =    1010.02 seconds =      16.83 minutes
	system time =       7.87 seconds =       0.13 minutes
	total time  =       1020 seconds =      17.00 minutes

*** Psi4 exiting successfully. Buy a developer a beer!
