
    -----------------------------------------------------------------------
          Psi4: An Open-Source Ab Initio Electronic Structure Package
                               Psi4 1.1 release

                         Git: Rev {HEAD} add49b9 


    R. M. Parrish, L. A. Burns, D. G. A. Smith, A. C. Simmonett,
    A. E. DePrince III, E. G. Hohenstein, U. Bozkaya, A. Yu. Sokolov,
    R. Di Remigio, R. M. Richard, J. F. Gonthier, A. M. James,
    H. R. McAlexander, A. Kumar, M. Saitow, X. Wang, B. P. Pritchard,
    P. Verma, H. F. Schaefer III, K. Patkowski, R. A. King, E. F. Valeev,
    F. A. Evangelista, J. M. Turney, T. D. Crawford, and C. D. Sherrill,
    J. Chem. Theory Comput. in press (2017).
    (doi: 10.1021/acs.jctc.7b00174)

    -----------------------------------------------------------------------


    Psi4 started on: Thursday, 19 October 2017 09:21AM

    Process ID:  18847
    PSIDATADIR: /opt/software/psi4/psi4conda/share/psi4
    Memory:     500.0 MiB
    Threads:    48
    
  ==> Input File <==

--------------------------------------------------------------------------
memory 750000 mb

molecule mol {
0 1
C         -3.31850        1.33923        0.25178
H         -4.32452        0.92570        0.34946
H         -3.29004        1.99245       -0.62168
H         -3.11588        1.97683        1.11393
--
0 1
C         -0.36246        1.77404       -0.03093
O         -1.01115        2.79517        0.01728
O          0.98150        1.78708       -0.14230
C          1.60613        3.07592       -0.24426
H          1.19886        3.62977       -1.09082
H          1.44902        3.64872        0.67119
H          2.66388        2.87120       -0.39418
--
0 1
C          0.28394       -3.26195       -0.22184
H         -0.29293       -4.17626       -0.07391
H          0.73875       -3.30313       -1.21531
H          1.09648       -3.25476        0.50988
C          1.41689       -0.66363       -0.25233
O          1.99747       -0.72055       -1.30696
O          2.02794       -0.66002        0.94797
C          3.46566       -0.62344        0.91669
H          3.77915       -0.63557        1.95813
H          3.80824        0.28723        0.42255
H          3.86081       -1.48987        0.38392
C         -0.07938       -0.74456       -0.09226
C         -0.91886        0.38718        0.01080
C         -0.60256       -2.04673       -0.08055
C         -1.98191       -2.19664        0.05166
C         -2.81528       -1.09361        0.16028
C         -2.32023        0.21153        0.13817
H         -3.88430       -1.24347        0.26351
H         -2.40797       -3.19452        0.06838

symmetry c1
no_reorient
no_com
}

set {
basis jun-cc-pvdz
scf_type df
guess sad
freeze_core true
}

energy('fisapt0')
--------------------------------------------------------------------------

  Memory set to 698.492 GiB by Python driver.

*** tstart() called on vega02.cac.cornell.edu
*** at Thu Oct 19 09:21:03 2017

   => Loading Basis Set <=

    Name: JUN-CC-PVDZ
    Role: ORBITAL
    Keyword: BASIS
    atoms 1, 5, 8, 12, 16, 19, 23-28     entry C          line   157 file /opt/software/psi4/psi4conda/share/psi4/basis/jun-cc-pvdz.gbs 
    atoms 2-4, 9-11, 13-15, 20-22, 29-30 entry H          line    35 file /opt/software/psi4/psi4conda/share/psi4/basis/jun-cc-pvdz.gbs 
    atoms 6-7, 17-18                     entry O          line   225 file /opt/software/psi4/psi4conda/share/psi4/basis/jun-cc-pvdz.gbs 


         ---------------------------------------------------------
                                   SCF
            by Justin Turney, Rob Parrish, and Andy Simmonett
                              RHF Reference
                       48 Threads, 715255 MiB Core
         ---------------------------------------------------------

  ==> Geometry <==

    Molecular point group: c1
    Full point group: C1

    Geometry (in Angstrom), charge = 0, multiplicity = 1:

       Center              X                  Y                   Z               Mass       
    ------------   -----------------  -----------------  -----------------  -----------------
           C         -3.318500000000     1.339230000000     0.251780000000    12.000000000000
           H         -4.324520000000     0.925700000000     0.349460000000     1.007825032070
           H         -3.290040000000     1.992450000000    -0.621680000000     1.007825032070
           H         -3.115880000000     1.976830000000     1.113930000000     1.007825032070
           C         -0.362460000000     1.774040000000    -0.030930000000    12.000000000000
           O         -1.011150000000     2.795170000000     0.017280000000    15.994914619560
           O          0.981500000000     1.787080000000    -0.142300000000    15.994914619560
           C          1.606130000000     3.075920000000    -0.244260000000    12.000000000000
           H          1.198860000000     3.629770000000    -1.090820000000     1.007825032070
           H          1.449020000000     3.648720000000     0.671190000000     1.007825032070
           H          2.663880000000     2.871200000000    -0.394180000000     1.007825032070
           C          0.283940000000    -3.261950000000    -0.221840000000    12.000000000000
           H         -0.292930000000    -4.176260000000    -0.073910000000     1.007825032070
           H          0.738750000000    -3.303130000000    -1.215310000000     1.007825032070
           H          1.096480000000    -3.254760000000     0.509880000000     1.007825032070
           C          1.416890000000    -0.663630000000    -0.252330000000    12.000000000000
           O          1.997470000000    -0.720550000000    -1.306960000000    15.994914619560
           O          2.027940000000    -0.660020000000     0.947970000000    15.994914619560
           C          3.465660000000    -0.623440000000     0.916690000000    12.000000000000
           H          3.779150000000    -0.635570000000     1.958130000000     1.007825032070
           H          3.808240000000     0.287230000000     0.422550000000     1.007825032070
           H          3.860810000000    -1.489870000000     0.383920000000     1.007825032070
           C         -0.079380000000    -0.744560000000    -0.092260000000    12.000000000000
           C         -0.918860000000     0.387180000000     0.010800000000    12.000000000000
           C         -0.602560000000    -2.046730000000    -0.080550000000    12.000000000000
           C         -1.981910000000    -2.196640000000     0.051660000000    12.000000000000
           C         -2.815280000000    -1.093610000000     0.160280000000    12.000000000000
           C         -2.320230000000     0.211530000000     0.138170000000    12.000000000000
           H         -3.884300000000    -1.243470000000     0.263510000000     1.007825032070
           H         -2.407970000000    -3.194520000000     0.068380000000     1.007825032070

  Running in c1 symmetry.

  Rotational constants: A =      0.02124  B =      0.01870  C =      0.01077 [cm^-1]
  Rotational constants: A =    636.63916  B =    560.58684  C =    322.97746 [MHz]
  Nuclear repulsion = 1142.423963576102778

  Charge       = 0
  Multiplicity = 1
  Electrons    = 118
  Nalpha       = 59
  Nbeta        = 59

  ==> Algorithm <==

  SCF Algorithm Type is DF.
  DIIS enabled.
  MOM disabled.
  Fractional occupation disabled.
  Guess Type is SAD.
  Energy threshold   = 1.00e-08
  Density threshold  = 1.00e-08
  Integral threshold = 0.00e+00

  ==> Primary Basis <==

  Basis Set: JUN-CC-PVDZ
    Blend: JUN-CC-PVDZ
    Number of shells: 170
    Number of basis function: 358
    Number of Cartesian functions: 374
    Spherical Harmonics?: true
    Max angular momentum: 2

   => Loading Basis Set <=

    Name: (JUN-CC-PVDZ AUX)
    Role: JKFIT
    Keyword: DF_BASIS_SCF
    atoms 1, 5, 8, 12, 16, 19, 23-28     entry C          line   145 file /opt/software/psi4/psi4conda/share/psi4/basis/jun-cc-pvdz-jkfit.gbs 
    atoms 2-4, 9-11, 13-15, 20-22, 29-30 entry H          line    69 file /opt/software/psi4/psi4conda/share/psi4/basis/jun-cc-pvdz-jkfit.gbs 
    atoms 6-7, 17-18                     entry O          line   257 file /opt/software/psi4/psi4conda/share/psi4/basis/jun-cc-pvdz-jkfit.gbs 

  ==> Pre-Iterations <==

   -------------------------------------------------------
    Irrep   Nso     Nmo     Nalpha   Nbeta   Ndocc  Nsocc
   -------------------------------------------------------
     A        358     358       0       0       0       0
   -------------------------------------------------------
    Total     358     358      59      59      59       0
   -------------------------------------------------------

  ==> Integral Setup <==

  ==> DFJK: Density-Fitted J/K Matrices <==

    J tasked:                  Yes
    K tasked:                  Yes
    wK tasked:                  No
    OpenMP threads:             48
    Integrals threads:          48
    Memory (MB):            536441
    Algorithm:                Core
    Integral Cache:           NONE
    Schwarz Cutoff:          1E-12
    Fitting Condition:       1E-12

   => Auxiliary Basis Set <=

  Basis Set: (JUN-CC-PVDZ AUX)
    Blend: JUN-CC-PVDZ-JKFIT
    Number of shells: 558
    Number of basis function: 1586
    Number of Cartesian functions: 1806
    Spherical Harmonics?: true
    Max angular momentum: 3

  Minimum eigenvalue in the overlap matrix is 2.7559880426E-06.
  Using Symmetric Orthogonalization.

  SCF Guess: Superposition of Atomic Densities via on-the-fly atomic UHF.

  ==> Iterations <==

                           Total Energy        Delta E     RMS |[F,P]|

   @DF-RHF iter   0:  -768.19523500780394   -7.68195e+02   1.46605e-01 
   @DF-RHF iter   1:  -761.59901659515822    6.59622e+00   1.31889e-02 
   @DF-RHF iter   2:  -761.98958505901840   -3.90568e-01   8.15823e-03 DIIS
   @DF-RHF iter   3:  -762.09540371431387   -1.05819e-01   3.00629e-03 DIIS
   @DF-RHF iter   4:  -762.11516879206886   -1.97651e-02   7.45891e-04 DIIS
   @DF-RHF iter   5:  -762.11763926048104   -2.47047e-03   2.69355e-04 DIIS
   @DF-RHF iter   6:  -762.11811091454092   -4.71654e-04   1.17923e-04 DIIS
   @DF-RHF iter   7:  -762.11821062177967   -9.97072e-05   4.55086e-05 DIIS
   @DF-RHF iter   8:  -762.11822834591305   -1.77241e-05   1.48514e-05 DIIS
   @DF-RHF iter   9:  -762.11823106334600   -2.71743e-06   6.06708e-06 DIIS
   @DF-RHF iter  10:  -762.11823166989609   -6.06550e-07   2.91093e-06 DIIS
   @DF-RHF iter  11:  -762.11823175300901   -8.31129e-08   1.03672e-06 DIIS
   @DF-RHF iter  12:  -762.11823176306780   -1.00588e-08   4.75643e-07 DIIS
   @DF-RHF iter  13:  -762.11823176471432   -1.64653e-09   1.86678e-07 DIIS
   @DF-RHF iter  14:  -762.11823176504925   -3.34921e-10   8.64460e-08 DIIS
   @DF-RHF iter  15:  -762.11823176512326   -7.40101e-11   2.89012e-08 DIIS
   @DF-RHF iter  16:  -762.11823176513360   -1.03455e-11   1.65089e-08 DIIS
   @DF-RHF iter  17:  -762.11823176513701   -3.41061e-12   6.90370e-09 DIIS

  ==> Post-Iterations <==

    Orbital Energies (a.u.)
    -----------------------

    Doubly Occupied:                                                      

       1A    -20.612583     2A    -20.610918     3A    -20.555298  
       4A    -20.554145     5A    -11.397558     6A    -11.396853  
       7A    -11.298022     8A    -11.297013     9A    -11.276515  
      10A    -11.271021    11A    -11.269174    12A    -11.261989  
      13A    -11.257638    14A    -11.247689    15A    -11.238557  
      16A    -11.227434    17A     -1.473574    18A     -1.464807  
      19A     -1.367364    20A     -1.365875    21A     -1.183207  
      22A     -1.085382    23A     -1.064732    24A     -0.993822  
      25A     -0.985384    26A     -0.970212    27A     -0.914906  
      28A     -0.879042    29A     -0.833034    30A     -0.784992  
      31A     -0.770423    32A     -0.726626    33A     -0.708241  
      34A     -0.696648    35A     -0.680226    36A     -0.673518  
      37A     -0.668488    38A     -0.655308    39A     -0.641024  
      40A     -0.607125    41A     -0.592198    42A     -0.583252  
      43A     -0.574890    44A     -0.566977    45A     -0.561838  
      46A     -0.551483    47A     -0.547962    48A     -0.537875  
      49A     -0.534509    50A     -0.527891    51A     -0.515376  
      52A     -0.503744    53A     -0.488750    54A     -0.472206  
      55A     -0.457093    56A     -0.453029    57A     -0.444501  
      58A     -0.355286    59A     -0.330407  

    Virtual:                                                              

      60A      0.053284    61A      0.055049    62A      0.058599  
      63A      0.066801    64A      0.071283    65A      0.076490  
      66A      0.084517    67A      0.092535    68A      0.095991  
      69A      0.101152    70A      0.103327    71A      0.108932  
      72A      0.114314    73A      0.117166    74A      0.119102  
      75A      0.126304    76A      0.134735    77A      0.137329  
      78A      0.143674    79A      0.149406    80A      0.152146  
      81A      0.160177    82A      0.164037    83A      0.170772  
      84A      0.172864    85A      0.182289    86A      0.189218  
      87A      0.191519    88A      0.201379    89A      0.203253  
      90A      0.211490    91A      0.221073    92A      0.225176  
      93A      0.229069    94A      0.230077    95A      0.234724  
      96A      0.235523    97A      0.243398    98A      0.249250  
      99A      0.255011   100A      0.262303   101A      0.266645  
     102A      0.271134   103A      0.273641   104A      0.277430  
     105A      0.292459   106A      0.294899   107A      0.296284  
     108A      0.301447   109A      0.303394   110A      0.316015  
     111A      0.320384   112A      0.324473   113A      0.332264  
     114A      0.333821   115A      0.339599   116A      0.341528  
     117A      0.346934   118A      0.352560   119A      0.359336  
     120A      0.372627   121A      0.375324   122A      0.375904  
     123A      0.382723   124A      0.394064   125A      0.400566  
     126A      0.401049   127A      0.413032   128A      0.414122  
     129A      0.418250   130A      0.421199   131A      0.432449  
     132A      0.434255   133A      0.440576   134A      0.448980  
     135A      0.456365   136A      0.464213   137A      0.466693  
     138A      0.475296   139A      0.476946   140A      0.484909  
     141A      0.495302   142A      0.497192   143A      0.510747  
     144A      0.517282   145A      0.524574   146A      0.533975  
     147A      0.540417   148A      0.553005   149A      0.582877  
     150A      0.586566   151A      0.611116   152A      0.624180  
     153A      0.641893   154A      0.677097   155A      0.699604  
     156A      0.727986   157A      0.747514   158A      0.755075  
     159A      0.767689   160A      0.784039   161A      0.791112  
     162A      0.795166   163A      0.805895   164A      0.826026  
     165A      0.838081   166A      0.842564   167A      0.855891  
     168A      0.871781   169A      0.880975   170A      0.891807  
     171A      0.895636   172A      0.908856   173A      0.911423  
     174A      0.916620   175A      0.922459   176A      0.928877  
     177A      0.932710   178A      0.934699   179A      0.941635  
     180A      0.944224   181A      0.950433   182A      0.958127  
     183A      0.964782   184A      0.965062   185A      0.969620  
     186A      0.976601   187A      0.986221   188A      0.991095  
     189A      0.993775   190A      1.003489   191A      1.023250  
     192A      1.026890   193A      1.042898   194A      1.057444  
     195A      1.060429   196A      1.068748   197A      1.076225  
     198A      1.094965   199A      1.119295   200A      1.133039  
     201A      1.139343   202A      1.143147   203A      1.160550  
     204A      1.171164   205A      1.176546   206A      1.211670  
     207A      1.216099   208A      1.228446   209A      1.233115  
     210A      1.245664   211A      1.258063   212A      1.264176  
     213A      1.282054   214A      1.306877   215A      1.322353  
     216A      1.326921   217A      1.332337   218A      1.360053  
     219A      1.372272   220A      1.386561   221A      1.396930  
     222A      1.406449   223A      1.428301   224A      1.450816  
     225A      1.490243   226A      1.491979   227A      1.510870  
     228A      1.519919   229A      1.542969   230A      1.557287  
     231A      1.563295   232A      1.578095   233A      1.590223  
     234A      1.599073   235A      1.607272   236A      1.612579  
     237A      1.627828   238A      1.644447   239A      1.655843  
     240A      1.667957   241A      1.673238   242A      1.678328  
     243A      1.696785   244A      1.699867   245A      1.712440  
     246A      1.719823   247A      1.732933   248A      1.757965  
     249A      1.775400   250A      1.795088   251A      1.803415  
     252A      1.815510   253A      1.826506   254A      1.835154  
     255A      1.856283   256A      1.872098   257A      1.880271  
     258A      1.903903   259A      1.908968   260A      1.923547  
     261A      1.932056   262A      1.939350   263A      1.950292  
     264A      1.962179   265A      1.969703   266A      1.971098  
     267A      1.981592   268A      1.986552   269A      1.999592  
     270A      2.011029   271A      2.016272   272A      2.023764  
     273A      2.035790   274A      2.043561   275A      2.048836  
     276A      2.056842   277A      2.063508   278A      2.075186  
     279A      2.082484   280A      2.096800   281A      2.108970  
     282A      2.114560   283A      2.135575   284A      2.144290  
     285A      2.166186   286A      2.172155   287A      2.181512  
     288A      2.187101   289A      2.197888   290A      2.213572  
     291A      2.247349   292A      2.263982   293A      2.281884  
     294A      2.297928   295A      2.308289   296A      2.337927  
     297A      2.359883   298A      2.365688   299A      2.388768  
     300A      2.398387   301A      2.405306   302A      2.419657  
     303A      2.432769   304A      2.436797   305A      2.449048  
     306A      2.472549   307A      2.514582   308A      2.517408  
     309A      2.530115   310A      2.556680   311A      2.593196  
     312A      2.599486   313A      2.607249   314A      2.652035  
     315A      2.684468   316A      2.713548   317A      2.758832  
     318A      2.772111   319A      2.780029   320A      2.790338  
     321A      2.814108   322A      2.836882   323A      2.852021  
     324A      2.857347   325A      2.867549   326A      2.874861  
     327A      2.879092   328A      2.893709   329A      2.904539  
     330A      2.913666   331A      2.939354   332A      2.954106  
     333A      2.995384   334A      3.027197   335A      3.037798  
     336A      3.061343   337A      3.087433   338A      3.113912  
     339A      3.139475   340A      3.154128   341A      3.233808  
     342A      3.248731   343A      3.284016   344A      3.292665  
     345A      3.338380   346A      3.375796   347A      3.440558  
     348A      3.550580   349A      3.576152   350A      3.646294  
     351A      3.681140   352A      3.732188   353A      3.775123  
     354A      3.832624   355A      3.939662   356A      3.991461  
     357A      4.086793   358A      4.094094  

    Final Occupation by Irrep:
              A 
    DOCC [    59 ]

  Energy converged.

  @DF-RHF Final Energy:  -762.11823176513701

   => Energetics <=

    Nuclear Repulsion Energy =           1142.4239635761027785
    One-Electron Energy =               -3309.9531202654234221
    Two-Electron Energy =                1405.4109249241835187
    DFT Exchange-Correlation Energy =       0.0000000000000000
    Empirical Dispersion Energy =           0.0000000000000000
    PCM Polarization Energy =               0.0000000000000000
    EFP Energy =                            0.0000000000000000
    Total Energy =                       -762.1182317651371250



Properties will be evaluated at   0.000000,   0.000000,   0.000000 Bohr

Properties computed using the SCF density matrix

  Nuclear Dipole Moment: (a.u.)
     X:    -0.9708      Y:     1.1183      Z:     3.9991

  Electronic Dipole Moment: (a.u.)
     X:     1.2676      Y:    -1.6706      Z:    -3.3393

  Dipole Moment: (a.u.)
     X:     0.2968      Y:    -0.5523      Z:     0.6598     Total:     0.9102

  Dipole Moment: (Debye)
     X:     0.7545      Y:    -1.4038      Z:     1.6771     Total:     2.3135


*** tstop() called on vega02.cac.cornell.edu at Thu Oct 19 09:21:36 2017
Module time:
	user time   =     709.55 seconds =      11.83 minutes
	system time =       6.59 seconds =       0.11 minutes
	total time  =         33 seconds =       0.55 minutes
Total time:
	user time   =     709.55 seconds =      11.83 minutes
	system time =       6.59 seconds =       0.11 minutes
	total time  =         33 seconds =       0.55 minutes
   => Loading Basis Set <=

    Name: (JUN-CC-PVDZ AUX)
    Role: JKFIT
    Keyword: DF_BASIS_SCF
    atoms 1, 5, 8, 12, 16, 19, 23-28     entry C          line   145 file /opt/software/psi4/psi4conda/share/psi4/basis/jun-cc-pvdz-jkfit.gbs 
    atoms 2-4, 9-11, 13-15, 20-22, 29-30 entry H          line    69 file /opt/software/psi4/psi4conda/share/psi4/basis/jun-cc-pvdz-jkfit.gbs 
    atoms 6-7, 17-18                     entry O          line   257 file /opt/software/psi4/psi4conda/share/psi4/basis/jun-cc-pvdz-jkfit.gbs 

   => Loading Basis Set <=

    Name: (JUN-CC-PVDZ AUX)
    Role: RIFIT
    Keyword: DF_BASIS_SAPT
    atoms 1, 5, 8, 12, 16, 19, 23-28     entry C          line    99 file /opt/software/psi4/psi4conda/share/psi4/basis/jun-cc-pvdz-ri.gbs 
    atoms 2-4, 9-11, 13-15, 20-22, 29-30 entry H          line    29 file /opt/software/psi4/psi4conda/share/psi4/basis/jun-cc-pvdz-ri.gbs 
    atoms 6-7, 17-18                     entry O          line   187 file /opt/software/psi4/psi4conda/share/psi4/basis/jun-cc-pvdz-ri.gbs 

   => Loading Basis Set <=

    Name: CC-PVTZ-MINAO
    Role: ORBITAL
    Keyword: BASIS
    atoms 1, 5, 8, 12, 16, 19, 23-28     entry C          line   130 file /opt/software/psi4/psi4conda/share/psi4/basis/cc-pvtz-minao.gbs 
    atoms 2-4, 9-11, 13-15, 20-22, 29-30 entry H          line    19 file /opt/software/psi4/psi4conda/share/psi4/basis/cc-pvtz-minao.gbs 
    atoms 6-7, 17-18                     entry O          line   190 file /opt/software/psi4/psi4conda/share/psi4/basis/cc-pvtz-minao.gbs 


*** tstart() called on vega02.cac.cornell.edu
*** at Thu Oct 19 09:21:36 2017

	 --------------------------------------------
	                    FISAPT0                  
	                  Rob Parrish                
	 --------------------------------------------

    Do F-SAPT =         Yes
    Do Plot   =          No
    Memory    =      78.580 [GD]

  ==> Localization (IBO) <==

  ==> IBO Localizer 2 <==

    MinAO Basis = CC-PVTZ-MINAO
    Use Ghosts  =       FALSE
    Use Stars   =       FALSE
    Condition   =   1.000E-07
    Power       =           4
    Convergence =   1.000E-12
    Maxiter     =        1000

    @IBO Iter:                   Metric       Gradient
    @IBO    1:   1.9689125107906069E+00   2.828389E+00
    @IBO    2:   2.2120488701799594E+00   1.949309E+00
    @IBO    3:   2.2821443996633666E+00   9.671305E-01
    @IBO    4:   2.2886271239028084E+00   5.820730E-02
    @IBO    5:   2.2886479550649392E+00   6.625277E-04
    @IBO    6:   2.2886479593928781E+00   3.973221E-05
    @IBO    7:   2.2886479594492286E+00   8.226861E-06
    @IBO    8:   2.2886479594518914E+00   1.841750E-06
    @IBO    9:   2.2886479594520299E+00   4.173997E-07
    @IBO   10:   2.2886479594520370E+00   9.504584E-08
    @IBO   11:   2.2886479594520379E+00   2.169498E-08
    @IBO   12:   2.2886479594520375E+00   4.958954E-09
    @IBO   13:   2.2886479594520375E+00   1.134463E-09
    @IBO   14:   2.2886479594520375E+00   2.596726E-10
    @IBO   15:   2.2886479594520375E+00   5.945957E-11
    @IBO   16:   2.2886479594520375E+00   1.361877E-11
    @IBO   17:   2.2886479594520379E+00   3.120020E-12
    @IBO   18:   2.2886479594520379E+00   7.149582E-13

    IBO Localizer 2 converged.

  ==> Partitioning <==

   => Atomic Partitioning <= 

    Monomer A:   4 atoms
    Monomer B:   7 atoms
    Monomer C:  19 atoms

   => Link Bond Identification <=

    Link Bond Selection = AUTOMATIC

    Charge Completeness = 0.800

    Total Link Bonds = 2

    --------------------------
    N     Orb Type Aind1 Aind2
    --------------------------
    1      18   BC     5    24
    2      26   AC     1    28
    --------------------------

   => Link Bond Assignment <=

    Link Bond Assignment      = C

   => Partition Summary <=

    Monomer A:  0 charge,   8 protons,   8 electrons,   4 docc
    Monomer B:  0 charge,  30 protons,  30 electrons,  15 docc
    Monomer C:  0 charge,  80 protons,  80 electrons,  40 docc

  ==> Overlap Integrals <==

  ==> Kinetic Integrals <==

  ==> Nuclear Integrals <==

    Nuclear Repulsion Tot:   1.1424239635761030E+03 [Eh]

  ==> Coulomb Integrals <==

  ==> DFJK: Density-Fitted J/K Matrices <==

    J tasked:                  Yes
    K tasked:                  Yes
    wK tasked:                  No
    OpenMP threads:             48
    Integrals threads:          48
    Memory (MB):            643730
    Algorithm:                Core
    Integral Cache:           NONE
    Schwarz Cutoff:          1E-12
    Fitting Condition:       1E-12

   => Auxiliary Basis Set <=

  Basis Set: (JUN-CC-PVDZ AUX)
    Blend: JUN-CC-PVDZ-JKFIT
    Number of shells: 558
    Number of basis function: 1586
    Number of Cartesian functions: 1806
    Spherical Harmonics?: true
    Max angular momentum: 3

  ==> Relaxed SCF Equations <==

  ==> SCF A: <==

    Maxiter =          50
    E Tol   =   1.000E-06
    D Tol   =   1.000E-08

    Max DIIS Vectors = 5

    Iter   N:                        E          dE         |D|
    Iter   1:  -3.6354316783499200E+01  -3.635E+01   1.132E-03 
    Iter   2:  -3.6358244548149457E+01  -3.928E-03   2.148E-04 DIIS
    Iter   3:  -3.6358352312638289E+01  -1.078E-04   4.369E-05 DIIS
    Iter   4:  -3.6358358405356277E+01  -6.093E-06   8.792E-06 DIIS
    Iter   5:  -3.6358358622072693E+01  -2.167E-07   1.845E-06 DIIS
    Iter   6:  -3.6358358631104288E+01  -9.032E-09   2.807E-07 DIIS
    Iter   7:  -3.6358358631356289E+01  -2.520E-10   4.197E-08 DIIS
    Iter   8:  -3.6358358631360844E+01  -4.555E-12   4.213E-09 DIIS

    FISAPTSCF Converged.

    Final SCF Energy:  -3.6358358631360844E+01 [Eh]

   => Occupied Orbital Energies <=

       1  -11.237544     2   -0.852054     3   -0.560788  
       4   -0.557320  

   => Virtual Orbital Energies <=

       5    0.033640     6    0.051779     7    0.056708  
       8    0.066271     9    0.072984    10    0.079251  
      11    0.085845    12    0.094159    13    0.099451  
      14    0.100856    15    0.103226    16    0.107721  
      17    0.115622    18    0.118599    19    0.126412  
      20    0.128807    21    0.134499    22    0.141251  
      23    0.145655    24    0.148276    25    0.154102  
      26    0.158513    27    0.160384    28    0.165737  
      29    0.167934    30    0.175886    31    0.181506  
      32    0.190014    33    0.199817    34    0.201187  
      35    0.206877    36    0.211782    37    0.218983  
      38    0.222076    39    0.229189    40    0.233600  
      41    0.238318    42    0.241997    43    0.251283  
      44    0.253952    45    0.261873    46    0.267967  
      47    0.272739    48    0.277907    49    0.279054  
      50    0.283710    51    0.288251    52    0.288764  
      53    0.301278    54    0.304502    55    0.306929  
      56    0.314608    57    0.321935    58    0.328555  
      59    0.334566    60    0.335113    61    0.345119  
      62    0.351126    63    0.352156    64    0.358897  
      65    0.368343    66    0.374241    67    0.377153  
      68    0.384404    69    0.387381    70    0.394874  
      71    0.399596    72    0.403663    73    0.414292  
      74    0.419655    75    0.430746    76    0.436228  
      77    0.442556    78    0.450182    79    0.459481  
      80    0.462851    81    0.469744    82    0.482009  
      83    0.486096    84    0.495212    85    0.497502  
      86    0.502539    87    0.519018    88    0.526429  
      89    0.533185    90    0.553118    91    0.563348  
      92    0.586573    93    0.588367    94    0.603125  
      95    0.607701    96    0.632130    97    0.634324  
      98    0.635756    99    0.651047   100    0.662873  
     101    0.692751   102    0.712354   103    0.737968  
     104    0.756876   105    0.759879   106    0.768682  
     107    0.783482   108    0.806540   109    0.811626  
     110    0.829863   111    0.837429   112    0.850966  
     113    0.861884   114    0.867197   115    0.890747  
     116    0.909851   117    0.913854   118    0.918720  
     119    0.925655   120    0.926873   121    0.930721  
     122    0.934051   123    0.940075   124    0.947486  
     125    0.949941   126    0.952554   127    0.968091  
     128    0.976829   129    0.980322   130    0.981322  
     131    0.991476   132    1.001972   133    1.004372  
     134    1.010020   135    1.022588   136    1.040156  
     137    1.044058   138    1.050296   139    1.068640  
     140    1.081403   141    1.105267   142    1.106379  
     143    1.130637   144    1.148075   145    1.156240  
     146    1.164006   147    1.171150   148    1.188222  
     149    1.205557   150    1.209085   151    1.242482  
     152    1.258754   153    1.266217   154    1.272297  
     155    1.297822   156    1.309418   157    1.324816  
     158    1.338285   159    1.350605   160    1.361559  
     161    1.392148   162    1.410407   163    1.418289  
     164    1.448801   165    1.470035   166    1.479641  
     167    1.494601   168    1.503018   169    1.531487  
     170    1.558168   171    1.566124   172    1.573745  
     173    1.582129   174    1.586476   175    1.594452  
     176    1.621473   177    1.636915   178    1.646648  
     179    1.666657   180    1.672953   181    1.683064  
     182    1.694527   183    1.708415   184    1.712929  
     185    1.742666   186    1.752752   187    1.763641  
     188    1.779883   189    1.782678   190    1.811935  
     191    1.815329   192    1.829297   193    1.835827  
     194    1.852735   195    1.880928   196    1.889870  
     197    1.897282   198    1.926145   199    1.931198  
     200    1.937808   201    1.947012   202    1.956253  
     203    1.965662   204    1.978257   205    1.984728  
     206    1.991681   207    2.002515   208    2.015971  
     209    2.026566   210    2.028654   211    2.036548  
     212    2.046048   213    2.056232   214    2.060285  
     215    2.063725   216    2.071608   217    2.073225  
     218    2.089372   219    2.125694   220    2.135727  
     221    2.148348   222    2.157388   223    2.164192  
     224    2.175773   225    2.178386   226    2.195572  
     227    2.199482   228    2.242722   229    2.267729  
     230    2.272542   231    2.278235   232    2.294584  
     233    2.309063   234    2.329218   235    2.338409  
     236    2.343279   237    2.357199   238    2.381732  
     239    2.391071   240    2.399572   241    2.410446  
     242    2.426198   243    2.431810   244    2.442024  
     245    2.473934   246    2.515137   247    2.522830  
     248    2.533043   249    2.564291   250    2.571492  
     251    2.594669   252    2.602475   253    2.634920  
     254    2.648732   255    2.676445   256    2.687373  
     257    2.704682   258    2.712306   259    2.726266  
     260    2.761096   261    2.779303   262    2.808333  
     263    2.817551   264    2.833623   265    2.855642  
     266    2.866494   267    2.874524   268    2.877317  
     269    2.885020   270    2.889148   271    2.912072  
     272    2.914325   273    2.921925   274    2.943779  
     275    2.966076   276    2.987445   277    3.060736  
     278    3.080901   279    3.100396   280    3.111850  
     281    3.148884   282    3.192093   283    3.249948  
     284    3.290205   285    3.341784   286    3.379407  
     287    3.445011   288    3.581347   289    3.655631  
     290    3.674187   291    3.776688   292    3.803584  
     293    3.875787   294    3.948487   295    4.004591  
     296    4.090841   297    4.126962   298    4.251419  
     299    4.431921   300    4.512739   301    4.567816  
     302    4.741925   303    4.967676   304    5.040840  
     305    5.067999   306    5.220831   307    5.345318  
     308    5.545901   309    5.556069   310    5.641809  
     311    5.875644   312    6.259001   313    6.385125  
     314    6.743354   315   13.413720   316   18.436156  
     317   33.425634   318   33.479442  

  ==> SCF B: <==

    Maxiter =          50
    E Tol   =   1.000E-06
    D Tol   =   1.000E-08

    Max DIIS Vectors = 5

    Iter   N:                        E          dE         |D|
    Iter   1:  -2.2413533542601169E+02  -2.241E+02   3.600E-03 
    Iter   2:  -2.2415362809739199E+02  -1.829E-02   3.928E-04 DIIS
    Iter   3:  -2.2415442101667554E+02  -7.929E-04   1.343E-04 DIIS
    Iter   4:  -2.2415449378357022E+02  -7.277E-05   8.673E-05 DIIS
    Iter   5:  -2.2415450982075612E+02  -1.604E-05   1.336E-05 DIIS
    Iter   6:  -2.2415451102791087E+02  -1.207E-06   8.886E-06 DIIS
    Iter   7:  -2.2415451115983217E+02  -1.319E-07   2.416E-06 DIIS
    Iter   8:  -2.2415451119307116E+02  -3.324E-08   7.839E-07 DIIS
    Iter   9:  -2.2415451119714658E+02  -4.075E-09   3.177E-07 DIIS
    Iter  10:  -2.2415451119752075E+02  -3.742E-10   9.965E-08 DIIS
    Iter  11:  -2.2415451119756011E+02  -3.936E-11   1.650E-08 DIIS
    Iter  12:  -2.2415451119756256E+02  -2.444E-12   1.630E-08 DIIS
    Iter  13:  -2.2415451119756298E+02  -4.263E-13   3.524E-09 DIIS

    FISAPTSCF Converged.

    Final SCF Energy:  -2.2415451119756298E+02 [Eh]

   => Occupied Orbital Energies <=

       1  -20.608436     2  -20.550477     3  -11.392851  
       4  -11.294840     5   -1.442469     6   -1.357479  
       7   -0.963966     8   -0.769104     9   -0.672572  
      10   -0.661967    11   -0.626333    12   -0.538410  
      13   -0.537329    14   -0.476095    15   -0.462308  

   => Virtual Orbital Energies <=

      16    0.017831    17    0.055530    18    0.057761  
      19    0.066691    20    0.073806    21    0.080186  
      22    0.085103    23    0.091846    24    0.096095  
      25    0.101978    26    0.103053    27    0.104809  
      28    0.113204    29    0.116794    30    0.118659  
      31    0.122176    32    0.129587    33    0.134638  
      34    0.140429    35    0.146465    36    0.152237  
      37    0.154954    38    0.162799    39    0.167764  
      40    0.174329    41    0.175789    42    0.184955  
      43    0.193062    44    0.195714    45    0.204447  
      46    0.208204    47    0.215815    48    0.224647  
      49    0.227032    50    0.232436    51    0.237069  
      52    0.237851    53    0.243875    54    0.251752  
      55    0.254954    56    0.258046    57    0.268922  
      58    0.274442    59    0.279128    60    0.281839  
      61    0.289927    62    0.295373    63    0.298256  
      64    0.303953    65    0.306271    66    0.320056  
      67    0.321126    68    0.328601    69    0.331657  
      70    0.334375    71    0.343347    72    0.345755  
      73    0.347043    74    0.358430    75    0.360796  
      76    0.361939    77    0.374775    78    0.379414  
      79    0.381552    80    0.386375    81    0.395552  
      82    0.404748    83    0.410176    84    0.419643  
      85    0.421565    86    0.427452    87    0.429420  
      88    0.440511    89    0.445072    90    0.454342  
      91    0.459159    92    0.462439    93    0.470043  
      94    0.477373    95    0.478405    96    0.491027  
      97    0.493530    98    0.503948    99    0.514237  
     100    0.516353   101    0.530784   102    0.546469  
     103    0.557831   104    0.564881   105    0.569133  
     106    0.584467   107    0.602178   108    0.608282  
     109    0.631909   110    0.648555   111    0.664589  
     112    0.678291   113    0.699087   114    0.712709  
     115    0.740413   116    0.761927   117    0.783715  
     118    0.790985   119    0.807359   120    0.811192  
     121    0.831948   122    0.849574   123    0.851326  
     124    0.866699   125    0.870942   126    0.888012  
     127    0.897646   128    0.914019   129    0.919134  
     130    0.921629   131    0.925126   132    0.928765  
     133    0.936482   134    0.946317   135    0.955284  
     136    0.957917   137    0.963574   138    0.971479  
     139    0.973205   140    0.976589   141    0.986354  
     142    0.995417   143    1.014338   144    1.017756  
     145    1.022834   146    1.037874   147    1.050510  
     148    1.068424   149    1.072229   150    1.081103  
     151    1.082427   152    1.110548   153    1.135217  
     154    1.140986   155    1.152006   156    1.166893  
     157    1.183145   158    1.217295   159    1.222213  
     160    1.223860   161    1.233185   162    1.239974  
     163    1.273754   164    1.278499   165    1.281576  
     166    1.301656   167    1.329234   168    1.332735  
     169    1.336051   170    1.357954   171    1.375585  
     172    1.385820   173    1.394866   174    1.404171  
     175    1.418298   176    1.437777   177    1.446903  
     178    1.475543   179    1.485495   180    1.507825  
     181    1.518780   182    1.519401   183    1.530412  
     184    1.568347   185    1.571960   186    1.584381  
     187    1.601350   188    1.604422   189    1.611148  
     190    1.626201   191    1.645534   192    1.649999  
     193    1.659355   194    1.672041   195    1.675261  
     196    1.697154   197    1.701975   198    1.704636  
     199    1.723834   200    1.730730   201    1.748647  
     202    1.762644   203    1.766239   204    1.799397  
     205    1.804786   206    1.821738   207    1.827409  
     208    1.832019   209    1.875195   210    1.879791  
     211    1.882537   212    1.886968   213    1.909489  
     214    1.917766   215    1.930276   216    1.949757  
     217    1.952831   218    1.965684   219    1.973701  
     220    1.982518   221    1.987966   222    1.995329  
     223    2.002976   224    2.015968   225    2.023619  
     226    2.027716   227    2.030253   228    2.036317  
     229    2.055822   230    2.072944   231    2.073123  
     232    2.081346   233    2.096082   234    2.099196  
     235    2.105834   236    2.134422   237    2.141652  
     238    2.152680   239    2.160501   240    2.173584  
     241    2.190917   242    2.220831   243    2.223913  
     244    2.235784   245    2.246515   246    2.272443  
     247    2.286031   248    2.313314   249    2.316395  
     250    2.351345   251    2.360346   252    2.378730  
     253    2.383687   254    2.391902   255    2.400997  
     256    2.408749   257    2.431516   258    2.437753  
     259    2.439693   260    2.452580   261    2.466189  
     262    2.485005   263    2.513457   264    2.547774  
     265    2.563350   266    2.604105   267    2.624601  
     268    2.634244   269    2.696765   270    2.712211  
     271    2.717365   272    2.766091   273    2.770416  
     274    2.780473   275    2.795614   276    2.798806  
     277    2.808098   278    2.825554   279    2.852168  
     280    2.863618   281    2.871499   282    2.879254  
     283    2.888140   284    2.893957   285    2.901325  
     286    2.922436   287    2.931050   288    2.985665  
     289    3.003756   290    3.033972   291    3.059265  
     292    3.115426   293    3.119796   294    3.125095  
     295    3.184640   296    3.223310   297    3.252159  
     298    3.265578   299    3.290420   300    3.298040  
     301    3.342926   302    3.381211   303    3.452703  
     304    3.556505   305    3.578880   306    3.608374  
     307    3.673077   308    3.696338   309    3.777872  
     310    3.840660   311    3.940370   312    3.951534  
     313    4.079215   314    4.097498   315    4.113576  
     316    4.501203   317    4.564191   318   13.288975  

  ==> Frozen Core <==


    ------------------
    Range      A     B
    ------------------
    nbf      358   358
    nmo      318   318
    nocc       4    15
    nvir     314   303
    nfocc      1     4
    naocc      3    11
    navir    314   303
    nfvir      0     0
    ------------------

  ==> Unification <==

  ==> dHF <==

    E ABC(HF) =  -7.6211823176513701E+02 [Eh]
    E AC(0)   =  -5.3406581594926183E+02 [Eh]
    E BC(0)   =  -7.2199925818600786E+02 [Eh]
    E A(0)    =  -2.5020878599584201E+01 [Eh]
    E B(0)    =  -2.1261886801446039E+02 [Eh]
    E AC(HF)  =  -5.3406177410140003E+02 [Eh]
    E BC(HF)  =  -7.2198008241445609E+02 [Eh]
    E AB(HF)  =  -2.3760035304305654E+02 [Eh]
    E A(HF)   =  -2.5002499872206890E+01 [Eh]
    E B(HF)   =  -2.1259052408905492E+02 [Eh]
    E C       =  -4.9393095383251170E+02 [Eh]
    E HF      =   1.5888537620980969E-02 [Eh]

  ==> Electrostatics <==

    Elst10,r            =     0.007444047515 [Eh]

  ==> Exchange <==

    Exch10(S^2)         =     0.010586639024 [Eh]
    Exch10              =     0.010666405680 [Eh]

  ==> Induction <==

    Ind20,u (A<-B)      =    -0.001895507507 [Eh]
    Ind20,u (B<-A)      =    -0.001542842406 [Eh]
    Ind20,u             =    -0.003438349913 [Eh]
    Exch-Ind20,u (A<-B) =     0.001006011055 [Eh]
    Exch-Ind20,u (B<-A) =     0.001209100319 [Eh]
    Exch-Ind20,u        =     0.002215111374 [Eh]

  ==> CPHF Iterations <==

    Maxiter     =          50
    Convergence =   1.000E-08

    -----------------------------------------
    Iter   Monomer A    Monomer B    Time [s]
    -----------------------------------------
    1      1.246E-01    2.574E-01           0
    2      1.566E-02    1.024E-01           1
    3      3.875E-03    1.900E-02           2
    4      5.854E-04    7.495E-03           3
    5      7.675E-05    1.821E-03           4
    6      1.287E-05    6.213E-04           4
    7      1.826E-06    1.540E-04           5
    8      2.809E-07    7.499E-05           6
    9      3.065E-08    1.899E-05           7
    10     2.415E-09*   4.934E-06           8
    11     2.415E-09*   1.572E-06           8
    12     2.415E-09*   3.827E-07           9
    13     2.415E-09*   9.452E-08           9
    14     2.415E-09*   2.060E-08          10
    15     2.415E-09*   5.194E-09*         10
    -----------------------------------------

    Ind20,r (A<-B)      =    -0.002181049709 [Eh]
    Ind20,r (B<-A)      =    -0.001933111974 [Eh]
    Ind20,r             =    -0.004114161684 [Eh]
    Exch-Ind20,r (A<-B) =     0.001194687092 [Eh]
    Exch-Ind20,r (B<-A) =     0.001641718987 [Eh]
    Exch-Ind20,r        =     0.002836406079 [Eh]

  ==> F-SAPT Localization (IBO) <==

  Local Orbitals for Monomer A:

  ==> IBO Localizer 2 <==

    MinAO Basis = CC-PVTZ-MINAO
    Use Ghosts  =       FALSE
    Use Stars   =       FALSE
    Condition   =   1.000E-07
    Power       =           4
    Convergence =   1.000E-12
    Maxiter     =        1000

    @IBO Iter:                   Metric       Gradient
    @IBO    1:   1.0664070369774870E+00   2.049586E-02
    @IBO    2:   1.0842451278800389E+00   2.519511E-03
    @IBO    3:   1.0842497018877362E+00   4.912710E-07
    @IBO    4:   1.0842497018879103E+00   9.981021E-11
    @IBO    5:   1.0842497018879103E+00   2.159049E-14

    IBO Localizer 2 converged.

  Local Orbitals for Monomer B:

  ==> IBO Localizer 2 <==

    MinAO Basis = CC-PVTZ-MINAO
    Use Ghosts  =       FALSE
    Use Stars   =       FALSE
    Condition   =   1.000E-07
    Power       =           4
    Convergence =   1.000E-12
    Maxiter     =        1000

    @IBO Iter:                   Metric       Gradient
    @IBO    1:   1.4798408105840994E+00   1.564664E+00
    @IBO    2:   1.6739257085179173E+00   1.078426E+00
    @IBO    3:   1.7086362664778902E+00   2.855945E-01
    @IBO    4:   1.7098597843275318E+00   1.261275E-02
    @IBO    5:   1.7098640167078449E+00   4.024428E-04
    @IBO    6:   1.7098640190353704E+00   5.880094E-06
    @IBO    7:   1.7098640190360617E+00   1.513847E-07
    @IBO    8:   1.7098640190360623E+00   3.815084E-09
    @IBO    9:   1.7098640190360623E+00   1.191452E-10
    @IBO   10:   1.7098640190360623E+00   4.353280E-12
    @IBO   11:   1.7098640190360623E+00   1.686120E-13

    IBO Localizer 2 converged.

  ==> F-SAPT Electrostatics <==

  ==> DFERI: Density Fitted 3-Index Tensors <==

    Schwarz cutoff =   0.000E+00
    J cutoff       =   1.000E-12
    Mem (GB)       =         628

   => Auxiliary Basis <=

  Basis Set: (JUN-CC-PVDZ AUX)
    Blend: JUN-CC-PVDZ-JKFIT
    Number of shells: 558
    Number of basis function: 1586
    Number of Cartesian functions: 1806
    Spherical Harmonics?: true
    Max angular momentum: 3

    Elst10,r            =     0.007444021389 [Eh]

  ==> F-SAPT Exchange <==

  ==> DFERI: Density Fitted 3-Index Tensors <==

    Schwarz cutoff =   0.000E+00
    J cutoff       =   1.000E-12
    Mem (GB)       =         628

   => Auxiliary Basis <=

  Basis Set: (JUN-CC-PVDZ AUX)
    Blend: JUN-CC-PVDZ-JKFIT
    Number of shells: 558
    Number of basis function: 1586
    Number of Cartesian functions: 1806
    Spherical Harmonics?: true
    Max angular momentum: 3

    Exch10(S^2)         =     0.010586632300 [Eh]

    Scaling F-SAPT Exch10(S^2) by   1.008E+00 to match Exch10

  ==> F-SAPT Induction <==

  ==> DFERI: Density Fitted 3-Index Tensors <==

    Schwarz cutoff =   0.000E+00
    J cutoff       =   1.000E-12
    Mem (GB)       =         628

   => Auxiliary Basis <=

  Basis Set: (JUN-CC-PVDZ AUX)
    Blend: JUN-CC-PVDZ-JKFIT
    Number of shells: 558
    Number of basis function: 1586
    Number of Cartesian functions: 1806
    Spherical Harmonics?: true
    Max angular momentum: 3

    Ind20,u (A<-B)      =    -0.001895507288 [Eh]
    Ind20,u (B<-A)      =    -0.001542843121 [Eh]
    Ind20,u             =    -0.003438350408 [Eh]
    Exch-Ind20,u (A<-B) =     0.001006010953 [Eh]
    Exch-Ind20,u (B<-A) =     0.001209100482 [Eh]
    Exch-Ind20,u        =     0.002215111435 [Eh]

    Scaling for delta HF        =   1.739E+00
    Scaling for response (A<-B) =   1.109E+00
    Scaling for response (B<-A) =   8.731E-01
    Scaling for total (A<-B)    =   1.928E+00
    Scaling for total (B<-A)    =   1.518E+00

  ==> F-SAPT Dispersion <==

  ==> DFERI: Density Fitted 3-Index Tensors <==

    Schwarz cutoff =   0.000E+00
    J cutoff       =   1.000E-12
    Mem (GB)       =         628

   => Auxiliary Basis <=

  Basis Set: (JUN-CC-PVDZ AUX)
    Blend: JUN-CC-PVDZ-RI
    Number of shells: 420
    Number of basis function: 1236
    Number of Cartesian functions: 1426
    Spherical Harmonics?: true
    Max angular momentum: 3

    Disp20              =    -0.003529695689 [Eh]
    Exch-Disp20         =     0.000699304162 [Eh]

  ==> F-SAPT Output <==

    F-SAPT Data Filepath = fsapt/

  ==> Results <==


    SAPT Results  
  --------------------------------------------------------------------------------------------------------
    Electrostatics                  7.44404751 [mEh]       4.67121053 [kcal/mol]      19.54434675 [kJ/mol]
      Elst10,r                      7.44404751 [mEh]       4.67121053 [kcal/mol]      19.54434675 [kJ/mol]

    Exchange                       10.66640568 [mEh]       6.69327089 [kcal/mol]      28.00464811 [kJ/mol]
      Exch10                       10.66640568 [mEh]       6.69327089 [kcal/mol]      28.00464811 [kJ/mol]
      Exch10(S^2)                  10.58663902 [mEh]       6.64321656 [kcal/mol]      27.79522076 [kJ/mol]

    Induction                      -2.22191557 [mEh]      -1.39427313 [kcal/mol]      -5.83363934 [kJ/mol]
      Ind20,r                      -4.11416168 [mEh]      -2.58167554 [kcal/mol]     -10.80173150 [kJ/mol]
      Exch-Ind20,r                  2.83640608 [mEh]       1.77987176 [kcal/mol]       7.44698416 [kJ/mol]
      delta HF,r (2)               -0.94415997 [mEh]      -0.59246935 [kcal/mol]      -2.47889200 [kJ/mol]
      Induction (A<-B)             -1.71520630 [mEh]      -1.07630825 [kcal/mol]      -4.50327414 [kJ/mol]
      Induction (B<-A)             -0.50670927 [mEh]      -0.31796488 [kcal/mol]      -1.33036520 [kJ/mol]

    Dispersion                     -2.83039153 [mEh]      -1.77609757 [kcal/mol]      -7.43119296 [kJ/mol]
      Disp20                       -3.52969569 [mEh]      -2.21491758 [kcal/mol]      -9.26721603 [kJ/mol]
      Exch-Disp20                   0.69930416 [mEh]       0.43882000 [kcal/mol]       1.83602308 [kJ/mol]

  Total HF                         15.88853762 [mEh]       9.97020830 [kcal/mol]      41.71535552 [kJ/mol]
  Total SAPT0                      13.05814609 [mEh]       8.19411073 [kcal/mol]      34.28416257 [kJ/mol]

  --------------------------------------------------------------------------------------------------------
    Han Solo: This is *not* gonna work.
    Luke Skywalker: Why didn't you say so before?
    Han Solo: I *did* say so before.

*** tstop() called on vega02.cac.cornell.edu at Thu Oct 19 09:22:44 2017
Module time:
	user time   =    1728.60 seconds =      28.81 minutes
	system time =       9.77 seconds =       0.16 minutes
	total time  =         68 seconds =       1.13 minutes
Total time:
	user time   =    2443.82 seconds =      40.73 minutes
	system time =      16.39 seconds =       0.27 minutes
	total time  =        101 seconds =       1.68 minutes

*** Psi4 exiting successfully. Buy a developer a beer!
