
    -----------------------------------------------------------------------
          Psi4: An Open-Source Ab Initio Electronic Structure Package
                               Psi4 1.1 release

                         Git: Rev {HEAD} add49b9 


    R. M. Parrish, L. A. Burns, D. G. A. Smith, A. C. Simmonett,
    A. E. DePrince III, E. G. Hohenstein, U. Bozkaya, A. Yu. Sokolov,
    R. Di Remigio, R. M. Richard, J. F. Gonthier, A. M. James,
    H. R. McAlexander, A. Kumar, M. Saitow, X. Wang, B. P. Pritchard,
    P. Verma, H. F. Schaefer III, K. Patkowski, R. A. King, E. F. Valeev,
    F. A. Evangelista, J. M. Turney, T. D. Crawford, and C. D. Sherrill,
    J. Chem. Theory Comput. in press (2017).
    (doi: 10.1021/acs.jctc.7b00174)

    -----------------------------------------------------------------------


    Psi4 started on: Thursday, 19 October 2017 09:22AM

    Process ID:  18920
    PSIDATADIR: /opt/software/psi4/psi4conda/share/psi4
    Memory:     500.0 MiB
    Threads:    48
    
  ==> Input File <==

--------------------------------------------------------------------------
memory 750000 mb

molecule mol {
0 1
C          0.28394       -3.26195       -0.22184
H         -0.29293       -4.17626       -0.07391
H          0.73875       -3.30313       -1.21531
H          1.09648       -3.25476        0.50988
--
0 1
C          1.41689       -0.66363       -0.25233
O          1.99747       -0.72055       -1.30696
O          2.02794       -0.66002        0.94797
C          3.46566       -0.62344        0.91669
H          3.77915       -0.63557        1.95813
H          3.80824        0.28723        0.42255
H          3.86081       -1.48987        0.38392
--
0 1
C         -0.07938       -0.74456       -0.09226
C         -0.91886        0.38718        0.01080
C         -0.60256       -2.04673       -0.08055
C         -1.98191       -2.19664        0.05166
C         -2.81528       -1.09361        0.16028
C         -2.32023        0.21153        0.13817
H         -3.88430       -1.24347        0.26351
H         -2.40797       -3.19452        0.06838
C         -3.31850        1.33923        0.25178
H         -4.32452        0.92570        0.34946
H         -3.29004        1.99245       -0.62168
H         -3.11588        1.97683        1.11393
C         -0.36246        1.77404       -0.03093
O         -1.01115        2.79517        0.01728
O          0.98150        1.78708       -0.14230
C          1.60613        3.07592       -0.24426
H          1.19886        3.62977       -1.09082
H          1.44902        3.64872        0.67119
H          2.66388        2.87120       -0.39418

symmetry c1
no_reorient
no_com
}

set {
basis jun-cc-pvdz
scf_type df
guess sad
freeze_core true
}

energy('fisapt0')
--------------------------------------------------------------------------

  Memory set to 698.492 GiB by Python driver.

*** tstart() called on vega02.cac.cornell.edu
*** at Thu Oct 19 09:22:44 2017

   => Loading Basis Set <=

    Name: JUN-CC-PVDZ
    Role: ORBITAL
    Keyword: BASIS
    atoms 1, 5, 8, 12-17, 20, 24, 27     entry C          line   157 file /opt/software/psi4/psi4conda/share/psi4/basis/jun-cc-pvdz.gbs 
    atoms 2-4, 9-11, 18-19, 21-23, 28-30 entry H          line    35 file /opt/software/psi4/psi4conda/share/psi4/basis/jun-cc-pvdz.gbs 
    atoms 6-7, 25-26                     entry O          line   225 file /opt/software/psi4/psi4conda/share/psi4/basis/jun-cc-pvdz.gbs 


         ---------------------------------------------------------
                                   SCF
            by Justin Turney, Rob Parrish, and Andy Simmonett
                              RHF Reference
                       48 Threads, 715255 MiB Core
         ---------------------------------------------------------

  ==> Geometry <==

    Molecular point group: c1
    Full point group: C1

    Geometry (in Angstrom), charge = 0, multiplicity = 1:

       Center              X                  Y                   Z               Mass       
    ------------   -----------------  -----------------  -----------------  -----------------
           C          0.283940000000    -3.261950000000    -0.221840000000    12.000000000000
           H         -0.292930000000    -4.176260000000    -0.073910000000     1.007825032070
           H          0.738750000000    -3.303130000000    -1.215310000000     1.007825032070
           H          1.096480000000    -3.254760000000     0.509880000000     1.007825032070
           C          1.416890000000    -0.663630000000    -0.252330000000    12.000000000000
           O          1.997470000000    -0.720550000000    -1.306960000000    15.994914619560
           O          2.027940000000    -0.660020000000     0.947970000000    15.994914619560
           C          3.465660000000    -0.623440000000     0.916690000000    12.000000000000
           H          3.779150000000    -0.635570000000     1.958130000000     1.007825032070
           H          3.808240000000     0.287230000000     0.422550000000     1.007825032070
           H          3.860810000000    -1.489870000000     0.383920000000     1.007825032070
           C         -0.079380000000    -0.744560000000    -0.092260000000    12.000000000000
           C         -0.918860000000     0.387180000000     0.010800000000    12.000000000000
           C         -0.602560000000    -2.046730000000    -0.080550000000    12.000000000000
           C         -1.981910000000    -2.196640000000     0.051660000000    12.000000000000
           C         -2.815280000000    -1.093610000000     0.160280000000    12.000000000000
           C         -2.320230000000     0.211530000000     0.138170000000    12.000000000000
           H         -3.884300000000    -1.243470000000     0.263510000000     1.007825032070
           H         -2.407970000000    -3.194520000000     0.068380000000     1.007825032070
           C         -3.318500000000     1.339230000000     0.251780000000    12.000000000000
           H         -4.324520000000     0.925700000000     0.349460000000     1.007825032070
           H         -3.290040000000     1.992450000000    -0.621680000000     1.007825032070
           H         -3.115880000000     1.976830000000     1.113930000000     1.007825032070
           C         -0.362460000000     1.774040000000    -0.030930000000    12.000000000000
           O         -1.011150000000     2.795170000000     0.017280000000    15.994914619560
           O          0.981500000000     1.787080000000    -0.142300000000    15.994914619560
           C          1.606130000000     3.075920000000    -0.244260000000    12.000000000000
           H          1.198860000000     3.629770000000    -1.090820000000     1.007825032070
           H          1.449020000000     3.648720000000     0.671190000000     1.007825032070
           H          2.663880000000     2.871200000000    -0.394180000000     1.007825032070

  Running in c1 symmetry.

  Rotational constants: A =      0.02124  B =      0.01870  C =      0.01077 [cm^-1]
  Rotational constants: A =    636.63916  B =    560.58684  C =    322.97746 [MHz]
  Nuclear repulsion = 1142.423963576101642

  Charge       = 0
  Multiplicity = 1
  Electrons    = 118
  Nalpha       = 59
  Nbeta        = 59

  ==> Algorithm <==

  SCF Algorithm Type is DF.
  DIIS enabled.
  MOM disabled.
  Fractional occupation disabled.
  Guess Type is SAD.
  Energy threshold   = 1.00e-08
  Density threshold  = 1.00e-08
  Integral threshold = 0.00e+00

  ==> Primary Basis <==

  Basis Set: JUN-CC-PVDZ
    Blend: JUN-CC-PVDZ
    Number of shells: 170
    Number of basis function: 358
    Number of Cartesian functions: 374
    Spherical Harmonics?: true
    Max angular momentum: 2

   => Loading Basis Set <=

    Name: (JUN-CC-PVDZ AUX)
    Role: JKFIT
    Keyword: DF_BASIS_SCF
    atoms 1, 5, 8, 12-17, 20, 24, 27     entry C          line   145 file /opt/software/psi4/psi4conda/share/psi4/basis/jun-cc-pvdz-jkfit.gbs 
    atoms 2-4, 9-11, 18-19, 21-23, 28-30 entry H          line    69 file /opt/software/psi4/psi4conda/share/psi4/basis/jun-cc-pvdz-jkfit.gbs 
    atoms 6-7, 25-26                     entry O          line   257 file /opt/software/psi4/psi4conda/share/psi4/basis/jun-cc-pvdz-jkfit.gbs 

  ==> Pre-Iterations <==

   -------------------------------------------------------
    Irrep   Nso     Nmo     Nalpha   Nbeta   Ndocc  Nsocc
   -------------------------------------------------------
     A        358     358       0       0       0       0
   -------------------------------------------------------
    Total     358     358      59      59      59       0
   -------------------------------------------------------

  ==> Integral Setup <==

  ==> DFJK: Density-Fitted J/K Matrices <==

    J tasked:                  Yes
    K tasked:                  Yes
    wK tasked:                  No
    OpenMP threads:             48
    Integrals threads:          48
    Memory (MB):            536441
    Algorithm:                Core
    Integral Cache:           NONE
    Schwarz Cutoff:          1E-12
    Fitting Condition:       1E-12

   => Auxiliary Basis Set <=

  Basis Set: (JUN-CC-PVDZ AUX)
    Blend: JUN-CC-PVDZ-JKFIT
    Number of shells: 558
    Number of basis function: 1586
    Number of Cartesian functions: 1806
    Spherical Harmonics?: true
    Max angular momentum: 3

  Minimum eigenvalue in the overlap matrix is 2.7559880426E-06.
  Using Symmetric Orthogonalization.

  SCF Guess: Superposition of Atomic Densities via on-the-fly atomic UHF.

  ==> Iterations <==

                           Total Energy        Delta E     RMS |[F,P]|

   @DF-RHF iter   0:  -771.61602355774198   -7.71616e+02   1.01815e-01 
   @DF-RHF iter   1:  -761.60016144824863    1.00159e+01   1.37692e-02 
   @DF-RHF iter   2:  -761.95814415389520   -3.57983e-01   7.37297e-03 DIIS
   @DF-RHF iter   3:  -762.09989912303695   -1.41755e-01   2.50466e-03 DIIS
   @DF-RHF iter   4:  -762.11563827856708   -1.57392e-02   5.81982e-04 DIIS
   @DF-RHF iter   5:  -762.11790711131277   -2.26883e-03   1.80394e-04 DIIS
   @DF-RHF iter   6:  -762.11818099627271   -2.73885e-04   8.04377e-05 DIIS
   @DF-RHF iter   7:  -762.11822716078450   -4.61645e-05   2.50882e-05 DIIS
   @DF-RHF iter   8:  -762.11823103961069   -3.87883e-06   8.19883e-06 DIIS
   @DF-RHF iter   9:  -762.11823162137125   -5.81761e-07   4.03565e-06 DIIS
   @DF-RHF iter  10:  -762.11823173552739   -1.14156e-07   1.32331e-06 DIIS
   @DF-RHF iter  11:  -762.11823175223515   -1.67078e-08   5.76927e-07 DIIS
   @DF-RHF iter  12:  -762.11823175469488   -2.45973e-09   2.45442e-07 DIIS
   @DF-RHF iter  13:  -762.11823175510438   -4.09500e-10   6.18870e-08 DIIS
   @DF-RHF iter  14:  -762.11823175515792   -5.35465e-11   3.49547e-08 DIIS
   @DF-RHF iter  15:  -762.11823175516815   -1.02318e-11   1.83620e-08 DIIS
   @DF-RHF iter  16:  -762.11823175516747    6.82121e-13   9.28750e-09 DIIS

  ==> Post-Iterations <==

    Orbital Energies (a.u.)
    -----------------------

    Doubly Occupied:                                                      

       1A    -20.612584     2A    -20.610919     3A    -20.555298  
       4A    -20.554145     5A    -11.397558     6A    -11.396853  
       7A    -11.298022     8A    -11.297013     9A    -11.276515  
      10A    -11.271021    11A    -11.269174    12A    -11.261989  
      13A    -11.257638    14A    -11.247689    15A    -11.238557  
      16A    -11.227434    17A     -1.473574    18A     -1.464807  
      19A     -1.367364    20A     -1.365875    21A     -1.183207  
      22A     -1.085382    23A     -1.064732    24A     -0.993822  
      25A     -0.985384    26A     -0.970212    27A     -0.914906  
      28A     -0.879042    29A     -0.833034    30A     -0.784992  
      31A     -0.770423    32A     -0.726626    33A     -0.708241  
      34A     -0.696648    35A     -0.680226    36A     -0.673518  
      37A     -0.668488    38A     -0.655308    39A     -0.641024  
      40A     -0.607125    41A     -0.592198    42A     -0.583252  
      43A     -0.574890    44A     -0.566977    45A     -0.561838  
      46A     -0.551483    47A     -0.547962    48A     -0.537875  
      49A     -0.534509    50A     -0.527891    51A     -0.515376  
      52A     -0.503744    53A     -0.488750    54A     -0.472206  
      55A     -0.457093    56A     -0.453029    57A     -0.444501  
      58A     -0.355286    59A     -0.330407  

    Virtual:                                                              

      60A      0.053284    61A      0.055049    62A      0.058599  
      63A      0.066801    64A      0.071283    65A      0.076490  
      66A      0.084517    67A      0.092534    68A      0.095991  
      69A      0.101152    70A      0.103327    71A      0.108932  
      72A      0.114314    73A      0.117166    74A      0.119102  
      75A      0.126304    76A      0.134735    77A      0.137329  
      78A      0.143674    79A      0.149406    80A      0.152146  
      81A      0.160177    82A      0.164037    83A      0.170772  
      84A      0.172864    85A      0.182289    86A      0.189218  
      87A      0.191519    88A      0.201379    89A      0.203253  
      90A      0.211489    91A      0.221073    92A      0.225176  
      93A      0.229069    94A      0.230076    95A      0.234724  
      96A      0.235523    97A      0.243397    98A      0.249249  
      99A      0.255010   100A      0.262301   101A      0.266645  
     102A      0.271134   103A      0.273641   104A      0.277431  
     105A      0.292458   106A      0.294898   107A      0.296283  
     108A      0.301446   109A      0.303394   110A      0.316014  
     111A      0.320383   112A      0.324472   113A      0.332264  
     114A      0.333820   115A      0.339598   116A      0.341527  
     117A      0.346933   118A      0.352559   119A      0.359335  
     120A      0.372628   121A      0.375323   122A      0.375904  
     123A      0.382723   124A      0.394064   125A      0.400565  
     126A      0.401049   127A      0.413032   128A      0.414121  
     129A      0.418249   130A      0.421199   131A      0.432449  
     132A      0.434255   133A      0.440575   134A      0.448980  
     135A      0.456365   136A      0.464213   137A      0.466692  
     138A      0.475294   139A      0.476946   140A      0.484909  
     141A      0.495301   142A      0.497192   143A      0.510746  
     144A      0.517282   145A      0.524573   146A      0.533974  
     147A      0.540417   148A      0.553005   149A      0.582877  
     150A      0.586566   151A      0.611116   152A      0.624180  
     153A      0.641893   154A      0.677098   155A      0.699604  
     156A      0.727986   157A      0.747514   158A      0.755075  
     159A      0.767689   160A      0.784039   161A      0.791112  
     162A      0.795166   163A      0.805895   164A      0.826025  
     165A      0.838081   166A      0.842564   167A      0.855891  
     168A      0.871781   169A      0.880975   170A      0.891807  
     171A      0.895636   172A      0.908856   173A      0.911423  
     174A      0.916620   175A      0.922459   176A      0.928877  
     177A      0.932710   178A      0.934699   179A      0.941635  
     180A      0.944224   181A      0.950433   182A      0.958127  
     183A      0.964782   184A      0.965062   185A      0.969620  
     186A      0.976601   187A      0.986221   188A      0.991095  
     189A      0.993775   190A      1.003489   191A      1.023250  
     192A      1.026890   193A      1.042897   194A      1.057444  
     195A      1.060429   196A      1.068748   197A      1.076225  
     198A      1.094965   199A      1.119295   200A      1.133039  
     201A      1.139343   202A      1.143147   203A      1.160550  
     204A      1.171164   205A      1.176546   206A      1.211670  
     207A      1.216099   208A      1.228446   209A      1.233115  
     210A      1.245664   211A      1.258063   212A      1.264176  
     213A      1.282054   214A      1.306877   215A      1.322353  
     216A      1.326921   217A      1.332337   218A      1.360053  
     219A      1.372272   220A      1.386561   221A      1.396930  
     222A      1.406449   223A      1.428301   224A      1.450816  
     225A      1.490243   226A      1.491979   227A      1.510870  
     228A      1.519919   229A      1.542969   230A      1.557287  
     231A      1.563295   232A      1.578095   233A      1.590223  
     234A      1.599073   235A      1.607272   236A      1.612579  
     237A      1.627828   238A      1.644447   239A      1.655843  
     240A      1.667957   241A      1.673238   242A      1.678328  
     243A      1.696785   244A      1.699867   245A      1.712440  
     246A      1.719823   247A      1.732933   248A      1.757965  
     249A      1.775400   250A      1.795088   251A      1.803415  
     252A      1.815510   253A      1.826506   254A      1.835154  
     255A      1.856283   256A      1.872098   257A      1.880271  
     258A      1.903903   259A      1.908968   260A      1.923546  
     261A      1.932056   262A      1.939350   263A      1.950292  
     264A      1.962179   265A      1.969703   266A      1.971098  
     267A      1.981592   268A      1.986552   269A      1.999592  
     270A      2.011029   271A      2.016272   272A      2.023764  
     273A      2.035790   274A      2.043561   275A      2.048836  
     276A      2.056842   277A      2.063508   278A      2.075186  
     279A      2.082484   280A      2.096800   281A      2.108970  
     282A      2.114560   283A      2.135575   284A      2.144290  
     285A      2.166186   286A      2.172155   287A      2.181511  
     288A      2.187101   289A      2.197888   290A      2.213572  
     291A      2.247349   292A      2.263982   293A      2.281884  
     294A      2.297928   295A      2.308289   296A      2.337927  
     297A      2.359883   298A      2.365688   299A      2.388768  
     300A      2.398387   301A      2.405306   302A      2.419657  
     303A      2.432769   304A      2.436797   305A      2.449048  
     306A      2.472549   307A      2.514582   308A      2.517408  
     309A      2.530115   310A      2.556680   311A      2.593196  
     312A      2.599486   313A      2.607249   314A      2.652035  
     315A      2.684468   316A      2.713548   317A      2.758832  
     318A      2.772111   319A      2.780029   320A      2.790338  
     321A      2.814108   322A      2.836882   323A      2.852021  
     324A      2.857347   325A      2.867549   326A      2.874861  
     327A      2.879092   328A      2.893709   329A      2.904539  
     330A      2.913666   331A      2.939354   332A      2.954106  
     333A      2.995384   334A      3.027197   335A      3.037798  
     336A      3.061343   337A      3.087433   338A      3.113912  
     339A      3.139475   340A      3.154128   341A      3.233807  
     342A      3.248731   343A      3.284016   344A      3.292665  
     345A      3.338380   346A      3.375796   347A      3.440558  
     348A      3.550580   349A      3.576152   350A      3.646294  
     351A      3.681140   352A      3.732188   353A      3.775123  
     354A      3.832623   355A      3.939661   356A      3.991461  
     357A      4.086793   358A      4.094094  

    Final Occupation by Irrep:
              A 
    DOCC [    59 ]

  Energy converged.

  @DF-RHF Final Energy:  -762.11823175516747

   => Energetics <=

    Nuclear Repulsion Energy =           1142.4239635761016416
    One-Electron Energy =               -3309.9531201667441564
    Two-Electron Energy =                1405.4109248354752708
    DFT Exchange-Correlation Energy =       0.0000000000000000
    Empirical Dispersion Energy =           0.0000000000000000
    PCM Polarization Energy =               0.0000000000000000
    EFP Energy =                            0.0000000000000000
    Total Energy =                       -762.1182317551674714



Properties will be evaluated at   0.000000,   0.000000,   0.000000 Bohr

Properties computed using the SCF density matrix

  Nuclear Dipole Moment: (a.u.)
     X:    -0.9708      Y:     1.1183      Z:     3.9991

  Electronic Dipole Moment: (a.u.)
     X:     1.2676      Y:    -1.6706      Z:    -3.3393

  Dipole Moment: (a.u.)
     X:     0.2968      Y:    -0.5523      Z:     0.6598     Total:     0.9102

  Dipole Moment: (Debye)
     X:     0.7545      Y:    -1.4038      Z:     1.6771     Total:     2.3135


*** tstop() called on vega02.cac.cornell.edu at Thu Oct 19 09:23:15 2017
Module time:
	user time   =     685.98 seconds =      11.43 minutes
	system time =       5.79 seconds =       0.10 minutes
	total time  =         31 seconds =       0.52 minutes
Total time:
	user time   =     685.98 seconds =      11.43 minutes
	system time =       5.79 seconds =       0.10 minutes
	total time  =         31 seconds =       0.52 minutes
   => Loading Basis Set <=

    Name: (JUN-CC-PVDZ AUX)
    Role: JKFIT
    Keyword: DF_BASIS_SCF
    atoms 1, 5, 8, 12-17, 20, 24, 27     entry C          line   145 file /opt/software/psi4/psi4conda/share/psi4/basis/jun-cc-pvdz-jkfit.gbs 
    atoms 2-4, 9-11, 18-19, 21-23, 28-30 entry H          line    69 file /opt/software/psi4/psi4conda/share/psi4/basis/jun-cc-pvdz-jkfit.gbs 
    atoms 6-7, 25-26                     entry O          line   257 file /opt/software/psi4/psi4conda/share/psi4/basis/jun-cc-pvdz-jkfit.gbs 

   => Loading Basis Set <=

    Name: (JUN-CC-PVDZ AUX)
    Role: RIFIT
    Keyword: DF_BASIS_SAPT
    atoms 1, 5, 8, 12-17, 20, 24, 27     entry C          line    99 file /opt/software/psi4/psi4conda/share/psi4/basis/jun-cc-pvdz-ri.gbs 
    atoms 2-4, 9-11, 18-19, 21-23, 28-30 entry H          line    29 file /opt/software/psi4/psi4conda/share/psi4/basis/jun-cc-pvdz-ri.gbs 
    atoms 6-7, 25-26                     entry O          line   187 file /opt/software/psi4/psi4conda/share/psi4/basis/jun-cc-pvdz-ri.gbs 

   => Loading Basis Set <=

    Name: CC-PVTZ-MINAO
    Role: ORBITAL
    Keyword: BASIS
    atoms 1, 5, 8, 12-17, 20, 24, 27     entry C          line   130 file /opt/software/psi4/psi4conda/share/psi4/basis/cc-pvtz-minao.gbs 
    atoms 2-4, 9-11, 18-19, 21-23, 28-30 entry H          line    19 file /opt/software/psi4/psi4conda/share/psi4/basis/cc-pvtz-minao.gbs 
    atoms 6-7, 25-26                     entry O          line   190 file /opt/software/psi4/psi4conda/share/psi4/basis/cc-pvtz-minao.gbs 


*** tstart() called on vega02.cac.cornell.edu
*** at Thu Oct 19 09:23:16 2017

	 --------------------------------------------
	                    FISAPT0                  
	                  Rob Parrish                
	 --------------------------------------------

    Do F-SAPT =         Yes
    Do Plot   =          No
    Memory    =      78.580 [GD]

  ==> Localization (IBO) <==

  ==> IBO Localizer 2 <==

    MinAO Basis = CC-PVTZ-MINAO
    Use Ghosts  =       FALSE
    Use Stars   =       FALSE
    Condition   =   1.000E-07
    Power       =           4
    Convergence =   1.000E-12
    Maxiter     =        1000

    @IBO Iter:                   Metric       Gradient
    @IBO    1:   1.9689141727735946E+00   2.828368E+00
    @IBO    2:   2.2120489923584445E+00   1.949305E+00
    @IBO    3:   2.2821444128539410E+00   9.671299E-01
    @IBO    4:   2.2886271270598404E+00   5.820739E-02
    @IBO    5:   2.2886479582478971E+00   6.625239E-04
    @IBO    6:   2.2886479625757552E+00   3.973208E-05
    @IBO    7:   2.2886479626321030E+00   8.226882E-06
    @IBO    8:   2.2886479626347667E+00   1.841760E-06
    @IBO    9:   2.2886479626349052E+00   4.174028E-07
    @IBO   10:   2.2886479626349123E+00   9.504657E-08
    @IBO   11:   2.2886479626349132E+00   2.169514E-08
    @IBO   12:   2.2886479626349128E+00   4.958986E-09
    @IBO   13:   2.2886479626349128E+00   1.134469E-09
    @IBO   14:   2.2886479626349123E+00   2.596737E-10
    @IBO   15:   2.2886479626349128E+00   5.945976E-11
    @IBO   16:   2.2886479626349128E+00   1.361880E-11
    @IBO   17:   2.2886479626349128E+00   3.120019E-12
    @IBO   18:   2.2886479626349128E+00   7.149471E-13

    IBO Localizer 2 converged.

  ==> Partitioning <==

   => Atomic Partitioning <= 

    Monomer A:   4 atoms
    Monomer B:   7 atoms
    Monomer C:  19 atoms

   => Link Bond Identification <=

    Link Bond Selection = AUTOMATIC

    Charge Completeness = 0.800

    Total Link Bonds = 2

    --------------------------
    N     Orb Type Aind1 Aind2
    --------------------------
    1      19   BC     5    12
    2      43   AC     1    14
    --------------------------

   => Link Bond Assignment <=

    Link Bond Assignment      = C

   => Partition Summary <=

    Monomer A:  0 charge,   8 protons,   8 electrons,   4 docc
    Monomer B:  0 charge,  30 protons,  30 electrons,  15 docc
    Monomer C:  0 charge,  80 protons,  80 electrons,  40 docc

  ==> Overlap Integrals <==

  ==> Kinetic Integrals <==

  ==> Nuclear Integrals <==

    Nuclear Repulsion Tot:   1.1424239635761030E+03 [Eh]

  ==> Coulomb Integrals <==

  ==> DFJK: Density-Fitted J/K Matrices <==

    J tasked:                  Yes
    K tasked:                  Yes
    wK tasked:                  No
    OpenMP threads:             48
    Integrals threads:          48
    Memory (MB):            643730
    Algorithm:                Core
    Integral Cache:           NONE
    Schwarz Cutoff:          1E-12
    Fitting Condition:       1E-12

   => Auxiliary Basis Set <=

  Basis Set: (JUN-CC-PVDZ AUX)
    Blend: JUN-CC-PVDZ-JKFIT
    Number of shells: 558
    Number of basis function: 1586
    Number of Cartesian functions: 1806
    Spherical Harmonics?: true
    Max angular momentum: 3

  ==> Relaxed SCF Equations <==

  ==> SCF A: <==

    Maxiter =          50
    E Tol   =   1.000E-06
    D Tol   =   1.000E-08

    Max DIIS Vectors = 5

    Iter   N:                        E          dE         |D|
    Iter   1:  -3.6289625350526613E+01  -3.629E+01   1.105E-03 
    Iter   2:  -3.6291644730544292E+01  -2.019E-03   1.101E-04 DIIS
    Iter   3:  -3.6291692899948863E+01  -4.817E-05   2.931E-05 DIIS
    Iter   4:  -3.6291695546392830E+01  -2.646E-06   8.918E-06 DIIS
    Iter   5:  -3.6291695720138215E+01  -1.737E-07   1.269E-06 DIIS
    Iter   6:  -3.6291695726282839E+01  -6.145E-09   1.608E-07 DIIS
    Iter   7:  -3.6291695726436565E+01  -1.537E-10   2.963E-08 DIIS
    Iter   8:  -3.6291695726439755E+01  -3.190E-12   4.546E-09 DIIS

    FISAPTSCF Converged.

    Final SCF Energy:  -3.6291695726439755E+01 [Eh]

   => Occupied Orbital Energies <=

       1  -11.233940     2   -0.849034     3   -0.555492  
       4   -0.550515  

   => Virtual Orbital Energies <=

       5    0.033118     6    0.053349     7    0.060761  
       8    0.064375     9    0.067425    10    0.078764  
      11    0.082345    12    0.093039    13    0.096352  
      14    0.099131    15    0.103783    16    0.108050  
      17    0.112591    18    0.115530    19    0.117298  
      20    0.129109    21    0.135667    22    0.137076  
      23    0.141062    24    0.147230    25    0.152737  
      26    0.155265    27    0.163458    28    0.167888  
      29    0.171178    30    0.177746    31    0.181083  
      32    0.185200    33    0.199356    34    0.201122  
      35    0.210341    36    0.218381    37    0.223765  
      38    0.226835    39    0.228359    40    0.240310  
      41    0.247977    42    0.249008    43    0.251418  
      44    0.256113    45    0.258215    46    0.264306  
      47    0.267960    48    0.277583    49    0.281592  
      50    0.288412    51    0.292722    52    0.296614  
      53    0.300900    54    0.307875    55    0.314115  
      56    0.318056    57    0.324226    58    0.324985  
      59    0.328794    60    0.336460    61    0.343051  
      62    0.349293    63    0.353131    64    0.357513  
      65    0.367339    66    0.376095    67    0.383224  
      68    0.384723    69    0.392877    70    0.395827  
      71    0.405867    72    0.408477    73    0.410691  
      74    0.416748    75    0.427192    76    0.428893  
      77    0.439022    78    0.449731    79    0.457476  
      80    0.464798    81    0.474752    82    0.480536  
      83    0.487093    84    0.492495    85    0.498409  
      86    0.503649    87    0.519644    88    0.523245  
      89    0.530193    90    0.539992    91    0.547090  
      92    0.567577    93    0.574511    94    0.600966  
      95    0.607838    96    0.618323    97    0.634667  
      98    0.649800    99    0.660495   100    0.687517  
     101    0.694625   102    0.705854   103    0.745848  
     104    0.758048   105    0.765687   106    0.789900  
     107    0.796240   108    0.815313   109    0.825588  
     110    0.844129   111    0.856846   112    0.863815  
     113    0.877224   114    0.887963   115    0.899217  
     116    0.911291   117    0.914465   118    0.925895  
     119    0.929315   120    0.930911   121    0.945158  
     122    0.946788   123    0.951478   124    0.955293  
     125    0.965546   126    0.972487   127    0.975130  
     128    0.979614   129    0.991133   130    0.992171  
     131    0.997689   132    1.004660   133    1.015089  
     134    1.021512   135    1.023855   136    1.050549  
     137    1.056310   138    1.074188   139    1.083939  
     140    1.097020   141    1.106480   142    1.125428  
     143    1.148337   144    1.156383   145    1.164722  
     146    1.165315   147    1.178356   148    1.184311  
     149    1.193806   150    1.214688   151    1.225603  
     152    1.246822   153    1.250558   154    1.265346  
     155    1.273268   156    1.285173   157    1.304705  
     158    1.318901   159    1.323601   160    1.347028  
     161    1.354306   162    1.376203   163    1.386660  
     164    1.409941   165    1.453179   166    1.469986  
     167    1.478754   168    1.516760   169    1.539646  
     170    1.542611   171    1.562003   172    1.567825  
     173    1.582341   174    1.594093   175    1.600556  
     176    1.609663   177    1.617648   178    1.632915  
     179    1.641799   180    1.660726   181    1.674654  
     182    1.703931   183    1.711516   184    1.732086  
     185    1.734764   186    1.746503   187    1.789463  
     188    1.796641   189    1.801253   190    1.811238  
     191    1.829592   192    1.833879   193    1.842283  
     194    1.847598   195    1.869155   196    1.879296  
     197    1.899541   198    1.928184   199    1.935981  
     200    1.944979   201    1.952274   202    1.966940  
     203    1.970814   204    1.979325   205    1.989372  
     206    1.995836   207    2.006864   208    2.019801  
     209    2.030588   210    2.037056   211    2.045152  
     212    2.061236   213    2.063315   214    2.067939  
     215    2.079288   216    2.084979   217    2.095555  
     218    2.109536   219    2.117173   220    2.124241  
     221    2.145331   222    2.158881   223    2.162210  
     224    2.169963   225    2.187509   226    2.202317  
     227    2.211370   228    2.236438   229    2.260956  
     230    2.271404   231    2.278616   232    2.305524  
     233    2.317354   234    2.333603   235    2.339338  
     236    2.359292   237    2.376247   238    2.384605  
     239    2.392940   240    2.401910   241    2.423368  
     242    2.434894   243    2.444361   244    2.463396  
     245    2.494184   246    2.498253   247    2.541690  
     248    2.550083   249    2.567271   250    2.580244  
     251    2.608984   252    2.618771   253    2.637184  
     254    2.645819   255    2.664639   256    2.687778  
     257    2.714200   258    2.733726   259    2.781755  
     260    2.783575   261    2.792713   262    2.828731  
     263    2.850009   264    2.854239   265    2.858247  
     266    2.872359   267    2.878118   268    2.887613  
     269    2.892417   270    2.907107   271    2.918063  
     272    2.932878   273    2.955566   274    2.972502  
     275    2.996260   276    3.006208   277    3.034416  
     278    3.085750   279    3.106584   280    3.120842  
     281    3.162266   282    3.195547   283    3.266097  
     284    3.269116   285    3.313005   286    3.433625  
     287    3.475303   288    3.567854   289    3.636353  
     290    3.707941   291    3.781538   292    3.831682  
     293    3.875864   294    3.954076   295    4.015869  
     296    4.107166   297    4.147106   298    4.203437  
     299    4.450075   300    4.532492   301    4.538710  
     302    4.760892   303    4.935690   304    5.041659  
     305    5.068034   306    5.245865   307    5.327613  
     308    5.499676   309    5.585142   310    5.787470  
     311    5.852389   312    6.093090   313    6.375726  
     314    6.679662   315   13.393397   316   18.428154  
     317   33.428627   318   33.475694  

  ==> SCF B: <==

    Maxiter =          50
    E Tol   =   1.000E-06
    D Tol   =   1.000E-08

    Max DIIS Vectors = 5

    Iter   N:                        E          dE         |D|
    Iter   1:  -2.2420581015618561E+02  -2.242E+02   2.599E-03 
    Iter   2:  -2.2421437773009487E+02  -8.568E-03   2.244E-04 DIIS
    Iter   3:  -2.2421460698516267E+02  -2.293E-04   7.819E-05 DIIS
    Iter   4:  -2.2421462135095956E+02  -1.437E-05   5.087E-05 DIIS
    Iter   5:  -2.2421462461108328E+02  -3.260E-06   7.663E-06 DIIS
    Iter   6:  -2.2421462472027906E+02  -1.092E-07   3.394E-06 DIIS
    Iter   7:  -2.2421462473661128E+02  -1.633E-08   7.356E-07 DIIS
    Iter   8:  -2.2421462473832577E+02  -1.714E-09   2.806E-07 DIIS
    Iter   9:  -2.2421462473853524E+02  -2.095E-10   8.348E-08 DIIS
    Iter  10:  -2.2421462473858631E+02  -5.107E-11   5.120E-08 DIIS
    Iter  11:  -2.2421462473859498E+02  -8.669E-12   3.394E-08 DIIS
    Iter  12:  -2.2421462473859845E+02  -3.467E-12   1.417E-08 DIIS
    Iter  13:  -2.2421462473859907E+02  -6.253E-13   6.566E-09 DIIS

    FISAPTSCF Converged.

    Final SCF Energy:  -2.2421462473859907E+02 [Eh]

   => Occupied Orbital Energies <=

       1  -20.607069     2  -20.548667     3  -11.392340  
       4  -11.295314     5   -1.438614     6   -1.358281  
       7   -0.962884     8   -0.767116     9   -0.670754  
      10   -0.664045    11   -0.621447    12   -0.543563  
      13   -0.536572    14   -0.473375    15   -0.460826  

   => Virtual Orbital Energies <=

      16    0.006229    17    0.055989    18    0.060595  
      19    0.066658    20    0.072832    21    0.080769  
      22    0.087227    23    0.089533    24    0.092230  
      25    0.098361    26    0.099645    27    0.106534  
      28    0.110445    29    0.114664    30    0.117576  
      31    0.120032    32    0.132324    33    0.139928  
      34    0.141139    35    0.148675    36    0.151276  
      37    0.154177    38    0.161989    39    0.167632  
      40    0.174655    41    0.176905    42    0.187357  
      43    0.192512    44    0.195121    45    0.204407  
      46    0.208578    47    0.214031    48    0.225695  
      49    0.226735    50    0.229021    51    0.238553  
      52    0.241097    53    0.246449    54    0.249074  
      55    0.255079    56    0.257849    57    0.266056  
      58    0.274790    59    0.277120    60    0.283419  
      61    0.287138    62    0.288931    63    0.300892  
      64    0.306526    65    0.307090    66    0.311406  
      67    0.321434    68    0.326773    69    0.331342  
      70    0.339097    71    0.342479    72    0.348973  
      73    0.352502    74    0.354707    75    0.359745  
      76    0.370530    77    0.375673    78    0.380735  
      79    0.388617    80    0.389751    81    0.393329  
      82    0.402441    83    0.412185    84    0.418820  
      85    0.421386    86    0.427419    87    0.430099  
      88    0.437339    89    0.440338    90    0.452475  
      91    0.456684    92    0.462315    93    0.468991  
      94    0.473364    95    0.480901    96    0.482936  
      97    0.497795    98    0.506981    99    0.514389  
     100    0.525533   101    0.529771   102    0.535588  
     103    0.559572   104    0.563494   105    0.583710  
     106    0.589099   107    0.595274   108    0.616269  
     109    0.633197   110    0.642226   111    0.656763  
     112    0.682613   113    0.692937   114    0.725028  
     115    0.752900   116    0.768584   117    0.788426  
     118    0.789271   119    0.803346   120    0.807884  
     121    0.825343   122    0.843219   123    0.853995  
     124    0.869829   125    0.883705   126    0.886546  
     127    0.902156   128    0.905653   129    0.908348  
     130    0.925614   131    0.926144   132    0.937652  
     133    0.942613   134    0.945782   135    0.952423  
     136    0.956306   137    0.962855   138    0.972161  
     139    0.981329   140    0.987528   141    0.993465  
     142    1.005522   143    1.007019   144    1.013626  
     145    1.025890   146    1.034525   147    1.054594  
     148    1.061743   149    1.071962   150    1.084473  
     151    1.090398   152    1.096772   153    1.138072  
     154    1.144053   155    1.148997   156    1.170380  
     157    1.175224   158    1.206822   159    1.219730  
     160    1.238929   161    1.240626   162    1.249497  
     163    1.265369   164    1.266962   165    1.280876  
     166    1.305640   167    1.312928   168    1.326332  
     169    1.332326   170    1.354142   171    1.367685  
     172    1.393867   173    1.398536   174    1.412421  
     175    1.416014   176    1.426013   177    1.452389  
     178    1.482272   179    1.487580   180    1.501312  
     181    1.510784   182    1.524359   183    1.545896  
     184    1.548984   185    1.575268   186    1.592110  
     187    1.594993   188    1.601139   189    1.611531  
     190    1.624448   191    1.639577   192    1.647818  
     193    1.654177   194    1.666656   195    1.672628  
     196    1.683445   197    1.703183   198    1.706113  
     199    1.723424   200    1.741583   201    1.773695  
     202    1.777676   203    1.781967   204    1.791840  
     205    1.808755   206    1.810372   207    1.835056  
     208    1.843309   209    1.865296   210    1.879218  
     211    1.882189   212    1.892172   213    1.904211  
     214    1.922455   215    1.930321   216    1.941768  
     217    1.958076   218    1.961838   219    1.964441  
     220    1.977869   221    1.993060   222    2.002013  
     223    2.004379   224    2.012957   225    2.019155  
     226    2.026133   227    2.034406   228    2.037363  
     229    2.059952   230    2.067584   231    2.074965  
     232    2.080967   233    2.104827   234    2.113348  
     235    2.122536   236    2.124191   237    2.133590  
     238    2.159762   239    2.163651   240    2.171938  
     241    2.182423   242    2.193648   243    2.214379  
     244    2.232493   245    2.262897   246    2.268950  
     247    2.283683   248    2.297854   249    2.317544  
     250    2.342595   251    2.365255   252    2.385726  
     253    2.392631   254    2.397114   255    2.401602  
     256    2.409843   257    2.431965   258    2.436096  
     259    2.440631   260    2.463072   261    2.478960  
     262    2.488280   263    2.540505   264    2.552226  
     265    2.591358   266    2.596106   267    2.607693  
     268    2.640754   269    2.668501   270    2.711142  
     271    2.719142   272    2.744078   273    2.771513  
     274    2.779468   275    2.786846   276    2.797701  
     277    2.815584   278    2.823912   279    2.845183  
     280    2.864758   281    2.872359   282    2.883545  
     283    2.886010   284    2.892077   285    2.915334  
     286    2.940187   287    2.957491   288    2.990904  
     289    2.999393   290    3.041093   291    3.074116  
     292    3.100702   293    3.123286   294    3.145417  
     295    3.165301   296    3.230454   297    3.250975  
     298    3.258543   299    3.296698   300    3.301170  
     301    3.346291   302    3.382893   303    3.446413  
     304    3.554742   305    3.581319   306    3.600027  
     307    3.674668   308    3.703217   309    3.778731  
     310    3.835110   311    3.932734   312    3.966933  
     313    4.078974   314    4.092166   315    4.102871  
     316    4.490553   317    4.535187   318   13.278724  

  ==> Frozen Core <==


    ------------------
    Range      A     B
    ------------------
    nbf      358   358
    nmo      318   318
    nocc       4    15
    nvir     314   303
    nfocc      1     4
    naocc      3    11
    navir    314   303
    nfvir      0     0
    ------------------

  ==> Unification <==

  ==> dHF <==

    E ABC(HF) =  -7.6211823175516747E+02 [Eh]
    E AC(0)   =  -5.3411568887786086E+02 [Eh]
    E BC(0)   =  -7.2198795680896137E+02 [Eh]
    E A(0)    =  -2.5020648482735680E+01 [Eh]
    E B(0)    =  -2.1266149355537311E+02 [Eh]
    E AC(HF)  =  -5.3411361850194749E+02 [Eh]
    E BC(HF)  =  -7.2197914222654958E+02 [Eh]
    E AB(HF)  =  -2.3764872206014886E+02 [Eh]
    E A(HF)   =  -2.5004548420090728E+01 [Eh]
    E B(HF)   =  -2.1264510973673634E+02 [Eh]
    E C       =  -4.9397359287664972E+02 [Eh]
    E HF      =   1.1821055005043490E-02 [Eh]

  ==> Electrostatics <==

    Elst10,r            =     0.009539680266 [Eh]

  ==> Exchange <==

    Exch10(S^2)         =     0.003570352406 [Eh]
    Exch10              =     0.003576585197 [Eh]

  ==> Induction <==

    Ind20,u (A<-B)      =    -0.001149978328 [Eh]
    Ind20,u (B<-A)      =    -0.000450333140 [Eh]
    Ind20,u             =    -0.001600311468 [Eh]
    Exch-Ind20,u (A<-B) =     0.000465590122 [Eh]
    Exch-Ind20,u (B<-A) =     0.000169897924 [Eh]
    Exch-Ind20,u        =     0.000635488046 [Eh]

  ==> CPHF Iterations <==

    Maxiter     =          50
    Convergence =   1.000E-08

    -----------------------------------------
    Iter   Monomer A    Monomer B    Time [s]
    -----------------------------------------
    1      1.682E-01    2.616E-01           1
    2      3.200E-02    8.347E-02           2
    3      6.467E-03    2.464E-02           2
    4      9.087E-04    9.704E-03           3
    5      1.176E-04    3.512E-03           4
    6      1.718E-05    1.258E-03           5
    7      2.430E-06    4.102E-04           6
    8      3.045E-07    1.464E-04           6
    9      3.759E-08    3.911E-05           7
    10     4.379E-09*   1.411E-05           8
    11     4.379E-09*   4.584E-06           9
    12     4.379E-09*   1.133E-06           9
    13     4.379E-09*   2.426E-07          10
    14     4.379E-09*   5.983E-08          10
    15     4.379E-09*   1.264E-08          11
    16     4.379E-09*   3.549E-09*         11
    -----------------------------------------

    Ind20,r (A<-B)      =    -0.001346410181 [Eh]
    Ind20,r (B<-A)      =    -0.000509546531 [Eh]
    Ind20,r             =    -0.001855956711 [Eh]
    Exch-Ind20,r (A<-B) =     0.000578736861 [Eh]
    Exch-Ind20,r (B<-A) =     0.000216915830 [Eh]
    Exch-Ind20,r        =     0.000795652691 [Eh]

  ==> F-SAPT Localization (IBO) <==

  Local Orbitals for Monomer A:

  ==> IBO Localizer 2 <==

    MinAO Basis = CC-PVTZ-MINAO
    Use Ghosts  =       FALSE
    Use Stars   =       FALSE
    Condition   =   1.000E-07
    Power       =           4
    Convergence =   1.000E-12
    Maxiter     =        1000

    @IBO Iter:                   Metric       Gradient
    @IBO    1:   1.0648558678701994E+00   2.246361E-02
    @IBO    2:   1.0836674320685067E+00   5.025954E-03
    @IBO    3:   1.0836850677159542E+00   3.464453E-06
    @IBO    4:   1.0836850677243193E+00   4.971792E-10
    @IBO    5:   1.0836850677243193E+00   1.623882E-13

    IBO Localizer 2 converged.

  Local Orbitals for Monomer B:

  ==> IBO Localizer 2 <==

    MinAO Basis = CC-PVTZ-MINAO
    Use Ghosts  =       FALSE
    Use Stars   =       FALSE
    Condition   =   1.000E-07
    Power       =           4
    Convergence =   1.000E-12
    Maxiter     =        1000

    @IBO Iter:                   Metric       Gradient
    @IBO    1:   1.4831329997509288E+00   1.689009E+00
    @IBO    2:   1.6779814848098471E+00   9.355079E-01
    @IBO    3:   1.7093253438040434E+00   3.226322E-01
    @IBO    4:   1.7106033532213554E+00   2.617402E-03
    @IBO    5:   1.7106035675358267E+00   1.026460E-04
    @IBO    6:   1.7106035676713929E+00   1.897480E-06
    @IBO    7:   1.7106035676714724E+00   6.894918E-08
    @IBO    8:   1.7106035676714726E+00   2.385684E-09
    @IBO    9:   1.7106035676714726E+00   9.477829E-11
    @IBO   10:   1.7106035676714726E+00   3.965986E-12
    @IBO   11:   1.7106035676714726E+00   1.681328E-13

    IBO Localizer 2 converged.

  ==> F-SAPT Electrostatics <==

  ==> DFERI: Density Fitted 3-Index Tensors <==

    Schwarz cutoff =   0.000E+00
    J cutoff       =   1.000E-12
    Mem (GB)       =         628

   => Auxiliary Basis <=

  Basis Set: (JUN-CC-PVDZ AUX)
    Blend: JUN-CC-PVDZ-JKFIT
    Number of shells: 558
    Number of basis function: 1586
    Number of Cartesian functions: 1806
    Spherical Harmonics?: true
    Max angular momentum: 3

    Elst10,r            =     0.009539690369 [Eh]

  ==> F-SAPT Exchange <==

  ==> DFERI: Density Fitted 3-Index Tensors <==

    Schwarz cutoff =   0.000E+00
    J cutoff       =   1.000E-12
    Mem (GB)       =         628

   => Auxiliary Basis <=

  Basis Set: (JUN-CC-PVDZ AUX)
    Blend: JUN-CC-PVDZ-JKFIT
    Number of shells: 558
    Number of basis function: 1586
    Number of Cartesian functions: 1806
    Spherical Harmonics?: true
    Max angular momentum: 3

    Exch10(S^2)         =     0.003570345402 [Eh]

    Scaling F-SAPT Exch10(S^2) by   1.002E+00 to match Exch10

  ==> F-SAPT Induction <==

  ==> DFERI: Density Fitted 3-Index Tensors <==

    Schwarz cutoff =   0.000E+00
    J cutoff       =   1.000E-12
    Mem (GB)       =         628

   => Auxiliary Basis <=

  Basis Set: (JUN-CC-PVDZ AUX)
    Blend: JUN-CC-PVDZ-JKFIT
    Number of shells: 558
    Number of basis function: 1586
    Number of Cartesian functions: 1806
    Spherical Harmonics?: true
    Max angular momentum: 3

    Ind20,u (A<-B)      =    -0.001149978399 [Eh]
    Ind20,u (B<-A)      =    -0.000450333142 [Eh]
    Ind20,u             =    -0.001600311541 [Eh]
    Exch-Ind20,u (A<-B) =     0.000465590161 [Eh]
    Exch-Ind20,u (B<-A) =     0.000169897724 [Eh]
    Exch-Ind20,u        =     0.000635487884 [Eh]

    Scaling for delta HF        =   1.222E+00
    Scaling for response (A<-B) =   1.122E+00
    Scaling for response (B<-A) =   1.043E+00
    Scaling for total (A<-B)    =   1.370E+00
    Scaling for total (B<-A)    =   1.275E+00

  ==> F-SAPT Dispersion <==

  ==> DFERI: Density Fitted 3-Index Tensors <==

    Schwarz cutoff =   0.000E+00
    J cutoff       =   1.000E-12
    Mem (GB)       =         628

   => Auxiliary Basis <=

  Basis Set: (JUN-CC-PVDZ AUX)
    Blend: JUN-CC-PVDZ-RI
    Number of shells: 420
    Number of basis function: 1236
    Number of Cartesian functions: 1426
    Spherical Harmonics?: true
    Max angular momentum: 3

    Disp20              =    -0.002725380520 [Eh]
    Exch-Disp20         =     0.000266133996 [Eh]

  ==> F-SAPT Output <==

    F-SAPT Data Filepath = fsapt/

  ==> Results <==


    SAPT Results  
  --------------------------------------------------------------------------------------------------------
    Electrostatics                  9.53968027 [mEh]       5.98623999 [kcal/mol]      25.04643054 [kJ/mol]
      Elst10,r                      9.53968027 [mEh]       5.98623999 [kcal/mol]      25.04643054 [kJ/mol]

    Exchange                        3.57658520 [mEh]       2.24434119 [kcal/mol]       9.39032443 [kJ/mol]
      Exch10                        3.57658520 [mEh]       2.24434119 [kcal/mol]       9.39032443 [kJ/mol]
      Exch10(S^2)                   3.57035241 [mEh]       2.24043005 [kcal/mol]       9.37396024 [kJ/mol]

    Induction                      -1.29521046 [mEh]      -0.81275687 [kcal/mol]      -3.40057506 [kJ/mol]
      Ind20,r                      -1.85595671 [mEh]      -1.16463047 [kcal/mol]      -4.87281435 [kJ/mol]
      Exch-Ind20,r                  0.79565269 [mEh]       0.49927962 [kcal/mol]       2.08898614 [kJ/mol]
      delta HF,r (2)               -0.23490644 [mEh]      -0.14740602 [kcal/mol]      -0.61674685 [kJ/mol]
      Induction (A<-B)             -0.93774851 [mEh]      -0.58844610 [kcal/mol]      -2.46205870 [kJ/mol]
      Induction (B<-A)             -0.35746195 [mEh]      -0.22431077 [kcal/mol]      -0.93851635 [kJ/mol]

    Dispersion                     -2.45924652 [mEh]      -1.54320056 [kcal/mol]      -6.45675175 [kJ/mol]
      Disp20                       -2.72538052 [mEh]      -1.71020217 [kcal/mol]      -7.15548656 [kJ/mol]
      Exch-Disp20                   0.26613400 [mEh]       0.16700161 [kcal/mol]       0.69873481 [kJ/mol]

  Total HF                         11.82105501 [mEh]       7.41782432 [kcal/mol]      31.03617992 [kJ/mol]
  Total SAPT0                       9.36180848 [mEh]       5.87462376 [kcal/mol]      24.57942817 [kJ/mol]

  --------------------------------------------------------------------------------------------------------
    Han Solo: This is *not* gonna work.
    Luke Skywalker: Why didn't you say so before?
    Han Solo: I *did* say so before.

*** tstop() called on vega02.cac.cornell.edu at Thu Oct 19 09:24:23 2017
Module time:
	user time   =    1737.50 seconds =      28.96 minutes
	system time =      11.67 seconds =       0.19 minutes
	total time  =         67 seconds =       1.12 minutes
Total time:
	user time   =    2429.40 seconds =      40.49 minutes
	system time =      17.49 seconds =       0.29 minutes
	total time  =         99 seconds =       1.65 minutes

*** Psi4 exiting successfully. Buy a developer a beer!
