
    -----------------------------------------------------------------------
          Psi4: An Open-Source Ab Initio Electronic Structure Package
                               Psi4 1.1 release

                         Git: Rev {HEAD} add49b9 


    R. M. Parrish, L. A. Burns, D. G. A. Smith, A. C. Simmonett,
    A. E. DePrince III, E. G. Hohenstein, U. Bozkaya, A. Yu. Sokolov,
    R. Di Remigio, R. M. Richard, J. F. Gonthier, A. M. James,
    H. R. McAlexander, A. Kumar, M. Saitow, X. Wang, B. P. Pritchard,
    P. Verma, H. F. Schaefer III, K. Patkowski, R. A. King, E. F. Valeev,
    F. A. Evangelista, J. M. Turney, T. D. Crawford, and C. D. Sherrill,
    J. Chem. Theory Comput. in press (2017).
    (doi: 10.1021/acs.jctc.7b00174)

    -----------------------------------------------------------------------


    Psi4 started on: Tuesday, 12 December 2017 11:48AM

    Process ID:  16128
    PSIDATADIR: /home/junteng/Softwares/psi4conda/share/psi4
    Memory:     500.0 MiB
    Threads:    1
    
  ==> Input File <==

--------------------------------------------------------------------------
memory 750000 mb

molecule mol {
0 1
C          0.72843        1.48436        0.06598
O          1.01035        2.37097        0.83478
O          1.53784        1.08301       -0.93877
C          2.83449        1.70121       -0.99358
H          2.73835        2.77989       -1.12464
H          3.38998        1.50093       -0.07544
H          3.33184        1.25269       -1.85067
--
0 1
C          0.74969       -1.43776       -0.09374
O          1.04702       -2.28405       -0.90088
O          1.53645       -1.09176        0.94813
C          2.82316       -1.73208        1.00475
H          3.39889       -1.50934        0.10459
H          3.31095       -1.32281        1.88650
H          2.70778       -2.81319        1.09555
--
0 1
C         -1.83960        2.92746        0.24839
H         -1.45503        3.26427        1.21284
H         -1.24214        3.42352       -0.52065
H         -2.87211        3.26623        0.14638
C         -1.78103       -2.92226       -0.24590
H         -2.80572       -3.28175       -0.13627
H         -1.39752       -3.25223       -1.21323
H         -1.16958       -3.40777        0.51926
C         -0.54444       -0.68370       -0.06689
C         -0.55709        0.71878        0.05493
C         -1.74320       -1.41616       -0.12552
C         -2.93952       -0.70056       -0.05285
C         -2.95313        0.68255        0.06934
C         -1.77161        1.42404        0.12810
H         -3.90354        1.20325        0.11710
H         -3.87892       -1.24211       -0.08988

symmetry c1
no_reorient
no_com
}

set {
basis jun-cc-pvdz
scf_type df
guess sad
freeze_core true
}

energy('fisapt0')
--------------------------------------------------------------------------

  Memory set to 698.492 GiB by Python driver.

*** tstart() called on ThinkPad-P50
*** at Tue Dec 12 11:48:01 2017

   => Loading Basis Set <=

    Name: JUN-CC-PVDZ
    Role: ORBITAL
    Keyword: BASIS
    atoms 1, 4, 8, 11, 15, 19, 23-28      entry C          line   157 file /home/junteng/Softwares/psi4conda/share/psi4/basis/jun-cc-pvdz.gbs 
    atoms 2-3, 9-10                       entry O          line   225 file /home/junteng/Softwares/psi4conda/share/psi4/basis/jun-cc-pvdz.gbs 
    atoms 5-7, 12-14, 16-18, 20-22, 29-30 entry H          line    35 file /home/junteng/Softwares/psi4conda/share/psi4/basis/jun-cc-pvdz.gbs 


         ---------------------------------------------------------
                                   SCF
            by Justin Turney, Rob Parrish, and Andy Simmonett
                              RHF Reference
                        1 Threads, 715255 MiB Core
         ---------------------------------------------------------

  ==> Geometry <==

    Molecular point group: c1
    Full point group: C1

    Geometry (in Angstrom), charge = 0, multiplicity = 1:

       Center              X                  Y                   Z               Mass       
    ------------   -----------------  -----------------  -----------------  -----------------
           C          0.728430000000     1.484360000000     0.065980000000    12.000000000000
           O          1.010350000000     2.370970000000     0.834780000000    15.994914619560
           O          1.537840000000     1.083010000000    -0.938770000000    15.994914619560
           C          2.834490000000     1.701210000000    -0.993580000000    12.000000000000
           H          2.738350000000     2.779890000000    -1.124640000000     1.007825032070
           H          3.389980000000     1.500930000000    -0.075440000000     1.007825032070
           H          3.331840000000     1.252690000000    -1.850670000000     1.007825032070
           C          0.749690000000    -1.437760000000    -0.093740000000    12.000000000000
           O          1.047020000000    -2.284050000000    -0.900880000000    15.994914619560
           O          1.536450000000    -1.091760000000     0.948130000000    15.994914619560
           C          2.823160000000    -1.732080000000     1.004750000000    12.000000000000
           H          3.398890000000    -1.509340000000     0.104590000000     1.007825032070
           H          3.310950000000    -1.322810000000     1.886500000000     1.007825032070
           H          2.707780000000    -2.813190000000     1.095550000000     1.007825032070
           C         -1.839600000000     2.927460000000     0.248390000000    12.000000000000
           H         -1.455030000000     3.264270000000     1.212840000000     1.007825032070
           H         -1.242140000000     3.423520000000    -0.520650000000     1.007825032070
           H         -2.872110000000     3.266230000000     0.146380000000     1.007825032070
           C         -1.781030000000    -2.922260000000    -0.245900000000    12.000000000000
           H         -2.805720000000    -3.281750000000    -0.136270000000     1.007825032070
           H         -1.397520000000    -3.252230000000    -1.213230000000     1.007825032070
           H         -1.169580000000    -3.407770000000     0.519260000000     1.007825032070
           C         -0.544440000000    -0.683700000000    -0.066890000000    12.000000000000
           C         -0.557090000000     0.718780000000     0.054930000000    12.000000000000
           C         -1.743200000000    -1.416160000000    -0.125520000000    12.000000000000
           C         -2.939520000000    -0.700560000000    -0.052850000000    12.000000000000
           C         -2.953130000000     0.682550000000     0.069340000000    12.000000000000
           C         -1.771610000000     1.424040000000     0.128100000000    12.000000000000
           H         -3.903540000000     1.203250000000     0.117100000000     1.007825032070
           H         -3.878920000000    -1.242110000000    -0.089880000000     1.007825032070

  Running in c1 symmetry.

  Rotational constants: A =      0.02120  B =      0.01896  C =      0.01123 [cm^-1]
  Rotational constants: A =    635.67058  B =    568.40897  C =    336.73028 [MHz]
  Nuclear repulsion = 1146.506011940810140

  Charge       = 0
  Multiplicity = 1
  Electrons    = 118
  Nalpha       = 59
  Nbeta        = 59

  ==> Algorithm <==

  SCF Algorithm Type is DF.
  DIIS enabled.
  MOM disabled.
  Fractional occupation disabled.
  Guess Type is SAD.
  Energy threshold   = 1.00e-08
  Density threshold  = 1.00e-08
  Integral threshold = 0.00e+00

  ==> Primary Basis <==

  Basis Set: JUN-CC-PVDZ
    Blend: JUN-CC-PVDZ
    Number of shells: 170
    Number of basis function: 358
    Number of Cartesian functions: 374
    Spherical Harmonics?: true
    Max angular momentum: 2

   => Loading Basis Set <=

    Name: (JUN-CC-PVDZ AUX)
    Role: JKFIT
    Keyword: DF_BASIS_SCF
    atoms 1, 4, 8, 11, 15, 19, 23-28      entry C          line   145 file /home/junteng/Softwares/psi4conda/share/psi4/basis/jun-cc-pvdz-jkfit.gbs 
    atoms 2-3, 9-10                       entry O          line   257 file /home/junteng/Softwares/psi4conda/share/psi4/basis/jun-cc-pvdz-jkfit.gbs 
    atoms 5-7, 12-14, 16-18, 20-22, 29-30 entry H          line    69 file /home/junteng/Softwares/psi4conda/share/psi4/basis/jun-cc-pvdz-jkfit.gbs 

  ==> Pre-Iterations <==

   -------------------------------------------------------
    Irrep   Nso     Nmo     Nalpha   Nbeta   Ndocc  Nsocc
   -------------------------------------------------------
     A        358     358       0       0       0       0
   -------------------------------------------------------
    Total     358     358      59      59      59       0
   -------------------------------------------------------

  ==> Integral Setup <==

  ==> DFJK: Density-Fitted J/K Matrices <==

    J tasked:                  Yes
    K tasked:                  Yes
    wK tasked:                  No
    OpenMP threads:              1
    Integrals threads:           1
    Memory (MB):            536441
    Algorithm:                Core
    Integral Cache:           NONE
    Schwarz Cutoff:          1E-12
    Fitting Condition:       1E-12

   => Auxiliary Basis Set <=

  Basis Set: (JUN-CC-PVDZ AUX)
    Blend: JUN-CC-PVDZ-JKFIT
    Number of shells: 558
    Number of basis function: 1586
    Number of Cartesian functions: 1806
    Spherical Harmonics?: true
    Max angular momentum: 3

  Minimum eigenvalue in the overlap matrix is 3.3134102020E-06.
  Using Symmetric Orthogonalization.

  SCF Guess: Superposition of Atomic Densities via on-the-fly atomic UHF.

  ==> Iterations <==

                           Total Energy        Delta E     RMS |[F,P]|

   @DF-RHF iter   0:  -768.44001691082804   -7.68440e+02   2.06470e-02 
   @DF-RHF iter   1:  -761.66899231173500    6.77102e+00   2.16394e-03 
   @DF-RHF iter   2:  -762.03813167520070   -3.69139e-01   1.05286e-03 DIIS
   @DF-RHF iter   3:  -762.10386298203991   -6.57313e-02   4.15422e-04 DIIS
   @DF-RHF iter   4:  -762.11962008708394   -1.57571e-02   1.12885e-04 DIIS
   @DF-RHF iter   5:  -762.12090279235770   -1.28271e-03   5.10370e-05 DIIS
   @DF-RHF iter   6:  -762.12125179735619   -3.49005e-04   1.79591e-05 DIIS
   @DF-RHF iter   7:  -762.12130987539194   -5.80780e-05   6.71738e-06 DIIS
   @DF-RHF iter   8:  -762.12131894110462   -9.06571e-06   3.15015e-06 DIIS
   @DF-RHF iter   9:  -762.12132083797962   -1.89688e-06   1.37394e-06 DIIS
   @DF-RHF iter  10:  -762.12132134069611   -5.02716e-07   5.29179e-07 DIIS
   @DF-RHF iter  11:  -762.12132141649136   -7.57952e-08   1.98752e-07 DIIS
   @DF-RHF iter  12:  -762.12132142397559   -7.48423e-09   7.11596e-08 DIIS
   @DF-RHF iter  13:  -762.12132142486882   -8.93237e-10   3.01451e-08 DIIS
   @DF-RHF iter  14:  -762.12132142503617   -1.67347e-10   1.17931e-08 DIIS
   @DF-RHF iter  15:  -762.12132142506118   -2.50111e-11   4.60218e-09 DIIS

  ==> Post-Iterations <==

    Orbital Energies (a.u.)
    -----------------------

    Doubly Occupied:                                                      

       1A    -20.614471     2A    -20.614377     3A    -20.559695  
       4A    -20.559114     5A    -11.397640     6A    -11.397494  
       7A    -11.298742     8A    -11.298634     9A    -11.271319  
      10A    -11.270091    11A    -11.265508    12A    -11.264958  
      13A    -11.253141    14A    -11.251770    15A    -11.234132  
      16A    -11.233540    17A     -1.474234    18A     -1.466453  
      19A     -1.370012    20A     -1.369377    21A     -1.183859  
      22A     -1.084796    23A     -1.066607    24A     -0.992957  
      25A     -0.987395    26A     -0.970260    27A     -0.915235  
      28A     -0.879412    29A     -0.836815    30A     -0.782848  
      31A     -0.769995    32A     -0.728158    33A     -0.709431  
      34A     -0.700248    35A     -0.683124    36A     -0.678468  
      37A     -0.658603    38A     -0.657291    39A     -0.643517  
      40A     -0.609517    41A     -0.588781    42A     -0.587668  
      43A     -0.571699    44A     -0.569558    45A     -0.562890  
      46A     -0.554242    47A     -0.545154    48A     -0.537876  
      49A     -0.537425    50A     -0.532202    51A     -0.518071  
      52A     -0.507250    53A     -0.488238    54A     -0.469048  
      55A     -0.463676    56A     -0.455476    57A     -0.448562  
      58A     -0.353312    59A     -0.330977  

    Virtual:                                                              

      60A      0.053801    61A      0.056781    62A      0.059140  
      63A      0.068368    64A      0.075516    65A      0.076742  
      66A      0.086442    67A      0.092134    68A      0.093154  
      69A      0.099395    70A      0.106274    71A      0.112071  
      72A      0.114747    73A      0.117697    74A      0.121040  
      75A      0.121368    76A      0.136099    77A      0.138684  
      78A      0.144841    79A      0.149378    80A      0.151504  
      81A      0.158879    82A      0.164159    83A      0.174836  
      84A      0.176916    85A      0.179127    86A      0.187251  
      87A      0.188286    88A      0.204209    89A      0.206101  
      90A      0.209073    91A      0.212591    92A      0.218515  
      93A      0.228326    94A      0.229833    95A      0.234743  
      96A      0.235723    97A      0.247787    98A      0.248417  
      99A      0.256815   100A      0.260744   101A      0.263949  
     102A      0.272344   103A      0.272706   104A      0.281290  
     105A      0.288507   106A      0.293341   107A      0.300198  
     108A      0.301962   109A      0.320583   110A      0.321926  
     111A      0.324176   112A      0.325507   113A      0.329917  
     114A      0.337031   115A      0.339704   116A      0.350187  
     117A      0.351543   118A      0.354142   119A      0.356718  
     120A      0.363140   121A      0.365632   122A      0.378529  
     123A      0.385174   124A      0.393048   125A      0.396720  
     126A      0.398941   127A      0.399184   128A      0.404128  
     129A      0.418848   130A      0.427699   131A      0.430041  
     132A      0.438619   133A      0.440270   134A      0.445759  
     135A      0.446674   136A      0.454692   137A      0.457665  
     138A      0.469946   139A      0.475492   140A      0.481054  
     141A      0.488864   142A      0.507677   143A      0.509056  
     144A      0.514739   145A      0.519715   146A      0.532514  
     147A      0.547563   148A      0.566696   149A      0.573498  
     150A      0.599191   151A      0.602020   152A      0.615404  
     153A      0.627483   154A      0.659482   155A      0.702462  
     156A      0.715837   157A      0.753692   158A      0.756821  
     159A      0.766847   160A      0.770903   161A      0.788036  
     162A      0.815431   163A      0.825396   164A      0.826962  
     165A      0.834051   166A      0.844940   167A      0.870678  
     168A      0.872430   169A      0.872942   170A      0.892228  
     171A      0.894556   172A      0.901300   173A      0.904974  
     174A      0.911626   175A      0.917098   176A      0.919386  
     177A      0.920689   178A      0.924499   179A      0.930936  
     180A      0.944577   181A      0.948925   182A      0.951089  
     183A      0.955585   184A      0.965852   185A      0.966396  
     186A      0.972065   187A      0.973597   188A      0.990312  
     189A      0.995860   190A      1.006538   191A      1.011022  
     192A      1.019000   193A      1.026018   194A      1.038038  
     195A      1.040619   196A      1.071126   197A      1.074274  
     198A      1.084275   199A      1.111007   200A      1.112642  
     201A      1.134342   202A      1.144647   203A      1.147912  
     204A      1.165908   205A      1.183249   206A      1.204425  
     207A      1.206675   208A      1.228557   209A      1.230621  
     210A      1.261138   211A      1.276344   212A      1.277957  
     213A      1.287471   214A      1.303976   215A      1.322150  
     216A      1.322714   217A      1.341224   218A      1.357027  
     219A      1.368160   220A      1.369010   221A      1.382898  
     222A      1.438466   223A      1.448232   224A      1.452695  
     225A      1.493967   226A      1.505419   227A      1.509003  
     228A      1.544141   229A      1.546659   230A      1.553468  
     231A      1.557198   232A      1.571147   233A      1.599876  
     234A      1.605427   235A      1.607323   236A      1.613228  
     237A      1.621191   238A      1.624480   239A      1.639841  
     240A      1.656665   241A      1.671595   242A      1.695125  
     243A      1.702692   244A      1.708313   245A      1.711815  
     246A      1.724073   247A      1.734623   248A      1.757589  
     249A      1.761292   250A      1.786229   251A      1.804323  
     252A      1.815433   253A      1.816699   254A      1.832696  
     255A      1.873678   256A      1.881764   257A      1.891375  
     258A      1.898532   259A      1.906587   260A      1.917988  
     261A      1.925231   262A      1.937074   263A      1.940617  
     264A      1.947375   265A      1.953301   266A      1.975172  
     267A      1.978016   268A      1.983408   269A      1.985105  
     270A      1.999138   271A      2.002436   272A      2.014112  
     273A      2.016473   274A      2.025233   275A      2.029900  
     276A      2.034707   277A      2.041157   278A      2.052574  
     279A      2.059001   280A      2.092681   281A      2.105389  
     282A      2.117061   283A      2.119564   284A      2.129705  
     285A      2.145112   286A      2.170279   287A      2.176081  
     288A      2.186260   289A      2.216851   290A      2.217305  
     291A      2.237547   292A      2.250492   293A      2.288865  
     294A      2.303951   295A      2.315648   296A      2.343815  
     297A      2.362076   298A      2.366187   299A      2.382499  
     300A      2.386264   301A      2.400192   302A      2.421954  
     303A      2.427180   304A      2.431930   305A      2.437027  
     306A      2.451755   307A      2.507977   308A      2.521903  
     309A      2.540320   310A      2.547259   311A      2.569323  
     312A      2.580840   313A      2.588021   314A      2.639824  
     315A      2.661225   316A      2.664078   317A      2.730445  
     318A      2.747769   319A      2.766310   320A      2.794931  
     321A      2.808265   322A      2.820733   323A      2.849987  
     324A      2.855473   325A      2.869159   326A      2.869284  
     327A      2.879303   328A      2.882330   329A      2.906598  
     330A      2.911621   331A      2.921097   332A      2.937076  
     333A      2.972281   334A      2.986828   335A      3.036238  
     336A      3.057162   337A      3.080146   338A      3.098366  
     339A      3.119658   340A      3.144191   341A      3.195529  
     342A      3.268335   343A      3.269003   344A      3.285370  
     345A      3.317720   346A      3.383039   347A      3.427442  
     348A      3.562501   349A      3.584255   350A      3.654108  
     351A      3.681059   352A      3.746674   353A      3.761375  
     354A      3.811539   355A      3.942779   356A      3.951648  
     357A      4.067290   358A      4.074360  

    Final Occupation by Irrep:
              A 
    DOCC [    59 ]

  Energy converged.

  @DF-RHF Final Energy:  -762.12132142506118

   => Energetics <=

    Nuclear Repulsion Energy =           1146.5060119408101400
    One-Electron Energy =               -3318.0039876830041976
    Two-Electron Energy =                1409.3766543171332160
    DFT Exchange-Correlation Energy =       0.0000000000000000
    Empirical Dispersion Energy =           0.0000000000000000
    PCM Polarization Energy =               0.0000000000000000
    EFP Energy =                            0.0000000000000000
    Total Energy =                       -762.1213214250610690



Properties will be evaluated at   0.000000,   0.000000,   0.000000 Bohr

Properties computed using the SCF density matrix

  Nuclear Dipole Moment: (a.u.)
     X:    -1.4297      Y:     1.4404      Z:    -0.8020

  Electronic Dipole Moment: (a.u.)
     X:     1.3739      Y:    -1.4846      Z:     0.8305

  Dipole Moment: (a.u.)
     X:    -0.0558      Y:    -0.0442      Z:     0.0285     Total:     0.0767

  Dipole Moment: (Debye)
     X:    -0.1419      Y:    -0.1123      Z:     0.0724     Total:     0.1949


*** tstop() called on ThinkPad-P50 at Tue Dec 12 11:50:55 2017
Module time:
	user time   =     171.94 seconds =       2.87 minutes
	system time =       1.63 seconds =       0.03 minutes
	total time  =        174 seconds =       2.90 minutes
Total time:
	user time   =     171.94 seconds =       2.87 minutes
	system time =       1.63 seconds =       0.03 minutes
	total time  =        174 seconds =       2.90 minutes
   => Loading Basis Set <=

    Name: (JUN-CC-PVDZ AUX)
    Role: JKFIT
    Keyword: DF_BASIS_SCF
    atoms 1, 4, 8, 11, 15, 19, 23-28      entry C          line   145 file /home/junteng/Softwares/psi4conda/share/psi4/basis/jun-cc-pvdz-jkfit.gbs 
    atoms 2-3, 9-10                       entry O          line   257 file /home/junteng/Softwares/psi4conda/share/psi4/basis/jun-cc-pvdz-jkfit.gbs 
    atoms 5-7, 12-14, 16-18, 20-22, 29-30 entry H          line    69 file /home/junteng/Softwares/psi4conda/share/psi4/basis/jun-cc-pvdz-jkfit.gbs 

   => Loading Basis Set <=

    Name: (JUN-CC-PVDZ AUX)
    Role: RIFIT
    Keyword: DF_BASIS_SAPT
    atoms 1, 4, 8, 11, 15, 19, 23-28      entry C          line    99 file /home/junteng/Softwares/psi4conda/share/psi4/basis/jun-cc-pvdz-ri.gbs 
    atoms 2-3, 9-10                       entry O          line   187 file /home/junteng/Softwares/psi4conda/share/psi4/basis/jun-cc-pvdz-ri.gbs 
    atoms 5-7, 12-14, 16-18, 20-22, 29-30 entry H          line    29 file /home/junteng/Softwares/psi4conda/share/psi4/basis/jun-cc-pvdz-ri.gbs 

   => Loading Basis Set <=

    Name: CC-PVTZ-MINAO
    Role: ORBITAL
    Keyword: BASIS
    atoms 1, 4, 8, 11, 15, 19, 23-28      entry C          line   130 file /home/junteng/Softwares/psi4conda/share/psi4/basis/cc-pvtz-minao.gbs 
    atoms 2-3, 9-10                       entry O          line   190 file /home/junteng/Softwares/psi4conda/share/psi4/basis/cc-pvtz-minao.gbs 
    atoms 5-7, 12-14, 16-18, 20-22, 29-30 entry H          line    19 file /home/junteng/Softwares/psi4conda/share/psi4/basis/cc-pvtz-minao.gbs 


*** tstart() called on ThinkPad-P50
*** at Tue Dec 12 11:50:56 2017

	 --------------------------------------------
	                    FISAPT0                  
	                  Rob Parrish                
	 --------------------------------------------

    Do F-SAPT =         Yes
    Do Plot   =          No
    Memory    =      78.580 [GD]

  ==> Localization (IBO) <==

  ==> IBO Localizer 2 <==

    MinAO Basis = CC-PVTZ-MINAO
    Use Ghosts  =       FALSE
    Use Stars   =       FALSE
    Condition   =   1.000E-07
    Power       =           4
    Convergence =   1.000E-12
    Maxiter     =        1000

    @IBO Iter:                   Metric       Gradient
    @IBO    1:   1.8955376529465553E+00   2.746460E+00
    @IBO    2:   2.2089765758265338E+00   1.987146E+00
    @IBO    3:   2.2803819979194846E+00   8.953688E-01
    @IBO    4:   2.2877992680482344E+00   1.708020E-01
    @IBO    5:   2.2879571218471928E+00   4.999315E-03
    @IBO    6:   2.2879581331384715E+00   1.033368E-03
    @IBO    7:   2.2879581898468957E+00   2.576278E-04
    @IBO    8:   2.2879581934322744E+00   6.588700E-05
    @IBO    9:   2.2879581936666580E+00   1.719170E-05
    @IBO   10:   2.2879581936826003E+00   4.557326E-06
    @IBO   11:   2.2879581936837199E+00   1.223170E-06
    @IBO   12:   2.2879581936838012E+00   3.318825E-07
    @IBO   13:   2.2879581936838074E+00   9.093639E-08
    @IBO   14:   2.2879581936838078E+00   2.513804E-08
    @IBO   15:   2.2879581936838078E+00   7.003502E-09
    @IBO   16:   2.2879581936838083E+00   1.964284E-09
    @IBO   17:   2.2879581936838078E+00   5.540013E-10
    @IBO   18:   2.2879581936838078E+00   1.569557E-10
    @IBO   19:   2.2879581936838074E+00   4.462716E-11
    @IBO   20:   2.2879581936838074E+00   1.272442E-11
    @IBO   21:   2.2879581936838069E+00   3.635956E-12
    @IBO   22:   2.2879581936838069E+00   1.040694E-12
    @IBO   23:   2.2879581936838074E+00   2.982211E-13

    IBO Localizer 2 converged.

  ==> Partitioning <==

   => Atomic Partitioning <= 

    Monomer A:   7 atoms
    Monomer B:   7 atoms
    Monomer C:  16 atoms

   => Link Bond Identification <=

    Link Bond Selection = AUTOMATIC

    Charge Completeness = 0.800

    Total Link Bonds = 2

    --------------------------
    N     Orb Type Aind1 Aind2
    --------------------------
    1      19   AC     1    24
    2      27   BC     8    23
    --------------------------

   => Link Bond Assignment <=

    Link Bond Assignment      = C

   => Partition Summary <=

    Monomer A:  0 charge,  30 protons,  30 electrons,  15 docc
    Monomer B:  0 charge,  30 protons,  30 electrons,  15 docc
    Monomer C:  0 charge,  58 protons,  58 electrons,  29 docc

  ==> Overlap Integrals <==

  ==> Kinetic Integrals <==

  ==> Nuclear Integrals <==

    Nuclear Repulsion Tot:   1.1465060119408090E+03 [Eh]

  ==> Coulomb Integrals <==

  ==> DFJK: Density-Fitted J/K Matrices <==

    J tasked:                  Yes
    K tasked:                  Yes
    wK tasked:                  No
    OpenMP threads:              1
    Integrals threads:           1
    Memory (MB):            643730
    Algorithm:                Core
    Integral Cache:           NONE
    Schwarz Cutoff:          1E-12
    Fitting Condition:       1E-12

   => Auxiliary Basis Set <=

  Basis Set: (JUN-CC-PVDZ AUX)
    Blend: JUN-CC-PVDZ-JKFIT
    Number of shells: 558
    Number of basis function: 1586
    Number of Cartesian functions: 1806
    Spherical Harmonics?: true
    Max angular momentum: 3

  ==> Relaxed SCF Equations <==

  ==> SCF A: <==

    Maxiter =          50
    E Tol   =   1.000E-06
    D Tol   =   1.000E-08

    Max DIIS Vectors = 5

    Iter   N:                        E          dE         |D|
    Iter   1:  -2.2406022127839535E+02  -2.241E+02   8.057E-04 
    Iter   2:  -2.2407243478667746E+02  -1.221E-02   5.113E-05 DIIS
    Iter   3:  -2.2407261202047150E+02  -1.772E-04   2.285E-05 DIIS
    Iter   4:  -2.2407263637119235E+02  -2.435E-05   8.010E-06 DIIS
    Iter   5:  -2.2407264031460232E+02  -3.943E-06   1.380E-06 DIIS
    Iter   6:  -2.2407264052975978E+02  -2.152E-07   5.916E-07 DIIS
    Iter   7:  -2.2407264056847040E+02  -3.871E-08   2.005E-07 DIIS
    Iter   8:  -2.2407264057331429E+02  -4.844E-09   9.396E-08 DIIS
    Iter   9:  -2.2407264057431809E+02  -1.004E-09   3.514E-08 DIIS
    Iter  10:  -2.2407264057450931E+02  -1.912E-10   1.615E-08 DIIS
    Iter  11:  -2.2407264057453574E+02  -2.643E-11   7.149E-09 DIIS

    FISAPTSCF Converged.

    Final SCF Energy:  -2.2407264057453574E+02 [Eh]

   => Occupied Orbital Energies <=

       1  -20.602764     2  -20.548312     3  -11.386385  
       4  -11.291303     5   -1.433927     6   -1.355340  
       7   -0.958261     8   -0.762878     9   -0.667888  
      10   -0.659039    11   -0.617863    12   -0.539898  
      13   -0.532884    14   -0.472084    15   -0.457119  

   => Virtual Orbital Energies <=

      16    0.032393    17    0.052240    18    0.061043  
      19    0.065513    20    0.070379    21    0.078760  
      22    0.086169    23    0.092080    24    0.098753  
      25    0.099396    26    0.105184    27    0.107958  
      28    0.115880    29    0.116983    30    0.119661  
      31    0.130134    32    0.135444    33    0.137438  
      34    0.141651    35    0.150394    36    0.152469  
      37    0.157237    38    0.164027    39    0.166659  
      40    0.170844    41    0.176014    42    0.180200  
      43    0.192276    44    0.200547    45    0.201317  
      46    0.204299    47    0.211868    48    0.221322  
      49    0.224547    50    0.230663    51    0.234676  
      52    0.240089    53    0.244662    54    0.252152  
      55    0.255846    56    0.259544    57    0.263066  
      58    0.270020    59    0.272860    60    0.283920  
      61    0.289055    62    0.294342    63    0.298406  
      64    0.302325    65    0.306751    66    0.316145  
      67    0.318549    68    0.326561    69    0.329032  
      70    0.332252    71    0.336376    72    0.343189  
      73    0.345186    74    0.350148    75    0.358753  
      76    0.363382    77    0.370504    78    0.372051  
      79    0.385697    80    0.389833    81    0.394844  
      82    0.399857    83    0.407909    84    0.411556  
      85    0.422805    86    0.427152    87    0.435899  
      88    0.437610    89    0.446839    90    0.452893  
      91    0.457051    92    0.468877    93    0.479673  
      94    0.484382    95    0.489437    96    0.491403  
      97    0.510795    98    0.515838    99    0.520226  
     100    0.540954   101    0.547801   102    0.550877  
     103    0.570581   104    0.575571   105    0.588193  
     106    0.603355   107    0.623805   108    0.626565  
     109    0.640422   110    0.658083   111    0.663945  
     112    0.690286   113    0.698333   114    0.745363  
     115    0.769345   116    0.774187   117    0.781173  
     118    0.787602   119    0.817438   120    0.822055  
     121    0.835593   122    0.844385   123    0.853034  
     124    0.868520   125    0.881202   126    0.893467  
     127    0.897758   128    0.908723   129    0.922687  
     130    0.928250   131    0.929250   132    0.936319  
     133    0.941178   134    0.944538   135    0.951691  
     136    0.959007   137    0.961620   138    0.964736  
     139    0.969562   140    0.980355   141    0.984738  
     142    0.991508   143    1.005991   144    1.009222  
     145    1.024601   146    1.033333   147    1.037888  
     148    1.053369   149    1.068896   150    1.078153  
     151    1.095911   152    1.109779   153    1.117126  
     154    1.121195   155    1.130831   156    1.152630  
     157    1.153554   158    1.172912   159    1.186066  
     160    1.202852   161    1.219597   162    1.222529  
     163    1.230207   164    1.243514   165    1.268846  
     166    1.274243   167    1.295654   168    1.303840  
     169    1.309761   170    1.329982   171    1.348741  
     172    1.352660   173    1.383706   174    1.392702  
     175    1.407561   176    1.445322   177    1.465784  
     178    1.508555   179    1.527020   180    1.540165  
     181    1.546216   182    1.570327   183    1.582634  
     184    1.587229   185    1.594811   186    1.598961  
     187    1.624793   188    1.626168   189    1.642666  
     190    1.664174   191    1.667791   192    1.684087  
     193    1.688616   194    1.708761   195    1.723559  
     196    1.729168   197    1.740141   198    1.754875  
     199    1.786705   200    1.799671   201    1.808423  
     202    1.823138   203    1.835631   204    1.840700  
     205    1.845615   206    1.862080   207    1.890973  
     208    1.898684   209    1.905053   210    1.925221  
     211    1.933702   212    1.940609   213    1.955130  
     214    1.972130   215    1.973595   216    1.987105  
     217    1.994937   218    2.002844   219    2.012992  
     220    2.014928   221    2.020111   222    2.035334  
     223    2.039983   224    2.051091   225    2.060517  
     226    2.072064   227    2.093764   228    2.100067  
     229    2.118719   230    2.121929   231    2.131228  
     232    2.136445   233    2.145229   234    2.157197  
     235    2.175713   236    2.179610   237    2.190266  
     238    2.220275   239    2.224779   240    2.251991  
     241    2.278526   242    2.287836   243    2.310918  
     244    2.314361   245    2.321193   246    2.332751  
     247    2.340997   248    2.369267   249    2.381658  
     250    2.397994   251    2.400165   252    2.405618  
     253    2.420621   254    2.434820   255    2.450658  
     256    2.467663   257    2.498576   258    2.519661  
     259    2.525399   260    2.561763   261    2.574727  
     262    2.583360   263    2.608376   264    2.635422  
     265    2.643902   266    2.660496   267    2.677624  
     268    2.703357   269    2.725917   270    2.735927  
     271    2.767170   272    2.786986   273    2.801573  
     274    2.840418   275    2.845461   276    2.854898  
     277    2.862156   278    2.873305   279    2.877460  
     280    2.882210   281    2.886592   282    2.900394  
     283    2.905376   284    2.923891   285    2.946656  
     286    2.962750   287    2.983041   288    3.050671  
     289    3.057249   290    3.082090   291    3.119239  
     292    3.127220   293    3.185359   294    3.227988  
     295    3.287557   296    3.313809   297    3.408960  
     298    3.449841   299    3.584627   300    3.615439  
     301    3.689155   302    3.748348   303    3.789965  
     304    3.873448   305    3.946297   306    3.967165  
     307    4.080942   308    4.141674   309    4.200424  
     310    4.441133   311    4.512321   312    4.552305  
     313    4.759188   314    4.933773   315    5.039760  
     316    5.067751   317    5.187994   318    5.319035  
     319    5.513995   320    5.644541   321    5.737276  
     322    5.853599   323    6.105598   324    6.327000  
     325    6.696941   326   13.371785   327   18.424410  
     328   33.418939   329   33.473976  

  ==> SCF B: <==

    Maxiter =          50
    E Tol   =   1.000E-06
    D Tol   =   1.000E-08

    Max DIIS Vectors = 5

    Iter   N:                        E          dE         |D|
    Iter   1:  -2.2407092884496356E+02  -2.241E+02   7.753E-04 
    Iter   2:  -2.2408231438922121E+02  -1.139E-02   4.898E-05 DIIS
    Iter   3:  -2.2408248302138009E+02  -1.686E-04   2.171E-05 DIIS
    Iter   4:  -2.2408250506572580E+02  -2.204E-05   7.757E-06 DIIS
    Iter   5:  -2.2408250878909294E+02  -3.723E-06   1.306E-06 DIIS
    Iter   6:  -2.2408250898352003E+02  -1.944E-07   5.659E-07 DIIS
    Iter   7:  -2.2408250901845722E+02  -3.494E-08   1.866E-07 DIIS
    Iter   8:  -2.2408250902289612E+02  -4.439E-09   8.810E-08 DIIS
    Iter   9:  -2.2408250902378848E+02  -8.924E-10   3.354E-08 DIIS
    Iter  10:  -2.2408250902397361E+02  -1.851E-10   1.552E-08 DIIS
    Iter  11:  -2.2408250902400047E+02  -2.686E-11   7.399E-09 DIIS

    FISAPTSCF Converged.

    Final SCF Energy:  -2.2408250902400047E+02 [Eh]

   => Occupied Orbital Energies <=

       1  -20.603897     2  -20.548896     3  -11.387096  
       4  -11.291651     5   -1.435041     6   -1.355657  
       7   -0.958507     8   -0.763492     9   -0.668248  
      10   -0.659593    11   -0.618098    12   -0.539808  
      13   -0.533513    14   -0.472719    15   -0.457752  

   => Virtual Orbital Energies <=

      16    0.032355    17    0.052183    18    0.060831  
      19    0.065740    20    0.070559    21    0.078721  
      22    0.086994    23    0.092030    24    0.098906  
      25    0.099512    26    0.105236    27    0.107846  
      28    0.116271    29    0.117372    30    0.120052  
      31    0.130389    32    0.135119    33    0.137582  
      34    0.141687    35    0.150478    36    0.152808  
      37    0.157807    38    0.163850    39    0.166357  
      40    0.170503    41    0.176126    42    0.181553  
      43    0.192753    44    0.200124    45    0.202706  
      46    0.204152    47    0.211077    48    0.221279  
      49    0.224192    50    0.229077    51    0.233305  
      52    0.240691    53    0.244611    54    0.252204  
      55    0.254808    56    0.259914    57    0.262802  
      58    0.269629    59    0.272820    60    0.283921  
      61    0.289342    62    0.293369    63    0.297601  
      64    0.302419    65    0.306799    66    0.316805  
      67    0.319988    68    0.326441    69    0.328969  
      70    0.332180    71    0.336870    72    0.343200  
      73    0.344472    74    0.349704    75    0.359440  
      76    0.362701    77    0.371157    78    0.372038  
      79    0.386533    80    0.391284    81    0.395048  
      82    0.399645    83    0.405718    84    0.412246  
      85    0.423109    86    0.428257    87    0.436235  
      88    0.440360    89    0.445472    90    0.452584  
      91    0.455853    92    0.469375    93    0.478547  
      94    0.484960    95    0.489694    96    0.491555  
      97    0.512378    98    0.516815    99    0.519954  
     100    0.538257   101    0.548963   102    0.554417  
     103    0.566700   104    0.575371   105    0.590101  
     106    0.603783   107    0.624547   108    0.626578  
     109    0.639867   110    0.657877   111    0.662056  
     112    0.691418   113    0.698890   114    0.743779  
     115    0.766316   116    0.774980   117    0.778728  
     118    0.786596   119    0.816220   120    0.824263  
     121    0.832586   122    0.846059   123    0.852832  
     124    0.869332   125    0.885198   126    0.891339  
     127    0.893252   128    0.905889   129    0.923116  
     130    0.928647   131    0.929671   132    0.936795  
     133    0.943880   134    0.946445   135    0.952609  
     136    0.958034   137    0.961765   138    0.964235  
     139    0.968098   140    0.977936   141    0.983935  
     142    0.992485   143    1.006196   144    1.010659  
     145    1.023809   146    1.033625   147    1.036778  
     148    1.051958   149    1.066222   150    1.078893  
     151    1.094802   152    1.108691   153    1.115003  
     154    1.122801   155    1.131984   156    1.151495  
     157    1.154983   158    1.173304   159    1.186421  
     160    1.205478   161    1.216944   162    1.226171  
     163    1.229644   164    1.244950   165    1.268261  
     166    1.280067   167    1.296626   168    1.304338  
     169    1.312329   170    1.330467   171    1.349716  
     172    1.352907   173    1.385818   174    1.393762  
     175    1.411631   176    1.444699   177    1.465537  
     178    1.511680   179    1.527665   180    1.538939  
     181    1.545041   182    1.570416   183    1.581815  
     184    1.586915   185    1.596458   186    1.604887  
     187    1.624360   188    1.630346   189    1.643408  
     190    1.663325   191    1.665347   192    1.682005  
     193    1.687333   194    1.708015   195    1.722377  
     196    1.726992   197    1.735036   198    1.753855  
     199    1.786937   200    1.801167   201    1.809653  
     202    1.823054   203    1.836069   204    1.842160  
     205    1.848072   206    1.863033   207    1.886375  
     208    1.896422   209    1.906960   210    1.925172  
     211    1.934188   212    1.939765   213    1.953477  
     214    1.970070   215    1.972536   216    1.986622  
     217    1.994265   218    2.002851   219    2.010634  
     220    2.013064   221    2.020379   222    2.036874  
     223    2.039782   224    2.047553   225    2.060662  
     226    2.073267   227    2.091764   228    2.099432  
     229    2.118296   230    2.123754   231    2.128952  
     232    2.138840   233    2.147075   234    2.157713  
     235    2.174775   236    2.178614   237    2.190289  
     238    2.220352   239    2.232642   240    2.254178  
     241    2.275922   242    2.286217   243    2.310393  
     244    2.315245   245    2.322517   246    2.333295  
     247    2.340483   248    2.365555   249    2.382828  
     250    2.396601   251    2.400207   252    2.404844  
     253    2.420970   254    2.437473   255    2.449937  
     256    2.475082   257    2.501225   258    2.520205  
     259    2.529133   260    2.560175   261    2.574129  
     262    2.583428   263    2.606502   264    2.634536  
     265    2.648963   266    2.658374   267    2.671288  
     268    2.701505   269    2.720997   270    2.738743  
     271    2.760898   272    2.784787   273    2.804700  
     274    2.836609   275    2.839466   276    2.855133  
     277    2.863258   278    2.873264   279    2.876637  
     280    2.883835   281    2.886066   282    2.901401  
     283    2.905781   284    2.924380   285    2.943183  
     286    2.962156   287    2.981888   288    3.048295  
     289    3.057616   290    3.082536   291    3.116459  
     292    3.127699   293    3.186877   294    3.226269  
     295    3.285276   296    3.315455   297    3.407189  
     298    3.448011   299    3.582601   300    3.612458  
     301    3.686058   302    3.747706   303    3.788600  
     304    3.873308   305    3.947040   306    3.964723  
     307    4.080794   308    4.141816   309    4.200247  
     310    4.440253   311    4.511551   312    4.553635  
     313    4.759781   314    4.931653   315    5.040858  
     316    5.067520   317    5.185442   318    5.321550  
     319    5.514341   320    5.642005   321    5.744673  
     322    5.851286   323    6.105159   324    6.325697  
     325    6.699593   326   13.370664   327   18.425479  
     328   33.418541   329   33.473712  

  ==> Frozen Core <==


    ------------------
    Range      A     B
    ------------------
    nbf      358   358
    nmo      329   329
    nocc      15    15
    nvir     314   314
    nfocc      4     4
    naocc     11    11
    navir    314   314
    nfvir      0     0
    ------------------

  ==> Unification <==

  ==> dHF <==

    E ABC(HF) =  -7.6212132142506118E+02 [Eh]
    E AC(0)   =  -5.3410850123171667E+02 [Eh]
    E BC(0)   =  -5.3410070593127057E+02 [Eh]
    E A(0)    =  -2.1265419051296615E+02 [Eh]
    E B(0)    =  -2.1264853866717650E+02 [Eh]
    E AC(HF)  =  -5.3409608193557642E+02 [Eh]
    E BC(HF)  =  -5.3408912575223371E+02 [Eh]
    E AB(HF)  =  -4.2526644893710409E+02 [Eh]
    E A(HF)   =  -2.1263206657215537E+02 [Eh]
    E B(HF)   =  -2.1262730193846315E+02 [Eh]
    E C       =  -3.0607096668922685E+02 [Eh]
    E HF      =   1.6919048699207906E-02 [Eh]

  ==> Electrostatics <==

    Elst10,r            =     0.012443760608 [Eh]

  ==> Exchange <==

    Exch10(S^2)         =     0.006807098701 [Eh]
    Exch10              =     0.006829111571 [Eh]

  ==> Induction <==

    Ind20,u (A<-B)      =    -0.001626938622 [Eh]
    Ind20,u (B<-A)      =    -0.001527704363 [Eh]
    Ind20,u             =    -0.003154642985 [Eh]
    Exch-Ind20,u (A<-B) =     0.000727078259 [Eh]
    Exch-Ind20,u (B<-A) =     0.000717100440 [Eh]
    Exch-Ind20,u        =     0.001444178699 [Eh]

  ==> CPHF Iterations <==

    Maxiter     =          50
    Convergence =   1.000E-08

    -----------------------------------------
    Iter   Monomer A    Monomer B    Time [s]
    -----------------------------------------
    1      2.227E-01    2.142E-01          10
    2      8.357E-02    7.978E-02          22
    3      2.230E-02    2.080E-02          33
    4      8.312E-03    8.030E-03          44
    5      2.318E-03    2.220E-03          56
    6      7.810E-04    7.506E-04          68
    7      1.943E-04    1.912E-04          79
    8      5.718E-05    6.167E-05          91
    9      1.306E-05    1.735E-05         102
    10     4.572E-06    7.429E-06         113
    11     1.748E-06    2.391E-06         124
    12     4.065E-07    4.255E-07         135
    13     9.872E-08    9.895E-08         145
    14     2.245E-08    2.424E-08         156
    15     3.735E-09*   4.931E-09*        167
    -----------------------------------------

    Ind20,r (A<-B)      =    -0.001879146492 [Eh]
    Ind20,r (B<-A)      =    -0.001754646106 [Eh]
    Ind20,r             =    -0.003633792598 [Eh]
    Exch-Ind20,r (A<-B) =     0.000913709835 [Eh]
    Exch-Ind20,r (B<-A) =     0.000887197680 [Eh]
    Exch-Ind20,r        =     0.001800907515 [Eh]

  ==> F-SAPT Localization (IBO) <==

  Local Orbitals for Monomer A:

  ==> IBO Localizer 2 <==

    MinAO Basis = CC-PVTZ-MINAO
    Use Ghosts  =       FALSE
    Use Stars   =       FALSE
    Condition   =   1.000E-07
    Power       =           4
    Convergence =   1.000E-12
    Maxiter     =        1000

    @IBO Iter:                   Metric       Gradient
    @IBO    1:   1.4793417577270338E+00   1.673168E+00
    @IBO    2:   1.6781517397086620E+00   9.453694E-01
    @IBO    3:   1.7095031102536651E+00   2.797896E-01
    @IBO    4:   1.7104704245770586E+00   2.303959E-03
    @IBO    5:   1.7104705939845710E+00   9.691233E-05
    @IBO    6:   1.7104705941208318E+00   2.478384E-06
    @IBO    7:   1.7104705941209553E+00   8.844684E-08
    @IBO    8:   1.7104705941209555E+00   3.088656E-09
    @IBO    9:   1.7104705941209555E+00   1.187082E-10
    @IBO   10:   1.7104705941209555E+00   4.801884E-12
    @IBO   11:   1.7104705941209553E+00   1.992861E-13

    IBO Localizer 2 converged.

  Local Orbitals for Monomer B:

  ==> IBO Localizer 2 <==

    MinAO Basis = CC-PVTZ-MINAO
    Use Ghosts  =       FALSE
    Use Stars   =       FALSE
    Condition   =   1.000E-07
    Power       =           4
    Convergence =   1.000E-12
    Maxiter     =        1000

    @IBO Iter:                   Metric       Gradient
    @IBO    1:   1.4795982827450467E+00   1.674870E+00
    @IBO    2:   1.6780430331837284E+00   9.432896E-01
    @IBO    3:   1.7094594061367037E+00   2.932859E-01
    @IBO    4:   1.7105375613998799E+00   2.856425E-03
    @IBO    5:   1.7105378247418270E+00   1.235499E-04
    @IBO    6:   1.7105378249370129E+00   2.538292E-06
    @IBO    7:   1.7105378249371233E+00   7.746928E-08
    @IBO    8:   1.7105378249371233E+00   2.302398E-09
    @IBO    9:   1.7105378249371233E+00   7.938296E-11
    @IBO   10:   1.7105378249371233E+00   3.041205E-12
    @IBO   11:   1.7105378249371233E+00   1.234700E-13

    IBO Localizer 2 converged.

  ==> F-SAPT Electrostatics <==

  ==> DFERI: Density Fitted 3-Index Tensors <==

    Schwarz cutoff =   0.000E+00
    J cutoff       =   1.000E-12
    Mem (GB)       =         628

   => Auxiliary Basis <=

  Basis Set: (JUN-CC-PVDZ AUX)
    Blend: JUN-CC-PVDZ-JKFIT
    Number of shells: 558
    Number of basis function: 1586
    Number of Cartesian functions: 1806
    Spherical Harmonics?: true
    Max angular momentum: 3

    Elst10,r            =     0.012443728226 [Eh]

  ==> F-SAPT Exchange <==

  ==> DFERI: Density Fitted 3-Index Tensors <==

    Schwarz cutoff =   0.000E+00
    J cutoff       =   1.000E-12
    Mem (GB)       =         628

   => Auxiliary Basis <=

  Basis Set: (JUN-CC-PVDZ AUX)
    Blend: JUN-CC-PVDZ-JKFIT
    Number of shells: 558
    Number of basis function: 1586
    Number of Cartesian functions: 1806
    Spherical Harmonics?: true
    Max angular momentum: 3

    Exch10(S^2)         =     0.006807090201 [Eh]

    Scaling F-SAPT Exch10(S^2) by   1.003E+00 to match Exch10

  ==> F-SAPT Induction <==

  ==> DFERI: Density Fitted 3-Index Tensors <==

    Schwarz cutoff =   0.000E+00
    J cutoff       =   1.000E-12
    Mem (GB)       =         628

   => Auxiliary Basis <=

  Basis Set: (JUN-CC-PVDZ AUX)
    Blend: JUN-CC-PVDZ-JKFIT
    Number of shells: 558
    Number of basis function: 1586
    Number of Cartesian functions: 1806
    Spherical Harmonics?: true
    Max angular momentum: 3

    Ind20,u (A<-B)      =    -0.001626938418 [Eh]
    Ind20,u (B<-A)      =    -0.001527704260 [Eh]
    Ind20,u             =    -0.003154642678 [Eh]
    Exch-Ind20,u (A<-B) =     0.000727078264 [Eh]
    Exch-Ind20,u (B<-A) =     0.000717100425 [Eh]
    Exch-Ind20,u        =     0.001444178689 [Eh]

    Scaling for delta HF        =   1.284E+00
    Scaling for response (A<-B) =   1.073E+00
    Scaling for response (B<-A) =   1.070E+00
    Scaling for total (A<-B)    =   1.378E+00
    Scaling for total (B<-A)    =   1.374E+00

  ==> F-SAPT Dispersion <==

  ==> DFERI: Density Fitted 3-Index Tensors <==

    Schwarz cutoff =   0.000E+00
    J cutoff       =   1.000E-12
    Mem (GB)       =         628

   => Auxiliary Basis <=

  Basis Set: (JUN-CC-PVDZ AUX)
    Blend: JUN-CC-PVDZ-RI
    Number of shells: 420
    Number of basis function: 1236
    Number of Cartesian functions: 1426
    Spherical Harmonics?: true
    Max angular momentum: 3

    Disp20              =    -0.004911474142 [Eh]
    Exch-Disp20         =     0.000494267931 [Eh]

  ==> F-SAPT Output <==

    F-SAPT Data Filepath = fsapt/

  ==> Results <==


    SAPT Results  
  --------------------------------------------------------------------------------------------------------
    Electrostatics                 12.44376061 [mEh]       7.80857800 [kcal/mol]      32.67109348 [kJ/mol]
      Elst10,r                     12.44376061 [mEh]       7.80857800 [kcal/mol]      32.67109348 [kJ/mol]

    Exchange                        6.82911157 [mEh]       4.28533239 [kcal/mol]      17.92983243 [kJ/mol]
      Exch10                        6.82911157 [mEh]       4.28533239 [kcal/mol]      17.92983243 [kJ/mol]
      Exch10(S^2)                   6.80709870 [mEh]       4.27151910 [kcal/mol]      17.87203764 [kJ/mol]

    Induction                      -2.35382348 [mEh]      -1.47704659 [kcal/mol]      -6.17996355 [kJ/mol]
      Ind20,r                      -3.63379260 [mEh]      -2.28023938 [kcal/mol]      -9.54052247 [kJ/mol]
      Exch-Ind20,r                  1.80090752 [mEh]       1.13008657 [kcal/mol]       4.72828268 [kJ/mol]
      delta HF,r (2)               -0.52093840 [mEh]      -0.32689379 [kcal/mol]      -1.36772376 [kJ/mol]
      Induction (A<-B)             -1.23983085 [mEh]      -0.77800564 [kcal/mol]      -3.25517590 [kJ/mol]
      Induction (B<-A)             -1.11399263 [mEh]      -0.69904096 [kcal/mol]      -2.92478765 [kJ/mol]

    Dispersion                     -4.41720621 [mEh]      -2.77183886 [kcal/mol]     -11.59737491 [kJ/mol]
      Disp20                       -4.91147414 [mEh]      -3.08199668 [kcal/mol]     -12.89507536 [kJ/mol]
      Exch-Disp20                   0.49426793 [mEh]       0.31015782 [kcal/mol]       1.29770045 [kJ/mol]

  Total HF                         16.91904870 [mEh]      10.61686379 [kcal/mol]      44.42096236 [kJ/mol]
  Total SAPT0                      12.50184249 [mEh]       7.84502493 [kcal/mol]      32.82358745 [kJ/mol]

  --------------------------------------------------------------------------------------------------------
    Han Solo: This is *not* gonna work.
    Luke Skywalker: Why didn't you say so before?
    Han Solo: I *did* say so before.

*** tstop() called on ThinkPad-P50 at Tue Dec 12 11:58:36 2017
Module time:
	user time   =     455.04 seconds =       7.58 minutes
	system time =       4.48 seconds =       0.07 minutes
	total time  =        460 seconds =       7.67 minutes
Total time:
	user time   =     628.41 seconds =      10.47 minutes
	system time =       6.12 seconds =       0.10 minutes
	total time  =        635 seconds =      10.58 minutes

*** Psi4 exiting successfully. Buy a developer a beer!
