
    -----------------------------------------------------------------------
          Psi4: An Open-Source Ab Initio Electronic Structure Package
                               Psi4 1.1 release

                         Git: Rev {HEAD} add49b9 


    R. M. Parrish, L. A. Burns, D. G. A. Smith, A. C. Simmonett,
    A. E. DePrince III, E. G. Hohenstein, U. Bozkaya, A. Yu. Sokolov,
    R. Di Remigio, R. M. Richard, J. F. Gonthier, A. M. James,
    H. R. McAlexander, A. Kumar, M. Saitow, X. Wang, B. P. Pritchard,
    P. Verma, H. F. Schaefer III, K. Patkowski, R. A. King, E. F. Valeev,
    F. A. Evangelista, J. M. Turney, T. D. Crawford, and C. D. Sherrill,
    J. Chem. Theory Comput. in press (2017).
    (doi: 10.1021/acs.jctc.7b00174)

    -----------------------------------------------------------------------


    Psi4 started on: Thursday, 19 October 2017 09:24AM

    Process ID:  18989
    PSIDATADIR: /opt/software/psi4/psi4conda/share/psi4
    Memory:     500.0 MiB
    Threads:    48
    
  ==> Input File <==

--------------------------------------------------------------------------
memory 750000 mb

molecule mol {
0 1
C         -1.83960        2.92746        0.24839
H         -1.45503        3.26427        1.21284
H         -1.24214        3.42352       -0.52065
H         -2.87211        3.26623        0.14638
--
0 1
C          0.72843        1.48436        0.06598
O          1.01035        2.37097        0.83478
O          1.53784        1.08301       -0.93877
C          2.83449        1.70121       -0.99358
H          2.73835        2.77989       -1.12464
H          3.38998        1.50093       -0.07544
H          3.33184        1.25269       -1.85067
--
0 1
C         -1.78103       -2.92226       -0.24590
H         -2.80572       -3.28175       -0.13627
H         -1.39752       -3.25223       -1.21323
H         -1.16958       -3.40777        0.51926
C          0.74969       -1.43776       -0.09374
O          1.04702       -2.28405       -0.90088
O          1.53645       -1.09176        0.94813
C          2.82316       -1.73208        1.00475
H          3.39889       -1.50934        0.10459
H          3.31095       -1.32281        1.88650
H          2.70778       -2.81319        1.09555
C         -0.54444       -0.68370       -0.06689
C         -0.55709        0.71878        0.05493
C         -1.74320       -1.41616       -0.12552
C         -2.93952       -0.70056       -0.05285
C         -2.95313        0.68255        0.06934
C         -1.77161        1.42404        0.12810
H         -3.90354        1.20325        0.11710
H         -3.87892       -1.24211       -0.08988

symmetry c1
no_reorient
no_com
}

set {
basis jun-cc-pvdz
scf_type df
guess sad
freeze_core true
}

energy('fisapt0')
--------------------------------------------------------------------------

  Memory set to 698.492 GiB by Python driver.

*** tstart() called on vega02.cac.cornell.edu
*** at Thu Oct 19 09:24:24 2017

   => Loading Basis Set <=

    Name: JUN-CC-PVDZ
    Role: ORBITAL
    Keyword: BASIS
    atoms 1, 5, 8, 12, 16, 19, 23-28     entry C          line   157 file /opt/software/psi4/psi4conda/share/psi4/basis/jun-cc-pvdz.gbs 
    atoms 2-4, 9-11, 13-15, 20-22, 29-30 entry H          line    35 file /opt/software/psi4/psi4conda/share/psi4/basis/jun-cc-pvdz.gbs 
    atoms 6-7, 17-18                     entry O          line   225 file /opt/software/psi4/psi4conda/share/psi4/basis/jun-cc-pvdz.gbs 


         ---------------------------------------------------------
                                   SCF
            by Justin Turney, Rob Parrish, and Andy Simmonett
                              RHF Reference
                       48 Threads, 715255 MiB Core
         ---------------------------------------------------------

  ==> Geometry <==

    Molecular point group: c1
    Full point group: C1

    Geometry (in Angstrom), charge = 0, multiplicity = 1:

       Center              X                  Y                   Z               Mass       
    ------------   -----------------  -----------------  -----------------  -----------------
           C         -1.839600000000     2.927460000000     0.248390000000    12.000000000000
           H         -1.455030000000     3.264270000000     1.212840000000     1.007825032070
           H         -1.242140000000     3.423520000000    -0.520650000000     1.007825032070
           H         -2.872110000000     3.266230000000     0.146380000000     1.007825032070
           C          0.728430000000     1.484360000000     0.065980000000    12.000000000000
           O          1.010350000000     2.370970000000     0.834780000000    15.994914619560
           O          1.537840000000     1.083010000000    -0.938770000000    15.994914619560
           C          2.834490000000     1.701210000000    -0.993580000000    12.000000000000
           H          2.738350000000     2.779890000000    -1.124640000000     1.007825032070
           H          3.389980000000     1.500930000000    -0.075440000000     1.007825032070
           H          3.331840000000     1.252690000000    -1.850670000000     1.007825032070
           C         -1.781030000000    -2.922260000000    -0.245900000000    12.000000000000
           H         -2.805720000000    -3.281750000000    -0.136270000000     1.007825032070
           H         -1.397520000000    -3.252230000000    -1.213230000000     1.007825032070
           H         -1.169580000000    -3.407770000000     0.519260000000     1.007825032070
           C          0.749690000000    -1.437760000000    -0.093740000000    12.000000000000
           O          1.047020000000    -2.284050000000    -0.900880000000    15.994914619560
           O          1.536450000000    -1.091760000000     0.948130000000    15.994914619560
           C          2.823160000000    -1.732080000000     1.004750000000    12.000000000000
           H          3.398890000000    -1.509340000000     0.104590000000     1.007825032070
           H          3.310950000000    -1.322810000000     1.886500000000     1.007825032070
           H          2.707780000000    -2.813190000000     1.095550000000     1.007825032070
           C         -0.544440000000    -0.683700000000    -0.066890000000    12.000000000000
           C         -0.557090000000     0.718780000000     0.054930000000    12.000000000000
           C         -1.743200000000    -1.416160000000    -0.125520000000    12.000000000000
           C         -2.939520000000    -0.700560000000    -0.052850000000    12.000000000000
           C         -2.953130000000     0.682550000000     0.069340000000    12.000000000000
           C         -1.771610000000     1.424040000000     0.128100000000    12.000000000000
           H         -3.903540000000     1.203250000000     0.117100000000     1.007825032070
           H         -3.878920000000    -1.242110000000    -0.089880000000     1.007825032070

  Running in c1 symmetry.

  Rotational constants: A =      0.02120  B =      0.01896  C =      0.01123 [cm^-1]
  Rotational constants: A =    635.67058  B =    568.40897  C =    336.73028 [MHz]
  Nuclear repulsion = 1146.506011940809458

  Charge       = 0
  Multiplicity = 1
  Electrons    = 118
  Nalpha       = 59
  Nbeta        = 59

  ==> Algorithm <==

  SCF Algorithm Type is DF.
  DIIS enabled.
  MOM disabled.
  Fractional occupation disabled.
  Guess Type is SAD.
  Energy threshold   = 1.00e-08
  Density threshold  = 1.00e-08
  Integral threshold = 0.00e+00

  ==> Primary Basis <==

  Basis Set: JUN-CC-PVDZ
    Blend: JUN-CC-PVDZ
    Number of shells: 170
    Number of basis function: 358
    Number of Cartesian functions: 374
    Spherical Harmonics?: true
    Max angular momentum: 2

   => Loading Basis Set <=

    Name: (JUN-CC-PVDZ AUX)
    Role: JKFIT
    Keyword: DF_BASIS_SCF
    atoms 1, 5, 8, 12, 16, 19, 23-28     entry C          line   145 file /opt/software/psi4/psi4conda/share/psi4/basis/jun-cc-pvdz-jkfit.gbs 
    atoms 2-4, 9-11, 13-15, 20-22, 29-30 entry H          line    69 file /opt/software/psi4/psi4conda/share/psi4/basis/jun-cc-pvdz-jkfit.gbs 
    atoms 6-7, 17-18                     entry O          line   257 file /opt/software/psi4/psi4conda/share/psi4/basis/jun-cc-pvdz-jkfit.gbs 

  ==> Pre-Iterations <==

   -------------------------------------------------------
    Irrep   Nso     Nmo     Nalpha   Nbeta   Ndocc  Nsocc
   -------------------------------------------------------
     A        358     358       0       0       0       0
   -------------------------------------------------------
    Total     358     358      59      59      59       0
   -------------------------------------------------------

  ==> Integral Setup <==

  ==> DFJK: Density-Fitted J/K Matrices <==

    J tasked:                  Yes
    K tasked:                  Yes
    wK tasked:                  No
    OpenMP threads:             48
    Integrals threads:          48
    Memory (MB):            536441
    Algorithm:                Core
    Integral Cache:           NONE
    Schwarz Cutoff:          1E-12
    Fitting Condition:       1E-12

   => Auxiliary Basis Set <=

  Basis Set: (JUN-CC-PVDZ AUX)
    Blend: JUN-CC-PVDZ-JKFIT
    Number of shells: 558
    Number of basis function: 1586
    Number of Cartesian functions: 1806
    Spherical Harmonics?: true
    Max angular momentum: 3

  Minimum eigenvalue in the overlap matrix is 3.3134102023E-06.
  Using Symmetric Orthogonalization.

  SCF Guess: Superposition of Atomic Densities via on-the-fly atomic UHF.

  ==> Iterations <==

                           Total Energy        Delta E     RMS |[F,P]|

   @DF-RHF iter   0:  -768.58771294992323   -7.68588e+02   1.08676e-01 
   @DF-RHF iter   1:  -761.67461068634975    6.91310e+00   1.01807e-02 
   @DF-RHF iter   2:  -762.04025263064227   -3.65642e-01   7.53167e-03 DIIS
   @DF-RHF iter   3:  -762.10458160970552   -6.43290e-02   2.20872e-03 DIIS
   @DF-RHF iter   4:  -762.11956201482587   -1.49804e-02   8.42297e-04 DIIS
   @DF-RHF iter   5:  -762.12089848257904   -1.33647e-03   3.04833e-04 DIIS
   @DF-RHF iter   6:  -762.12124223974547   -3.43757e-04   1.09133e-04 DIIS
   @DF-RHF iter   7:  -762.12130719441484   -6.49547e-05   4.81881e-05 DIIS
   @DF-RHF iter   8:  -762.12131851799654   -1.13236e-05   2.37657e-05 DIIS
   @DF-RHF iter   9:  -762.12132074461067   -2.22661e-06   7.16789e-06 DIIS
   @DF-RHF iter  10:  -762.12132133602563   -5.91415e-07   3.87497e-06 DIIS
   @DF-RHF iter  11:  -762.12132141399172   -7.79661e-08   1.41578e-06 DIIS
   @DF-RHF iter  12:  -762.12132142117036   -7.17864e-09   5.14542e-07 DIIS
   @DF-RHF iter  13:  -762.12132142200346   -8.33097e-10   1.89361e-07 DIIS
   @DF-RHF iter  14:  -762.12132142214728   -1.43814e-10   6.26011e-08 DIIS
   @DF-RHF iter  15:  -762.12132142217149   -2.42153e-11   3.06733e-08 DIIS
   @DF-RHF iter  16:  -762.12132142217615   -4.66116e-12   1.06307e-08 DIIS
   @DF-RHF iter  17:  -762.12132142217547    6.82121e-13   4.47241e-09 DIIS

  ==> Post-Iterations <==

    Orbital Energies (a.u.)
    -----------------------

    Doubly Occupied:                                                      

       1A    -20.614471     2A    -20.614377     3A    -20.559695  
       4A    -20.559114     5A    -11.397640     6A    -11.397494  
       7A    -11.298742     8A    -11.298634     9A    -11.271319  
      10A    -11.270091    11A    -11.265508    12A    -11.264958  
      13A    -11.253141    14A    -11.251770    15A    -11.234132  
      16A    -11.233540    17A     -1.474234    18A     -1.466453  
      19A     -1.370012    20A     -1.369377    21A     -1.183859  
      22A     -1.084796    23A     -1.066607    24A     -0.992957  
      25A     -0.987395    26A     -0.970260    27A     -0.915235  
      28A     -0.879412    29A     -0.836815    30A     -0.782848  
      31A     -0.769995    32A     -0.728158    33A     -0.709431  
      34A     -0.700248    35A     -0.683124    36A     -0.678468  
      37A     -0.658603    38A     -0.657291    39A     -0.643517  
      40A     -0.609517    41A     -0.588781    42A     -0.587668  
      43A     -0.571699    44A     -0.569557    45A     -0.562890  
      46A     -0.554242    47A     -0.545154    48A     -0.537876  
      49A     -0.537425    50A     -0.532202    51A     -0.518071  
      52A     -0.507250    53A     -0.488238    54A     -0.469048  
      55A     -0.463676    56A     -0.455476    57A     -0.448562  
      58A     -0.353312    59A     -0.330977  

    Virtual:                                                              

      60A      0.053801    61A      0.056781    62A      0.059140  
      63A      0.068369    64A      0.075516    65A      0.076742  
      66A      0.086442    67A      0.092134    68A      0.093154  
      69A      0.099395    70A      0.106274    71A      0.112071  
      72A      0.114747    73A      0.117697    74A      0.121040  
      75A      0.121368    76A      0.136099    77A      0.138684  
      78A      0.144841    79A      0.149378    80A      0.151504  
      81A      0.158879    82A      0.164159    83A      0.174836  
      84A      0.176916    85A      0.179127    86A      0.187251  
      87A      0.188286    88A      0.204209    89A      0.206101  
      90A      0.209073    91A      0.212591    92A      0.218515  
      93A      0.228326    94A      0.229834    95A      0.234743  
      96A      0.235723    97A      0.247787    98A      0.248417  
      99A      0.256815   100A      0.260744   101A      0.263949  
     102A      0.272344   103A      0.272706   104A      0.281290  
     105A      0.288506   106A      0.293341   107A      0.300198  
     108A      0.301962   109A      0.320583   110A      0.321926  
     111A      0.324176   112A      0.325507   113A      0.329918  
     114A      0.337031   115A      0.339704   116A      0.350187  
     117A      0.351543   118A      0.354142   119A      0.356718  
     120A      0.363140   121A      0.365632   122A      0.378529  
     123A      0.385174   124A      0.393048   125A      0.396720  
     126A      0.398941   127A      0.399184   128A      0.404128  
     129A      0.418849   130A      0.427699   131A      0.430041  
     132A      0.438619   133A      0.440270   134A      0.445759  
     135A      0.446674   136A      0.454692   137A      0.457665  
     138A      0.469946   139A      0.475492   140A      0.481054  
     141A      0.488864   142A      0.507677   143A      0.509056  
     144A      0.514739   145A      0.519716   146A      0.532514  
     147A      0.547563   148A      0.566696   149A      0.573499  
     150A      0.599191   151A      0.602021   152A      0.615405  
     153A      0.627483   154A      0.659482   155A      0.702462  
     156A      0.715837   157A      0.753692   158A      0.756821  
     159A      0.766847   160A      0.770903   161A      0.788036  
     162A      0.815431   163A      0.825396   164A      0.826963  
     165A      0.834051   166A      0.844940   167A      0.870678  
     168A      0.872430   169A      0.872942   170A      0.892228  
     171A      0.894556   172A      0.901300   173A      0.904974  
     174A      0.911626   175A      0.917098   176A      0.919386  
     177A      0.920689   178A      0.924499   179A      0.930936  
     180A      0.944577   181A      0.948925   182A      0.951089  
     183A      0.955585   184A      0.965852   185A      0.966396  
     186A      0.972065   187A      0.973597   188A      0.990312  
     189A      0.995860   190A      1.006538   191A      1.011022  
     192A      1.019000   193A      1.026018   194A      1.038038  
     195A      1.040619   196A      1.071126   197A      1.074274  
     198A      1.084275   199A      1.111007   200A      1.112642  
     201A      1.134342   202A      1.144647   203A      1.147912  
     204A      1.165908   205A      1.183249   206A      1.204425  
     207A      1.206675   208A      1.228557   209A      1.230621  
     210A      1.261138   211A      1.276344   212A      1.277957  
     213A      1.287471   214A      1.303976   215A      1.322150  
     216A      1.322714   217A      1.341224   218A      1.357027  
     219A      1.368160   220A      1.369010   221A      1.382898  
     222A      1.438466   223A      1.448232   224A      1.452695  
     225A      1.493967   226A      1.505419   227A      1.509003  
     228A      1.544141   229A      1.546659   230A      1.553468  
     231A      1.557198   232A      1.571147   233A      1.599876  
     234A      1.605427   235A      1.607323   236A      1.613228  
     237A      1.621191   238A      1.624480   239A      1.639841  
     240A      1.656665   241A      1.671595   242A      1.695125  
     243A      1.702692   244A      1.708313   245A      1.711815  
     246A      1.724073   247A      1.734623   248A      1.757589  
     249A      1.761292   250A      1.786229   251A      1.804323  
     252A      1.815433   253A      1.816699   254A      1.832696  
     255A      1.873678   256A      1.881764   257A      1.891375  
     258A      1.898532   259A      1.906587   260A      1.917988  
     261A      1.925231   262A      1.937074   263A      1.940617  
     264A      1.947375   265A      1.953301   266A      1.975173  
     267A      1.978016   268A      1.983408   269A      1.985105  
     270A      1.999138   271A      2.002436   272A      2.014112  
     273A      2.016473   274A      2.025233   275A      2.029900  
     276A      2.034707   277A      2.041157   278A      2.052574  
     279A      2.059001   280A      2.092681   281A      2.105389  
     282A      2.117061   283A      2.119564   284A      2.129705  
     285A      2.145112   286A      2.170279   287A      2.176081  
     288A      2.186260   289A      2.216851   290A      2.217305  
     291A      2.237547   292A      2.250492   293A      2.288865  
     294A      2.303951   295A      2.315648   296A      2.343815  
     297A      2.362076   298A      2.366187   299A      2.382499  
     300A      2.386264   301A      2.400192   302A      2.421954  
     303A      2.427180   304A      2.431930   305A      2.437027  
     306A      2.451755   307A      2.507977   308A      2.521903  
     309A      2.540320   310A      2.547259   311A      2.569323  
     312A      2.580840   313A      2.588021   314A      2.639824  
     315A      2.661225   316A      2.664078   317A      2.730445  
     318A      2.747769   319A      2.766310   320A      2.794931  
     321A      2.808265   322A      2.820733   323A      2.849987  
     324A      2.855473   325A      2.869159   326A      2.869284  
     327A      2.879303   328A      2.882330   329A      2.906598  
     330A      2.911621   331A      2.921097   332A      2.937076  
     333A      2.972281   334A      2.986828   335A      3.036238  
     336A      3.057162   337A      3.080146   338A      3.098366  
     339A      3.119658   340A      3.144191   341A      3.195529  
     342A      3.268335   343A      3.269003   344A      3.285370  
     345A      3.317721   346A      3.383039   347A      3.427442  
     348A      3.562501   349A      3.584255   350A      3.654109  
     351A      3.681059   352A      3.746674   353A      3.761375  
     354A      3.811539   355A      3.942779   356A      3.951648  
     357A      4.067290   358A      4.074360  

    Final Occupation by Irrep:
              A 
    DOCC [    59 ]

  Energy converged.

  @DF-RHF Final Energy:  -762.12132142217547

   => Energetics <=

    Nuclear Repulsion Energy =           1146.5060119408094579
    One-Electron Energy =               -3318.0039874669109849
    Two-Electron Energy =                1409.3766541039260574
    DFT Exchange-Correlation Energy =       0.0000000000000000
    Empirical Dispersion Energy =           0.0000000000000000
    PCM Polarization Energy =               0.0000000000000000
    EFP Energy =                            0.0000000000000000
    Total Energy =                       -762.1213214221754697



Properties will be evaluated at   0.000000,   0.000000,   0.000000 Bohr

Properties computed using the SCF density matrix

  Nuclear Dipole Moment: (a.u.)
     X:    -1.4297      Y:     1.4404      Z:    -0.8020

  Electronic Dipole Moment: (a.u.)
     X:     1.3739      Y:    -1.4846      Z:     0.8305

  Dipole Moment: (a.u.)
     X:    -0.0558      Y:    -0.0442      Z:     0.0285     Total:     0.0767

  Dipole Moment: (Debye)
     X:    -0.1419      Y:    -0.1123      Z:     0.0724     Total:     0.1949


*** tstop() called on vega02.cac.cornell.edu at Thu Oct 19 09:24:56 2017
Module time:
	user time   =     706.87 seconds =      11.78 minutes
	system time =       5.99 seconds =       0.10 minutes
	total time  =         32 seconds =       0.53 minutes
Total time:
	user time   =     706.87 seconds =      11.78 minutes
	system time =       5.99 seconds =       0.10 minutes
	total time  =         32 seconds =       0.53 minutes
   => Loading Basis Set <=

    Name: (JUN-CC-PVDZ AUX)
    Role: JKFIT
    Keyword: DF_BASIS_SCF
    atoms 1, 5, 8, 12, 16, 19, 23-28     entry C          line   145 file /opt/software/psi4/psi4conda/share/psi4/basis/jun-cc-pvdz-jkfit.gbs 
    atoms 2-4, 9-11, 13-15, 20-22, 29-30 entry H          line    69 file /opt/software/psi4/psi4conda/share/psi4/basis/jun-cc-pvdz-jkfit.gbs 
    atoms 6-7, 17-18                     entry O          line   257 file /opt/software/psi4/psi4conda/share/psi4/basis/jun-cc-pvdz-jkfit.gbs 

   => Loading Basis Set <=

    Name: (JUN-CC-PVDZ AUX)
    Role: RIFIT
    Keyword: DF_BASIS_SAPT
    atoms 1, 5, 8, 12, 16, 19, 23-28     entry C          line    99 file /opt/software/psi4/psi4conda/share/psi4/basis/jun-cc-pvdz-ri.gbs 
    atoms 2-4, 9-11, 13-15, 20-22, 29-30 entry H          line    29 file /opt/software/psi4/psi4conda/share/psi4/basis/jun-cc-pvdz-ri.gbs 
    atoms 6-7, 17-18                     entry O          line   187 file /opt/software/psi4/psi4conda/share/psi4/basis/jun-cc-pvdz-ri.gbs 

   => Loading Basis Set <=

    Name: CC-PVTZ-MINAO
    Role: ORBITAL
    Keyword: BASIS
    atoms 1, 5, 8, 12, 16, 19, 23-28     entry C          line   130 file /opt/software/psi4/psi4conda/share/psi4/basis/cc-pvtz-minao.gbs 
    atoms 2-4, 9-11, 13-15, 20-22, 29-30 entry H          line    19 file /opt/software/psi4/psi4conda/share/psi4/basis/cc-pvtz-minao.gbs 
    atoms 6-7, 17-18                     entry O          line   190 file /opt/software/psi4/psi4conda/share/psi4/basis/cc-pvtz-minao.gbs 


*** tstart() called on vega02.cac.cornell.edu
*** at Thu Oct 19 09:24:56 2017

	 --------------------------------------------
	                    FISAPT0                  
	                  Rob Parrish                
	 --------------------------------------------

    Do F-SAPT =         Yes
    Do Plot   =          No
    Memory    =      78.580 [GD]

  ==> Localization (IBO) <==

  ==> IBO Localizer 2 <==

    MinAO Basis = CC-PVTZ-MINAO
    Use Ghosts  =       FALSE
    Use Stars   =       FALSE
    Condition   =   1.000E-07
    Power       =           4
    Convergence =   1.000E-12
    Maxiter     =        1000

    @IBO Iter:                   Metric       Gradient
    @IBO    1:   1.8955604688551910E+00   2.746953E+00
    @IBO    2:   2.2089764944082355E+00   1.987184E+00
    @IBO    3:   2.2803819817080817E+00   8.953719E-01
    @IBO    4:   2.2877992104083114E+00   1.708206E-01
    @IBO    5:   2.2879571115420441E+00   5.001387E-03
    @IBO    6:   2.2879581237371980E+00   1.033805E-03
    @IBO    7:   2.2879581804945968E+00   2.577394E-04
    @IBO    8:   2.2879581840831382E+00   6.591604E-05
    @IBO    9:   2.2879581843177310E+00   1.719940E-05
    @IBO   10:   2.2879581843336876E+00   4.559401E-06
    @IBO   11:   2.2879581843348085E+00   1.223735E-06
    @IBO   12:   2.2879581843348893E+00   3.320381E-07
    @IBO   13:   2.2879581843348951E+00   9.097956E-08
    @IBO   14:   2.2879581843348960E+00   2.515011E-08
    @IBO   15:   2.2879581843348960E+00   7.006897E-09
    @IBO   16:   2.2879581843348955E+00   1.965245E-09
    @IBO   17:   2.2879581843348960E+00   5.542742E-10
    @IBO   18:   2.2879581843348960E+00   1.570335E-10
    @IBO   19:   2.2879581843348960E+00   4.464944E-11
    @IBO   20:   2.2879581843348960E+00   1.273078E-11
    @IBO   21:   2.2879581843348955E+00   3.637758E-12
    @IBO   22:   2.2879581843348955E+00   1.041184E-12
    @IBO   23:   2.2879581843348960E+00   2.983588E-13

    IBO Localizer 2 converged.

  ==> Partitioning <==

   => Atomic Partitioning <= 

    Monomer A:   4 atoms
    Monomer B:   7 atoms
    Monomer C:  19 atoms

   => Link Bond Identification <=

    Link Bond Selection = AUTOMATIC

    Charge Completeness = 0.800

    Total Link Bonds = 2

    --------------------------
    N     Orb Type Aind1 Aind2
    --------------------------
    1      19   BC     5    24
    2      33   AC     1    28
    --------------------------

   => Link Bond Assignment <=

    Link Bond Assignment      = C

   => Partition Summary <=

    Monomer A:  0 charge,   8 protons,   8 electrons,   4 docc
    Monomer B:  0 charge,  30 protons,  30 electrons,  15 docc
    Monomer C:  0 charge,  80 protons,  80 electrons,  40 docc

  ==> Overlap Integrals <==

  ==> Kinetic Integrals <==

  ==> Nuclear Integrals <==

    Nuclear Repulsion Tot:   1.1465060119408090E+03 [Eh]

  ==> Coulomb Integrals <==

  ==> DFJK: Density-Fitted J/K Matrices <==

    J tasked:                  Yes
    K tasked:                  Yes
    wK tasked:                  No
    OpenMP threads:             48
    Integrals threads:          48
    Memory (MB):            643730
    Algorithm:                Core
    Integral Cache:           NONE
    Schwarz Cutoff:          1E-12
    Fitting Condition:       1E-12

   => Auxiliary Basis Set <=

  Basis Set: (JUN-CC-PVDZ AUX)
    Blend: JUN-CC-PVDZ-JKFIT
    Number of shells: 558
    Number of basis function: 1586
    Number of Cartesian functions: 1806
    Spherical Harmonics?: true
    Max angular momentum: 3

  ==> Relaxed SCF Equations <==

  ==> SCF A: <==

    Maxiter =          50
    E Tol   =   1.000E-06
    D Tol   =   1.000E-08

    Max DIIS Vectors = 5

    Iter   N:                        E          dE         |D|
    Iter   1:  -3.6304888833548077E+01  -3.630E+01   1.711E-03 
    Iter   2:  -3.6307256783557634E+01  -2.368E-03   1.705E-04 DIIS
    Iter   3:  -3.6307321771706071E+01  -6.499E-05   3.577E-05 DIIS
    Iter   4:  -3.6307325835729500E+01  -4.064E-06   9.129E-06 DIIS
    Iter   5:  -3.6307326070574106E+01  -2.348E-07   1.562E-06 DIIS
    Iter   6:  -3.6307326080292405E+01  -9.718E-09   2.669E-07 DIIS
    Iter   7:  -3.6307326080538552E+01  -2.461E-10   3.348E-08 DIIS
    Iter   8:  -3.6307326080542616E+01  -4.064E-12   4.849E-09 DIIS

    FISAPTSCF Converged.

    Final SCF Energy:  -3.6307326080542616E+01 [Eh]

   => Occupied Orbital Energies <=

       1  -11.234091     2   -0.848993     3   -0.556613  
       4   -0.549820  

   => Virtual Orbital Energies <=

       5    0.032858     6    0.052656     7    0.060695  
       8    0.065310     9    0.070944    10    0.078853  
      11    0.086929    12    0.092184    13    0.098884  
      14    0.099770    15    0.105225    16    0.107651  
      17    0.116293    18    0.117696    19    0.119910  
      20    0.130882    21    0.135290    22    0.137390  
      23    0.141779    24    0.150561    25    0.152715  
      26    0.157624    27    0.164047    28    0.166263  
      29    0.170372    30    0.176296    31    0.181732  
      32    0.192930    33    0.200327    34    0.202948  
      35    0.204241    36    0.211549    37    0.221130  
      38    0.224463    39    0.230066    40    0.233423  
      41    0.240698    42    0.245264    43    0.252461  
      44    0.255169    45    0.260022    46    0.262767  
      47    0.269620    48    0.272817    49    0.283709  
      50    0.289536    51    0.293395    52    0.297594  
      53    0.302444    54    0.307076    55    0.317201  
      56    0.320236    57    0.326330    58    0.328876  
      59    0.332271    60    0.337045    61    0.343130  
      62    0.344277    63    0.349641    64    0.359222  
      65    0.362623    66    0.371200    67    0.371801  
      68    0.386714    69    0.391130    70    0.395291  
      71    0.399360    72    0.405371    73    0.412296  
      74    0.423294    75    0.428215    76    0.436007  
      77    0.440644    78    0.445178    79    0.452974  
      80    0.455675    81    0.469715    82    0.479241  
      83    0.485530    84    0.489714    85    0.491337  
      86    0.512351    87    0.516838    88    0.519911  
      89    0.538243    90    0.549140    91    0.554715  
      92    0.566484    93    0.576248    94    0.591098  
      95    0.604319    96    0.624620    97    0.626886  
      98    0.640562    99    0.658620   100    0.662152  
     101    0.692089   102    0.699042   103    0.744026  
     104    0.766790   105    0.775235   106    0.778604  
     107    0.786949   108    0.816277   109    0.824651  
     110    0.832688   111    0.845149   112    0.852620  
     113    0.868761   114    0.884593   115    0.891883  
     116    0.893023   117    0.906246   118    0.923192  
     119    0.927907   120    0.928987   121    0.936303  
     122    0.943944   123    0.946170   124    0.953141  
     125    0.957671   126    0.961049   127    0.963938  
     128    0.967885   129    0.978317   130    0.983514  
     131    0.992949   132    1.006009   133    1.010502  
     134    1.024110   135    1.033688   136    1.036905  
     137    1.052027   138    1.066448   139    1.079963  
     140    1.095199   141    1.108223   142    1.114616  
     143    1.123023   144    1.132446   145    1.151720  
     146    1.155031   147    1.173769   148    1.186829  
     149    1.205994   150    1.216303   151    1.226304  
     152    1.229564   153    1.244769   154    1.267671  
     155    1.280335   156    1.296681   157    1.304201  
     158    1.312303   159    1.331111   160    1.350304  
     161    1.352932   162    1.386189   163    1.393641  
     164    1.412190   165    1.445402   166    1.465755  
     167    1.511980   168    1.527605   169    1.539139  
     170    1.545110   171    1.570360   172    1.581983  
     173    1.586826   174    1.596245   175    1.604928  
     176    1.625113   177    1.630529   178    1.643227  
     179    1.663268   180    1.665441   181    1.682271  
     182    1.687188   183    1.709204   184    1.722130  
     185    1.727412   186    1.735567   187    1.753859  
     188    1.786355   189    1.801307   190    1.809865  
     191    1.822528   192    1.836179   193    1.841875  
     194    1.848320   195    1.863099   196    1.886968  
     197    1.895690   198    1.906923   199    1.924887  
     200    1.933805   201    1.940071   202    1.953408  
     203    1.969869   204    1.972542   205    1.986868  
     206    1.994026   207    2.002695   208    2.010704  
     209    2.012205   210    2.019945   211    2.035876  
     212    2.039782   213    2.047055   214    2.060386  
     215    2.073425   216    2.091562   217    2.099749  
     218    2.118282   219    2.123817   220    2.128803  
     221    2.138935   222    2.147046   223    2.157689  
     224    2.174075   225    2.179068   226    2.189680  
     227    2.220605   228    2.233387   229    2.255044  
     230    2.276152   231    2.286509   232    2.310356  
     233    2.315666   234    2.322970   235    2.333285  
     236    2.340373   237    2.365784   238    2.382625  
     239    2.396720   240    2.400340   241    2.403517  
     242    2.420595   243    2.436993   244    2.449880  
     245    2.475363   246    2.501479   247    2.519957  
     248    2.529697   249    2.560196   250    2.574381  
     251    2.583613   252    2.606723   253    2.635517  
     254    2.649108   255    2.658257   256    2.671487  
     257    2.701107   258    2.721050   259    2.738539  
     260    2.761202   261    2.784336   262    2.803622  
     263    2.836441   264    2.838569   265    2.855185  
     266    2.862412   267    2.872747   268    2.876322  
     269    2.883518   270    2.885381   271    2.901967  
     272    2.905693   273    2.924175   274    2.943344  
     275    2.961271   276    2.981434   277    3.048724  
     278    3.057704   279    3.081329   280    3.115527  
     281    3.127469   282    3.186706   283    3.226406  
     284    3.287412   285    3.317171   286    3.408768  
     287    3.449085   288    3.583252   289    3.613904  
     290    3.688364   291    3.748650   292    3.791274  
     293    3.874448   294    3.947142   295    3.965911  
     296    4.080005   297    4.144251   298    4.202816  
     299    4.440594   300    4.512618   301    4.554696  
     302    4.761541   303    4.933307   304    5.040757  
     305    5.067436   306    5.186111   307    5.321708  
     308    5.516518   309    5.644315   310    5.743164  
     311    5.853765   312    6.105530   313    6.326266  
     314    6.701782   315   13.371972   316   18.425316  
     317   33.421032   318   33.474551  

  ==> SCF B: <==

    Maxiter =          50
    E Tol   =   1.000E-06
    D Tol   =   1.000E-08

    Max DIIS Vectors = 5

    Iter   N:                        E          dE         |D|
    Iter   1:  -2.2424742974042957E+02  -2.242E+02   3.460E-03 
    Iter   2:  -2.2425758984098439E+02  -1.016E-02   3.649E-04 DIIS
    Iter   3:  -2.2425796504163208E+02  -3.752E-04   9.328E-05 DIIS
    Iter   4:  -2.2425799596895072E+02  -3.093E-05   6.524E-05 DIIS
    Iter   5:  -2.2425800362800092E+02  -7.659E-06   1.080E-05 DIIS
    Iter   6:  -2.2425800405378266E+02  -4.258E-07   3.999E-06 DIIS
    Iter   7:  -2.2425800412453430E+02  -7.075E-08   2.234E-06 DIIS
    Iter   8:  -2.2425800414363775E+02  -1.910E-08   5.896E-07 DIIS
    Iter   9:  -2.2425800414671338E+02  -3.076E-09   3.296E-07 DIIS
    Iter  10:  -2.2425800414719711E+02  -4.837E-10   1.312E-07 DIIS
    Iter  11:  -2.2425800414726891E+02  -7.179E-11   4.398E-08 DIIS
    Iter  12:  -2.2425800414727297E+02  -4.064E-12   2.169E-08 DIIS
    Iter  13:  -2.2425800414727470E+02  -1.734E-12   1.271E-08 DIIS
    Iter  14:  -2.2425800414727516E+02  -4.547E-13   4.264E-09 DIIS

    FISAPTSCF Converged.

    Final SCF Energy:  -2.2425800414727516E+02 [Eh]

   => Occupied Orbital Energies <=

       1  -20.609776     2  -20.554301     3  -11.393227  
       4  -11.295726     5   -1.440998     6   -1.361123  
       7   -0.963902     8   -0.769045     9   -0.674281  
      10   -0.665197    11   -0.624350    12   -0.544486  
      13   -0.538549    14   -0.477451    15   -0.464125  

   => Virtual Orbital Energies <=

      16    0.011914    17    0.056266    18    0.060307  
      19    0.068022    20    0.073084    21    0.084403  
      22    0.088840    23    0.090789    24    0.093911  
      25    0.099448    26    0.104038    27    0.105601  
      28    0.114018    29    0.117288    30    0.119520  
      31    0.120402    32    0.133576    33    0.136946  
      34    0.141961    35    0.146176    36    0.151639  
      37    0.152209    38    0.163301    39    0.167376  
      40    0.177482    41    0.179609    42    0.183530  
      43    0.188478    44    0.192160    45    0.208324  
      46    0.212007    47    0.212955    48    0.220260  
      49    0.223797    50    0.231962    51    0.235398  
      52    0.239751    53    0.242604    54    0.251180  
      55    0.257092    56    0.259997    57    0.265828  
      58    0.267392    59    0.276044    60    0.286793  
      61    0.289906    62    0.292990    63    0.300308  
      64    0.306806    65    0.313377    66    0.316455  
      67    0.322704    68    0.332325    69    0.336832  
      70    0.338092    71    0.342419    72    0.351037  
      73    0.354028    74    0.356749    75    0.366011  
      76    0.367271    77    0.372765    78    0.376100  
      79    0.379167    80    0.384337    81    0.399095  
      82    0.402714    83    0.404620    84    0.416196  
      85    0.418407    86    0.423846    87    0.428402  
      88    0.435350    89    0.443204    90    0.450569  
      91    0.455176    92    0.458576    93    0.460979  
      94    0.467193    95    0.480514    96    0.490036  
      97    0.493397    98    0.503109    99    0.505082  
     100    0.517355   101    0.532961   102    0.546224  
     103    0.549589   104    0.572944   105    0.586408  
     106    0.592044   107    0.599334   108    0.613736  
     109    0.621845   110    0.627187   111    0.658568  
     112    0.671996   113    0.676666   114    0.725906  
     115    0.739956   116    0.769462   117    0.778413  
     118    0.782476   119    0.807680   120    0.824154  
     121    0.840241   122    0.844653   123    0.857293  
     124    0.869361   125    0.878546   126    0.884611  
     127    0.895584   128    0.902288   129    0.910846  
     130    0.920120   131    0.925336   132    0.929450  
     133    0.930121   134    0.940311   135    0.943809  
     136    0.950883   137    0.956313   138    0.959965  
     139    0.972448   140    0.974814   141    0.982993  
     142    1.005027   143    1.008115   144    1.016716  
     145    1.020153   146    1.029692   147    1.045059  
     148    1.049294   149    1.061230   150    1.079001  
     151    1.089329   152    1.103960   153    1.114596  
     154    1.117972   155    1.156775   156    1.159590  
     157    1.173465   158    1.204229   159    1.217494  
     160    1.230009   161    1.237332   162    1.253507  
     163    1.280988   164    1.283966   165    1.299305  
     166    1.312004   167    1.321610   168    1.333638  
     169    1.345989   170    1.353653   171    1.371771  
     172    1.379131   173    1.388436   174    1.404248  
     175    1.414433   176    1.455848   177    1.463795  
     178    1.483701   179    1.494606   180    1.502802  
     181    1.516533   182    1.535449   183    1.546887  
     184    1.560170   185    1.572485   186    1.579358  
     187    1.604063   188    1.613212   189    1.619036  
     190    1.625028   191    1.630403   192    1.634751  
     193    1.658917   194    1.661580   195    1.665181  
     196    1.679024   197    1.709006   198    1.715887  
     199    1.720081   200    1.731163   201    1.744830  
     202    1.763558   203    1.772412   204    1.778437  
     205    1.809319   206    1.818286   207    1.844290  
     208    1.862639   209    1.875654   210    1.880742  
     211    1.881810   212    1.899947   213    1.910589  
     214    1.913036   215    1.931199   216    1.941399  
     217    1.946563   218    1.949944   219    1.963369  
     220    1.968980   221    1.989520   222    1.993408  
     223    1.995190   224    2.005878   225    2.010136  
     226    2.016603   227    2.017008   228    2.028376  
     229    2.038528   230    2.040766   231    2.056191  
     232    2.065463   233    2.071488   234    2.086819  
     235    2.102125   236    2.127334   237    2.132643  
     238    2.154566   239    2.163107   240    2.174927  
     241    2.185520   242    2.198195   243    2.221998  
     244    2.229637   245    2.240839   246    2.263510  
     247    2.278490   248    2.306629   249    2.331542  
     250    2.333661   251    2.358531   252    2.371598  
     253    2.385264   254    2.391457   255    2.400141  
     256    2.414570   257    2.422413   258    2.429465  
     259    2.431251   260    2.454748   261    2.469656  
     262    2.518496   263    2.531739   264    2.551032  
     265    2.563575   266    2.566596   267    2.606902  
     268    2.631079   269    2.639777   270    2.668430  
     271    2.690214   272    2.732455   273    2.747700  
     274    2.765049   275    2.784311   276    2.798002  
     277    2.809743   278    2.816054   279    2.844109  
     280    2.860798   281    2.866644   282    2.872344  
     283    2.877664   284    2.896456   285    2.907531  
     286    2.917402   287    2.927775   288    2.944066  
     289    2.987558   290    3.014241   291    3.063437  
     292    3.094928   293    3.103203   294    3.123498  
     295    3.135718   296    3.206038   297    3.243895  
     298    3.273162   299    3.277478   300    3.294522  
     301    3.323094   302    3.389910   303    3.436650  
     304    3.567368   305    3.572441   306    3.632259  
     307    3.679104   308    3.692389   309    3.766900  
     310    3.816934   311    3.924839   312    3.956871  
     313    4.055980   314    4.077699   315    4.095929  
     316    4.497343   317    4.547393   318   13.282736  

  ==> Frozen Core <==


    ------------------
    Range      A     B
    ------------------
    nbf      358   358
    nmo      318   318
    nocc       4    15
    nvir     314   303
    nfocc      1     4
    naocc      3    11
    navir    314   303
    nfvir      0     0
    ------------------

  ==> Unification <==

  ==> dHF <==

    E ABC(HF) =  -7.6212132142217547E+02 [Eh]
    E AC(0)   =  -5.3409156276185263E+02 [Eh]
    E BC(0)   =  -7.2200321555201367E+02 [Eh]
    E A(0)    =  -2.5017474692129273E+01 [Eh]
    E B(0)    =  -2.1265059584870968E+02 [Eh]
    E AC(HF)  =  -5.3408912551485867E+02 [Eh]
    E BC(HF)  =  -7.2199264114516996E+02 [Eh]
    E AB(HF)  =  -2.3763350812541231E+02 [Eh]
    E A(HF)   =  -2.5001242959952936E+01 [Eh]
    E B(HF)   =  -2.1263206654067810E+02 [Eh]
    E C       =  -4.9396064386263083E+02 [Eh]
    E HF      =   1.2813029059998371E-02 [Eh]

  ==> Electrostatics <==

    Elst10,r            =     0.009226777836 [Eh]

  ==> Exchange <==

    Exch10(S^2)         =     0.005111629875 [Eh]
    Exch10              =     0.005131545557 [Eh]

  ==> Induction <==

    Ind20,u (A<-B)      =    -0.001243991141 [Eh]
    Ind20,u (B<-A)      =    -0.000774596550 [Eh]
    Ind20,u             =    -0.002018587691 [Eh]
    Exch-Ind20,u (A<-B) =     0.000483953413 [Eh]
    Exch-Ind20,u (B<-A) =     0.000505244848 [Eh]
    Exch-Ind20,u        =     0.000989198262 [Eh]

  ==> CPHF Iterations <==

    Maxiter     =          50
    Convergence =   1.000E-08

    -----------------------------------------
    Iter   Monomer A    Monomer B    Time [s]
    -----------------------------------------
    1      1.473E-01    2.606E-01           1
    2      2.617E-02    9.442E-02           2
    3      6.248E-03    2.153E-02           3
    4      8.810E-04    9.849E-03           4
    5      1.074E-04    3.699E-03           5
    6      1.640E-05    1.577E-03           6
    7      2.306E-06    4.216E-04           6
    8      3.431E-07    1.700E-04           7
    9      3.814E-08    4.786E-05           8
    10     3.772E-09*   1.801E-05           9
    11     3.772E-09*   5.090E-06          10
    12     3.772E-09*   9.499E-07          10
    13     3.772E-09*   1.835E-07          11
    14     3.772E-09*   4.435E-08          11
    15     3.772E-09*   9.285E-09*         12
    -----------------------------------------

    Ind20,r (A<-B)      =    -0.001443662399 [Eh]
    Ind20,r (B<-A)      =    -0.000927640090 [Eh]
    Ind20,r             =    -0.002371302489 [Eh]
    Exch-Ind20,r (A<-B) =     0.000576989121 [Eh]
    Exch-Ind20,r (B<-A) =     0.000667787390 [Eh]
    Exch-Ind20,r        =     0.001244776511 [Eh]

  ==> F-SAPT Localization (IBO) <==

  Local Orbitals for Monomer A:

  ==> IBO Localizer 2 <==

    MinAO Basis = CC-PVTZ-MINAO
    Use Ghosts  =       FALSE
    Use Stars   =       FALSE
    Condition   =   1.000E-07
    Power       =           4
    Convergence =   1.000E-12
    Maxiter     =        1000

    @IBO Iter:                   Metric       Gradient
    @IBO    1:   1.0654879097656369E+00   3.738256E-02
    @IBO    2:   1.0837826260310903E+00   1.703116E-02
    @IBO    3:   1.0839912362010213E+00   1.330285E-04
    @IBO    4:   1.0839912486609300E+00   1.063563E-08
    @IBO    5:   1.0839912486609302E+00   5.680968E-12
    @IBO    6:   1.0839912486609302E+00   6.316596E-16

    IBO Localizer 2 converged.

  Local Orbitals for Monomer B:

  ==> IBO Localizer 2 <==

    MinAO Basis = CC-PVTZ-MINAO
    Use Ghosts  =       FALSE
    Use Stars   =       FALSE
    Condition   =   1.000E-07
    Power       =           4
    Convergence =   1.000E-12
    Maxiter     =        1000

    @IBO Iter:                   Metric       Gradient
    @IBO    1:   1.4798850789817113E+00   1.671517E+00
    @IBO    2:   1.6765906356429177E+00   9.458576E-01
    @IBO    3:   1.7091062380669824E+00   3.357958E-01
    @IBO    4:   1.7105500650877992E+00   4.442786E-03
    @IBO    5:   1.7105506353404469E+00   1.651514E-04
    @IBO    6:   1.7105506357059439E+00   2.939115E-06
    @IBO    7:   1.7105506357060904E+00   8.019300E-08
    @IBO    8:   1.7105506357060909E+00   1.887223E-09
    @IBO    9:   1.7105506357060909E+00   4.898802E-11
    @IBO   10:   1.7105506357060907E+00   1.475237E-12
    @IBO   11:   1.7105506357060909E+00   5.131510E-14

    IBO Localizer 2 converged.

  ==> F-SAPT Electrostatics <==

  ==> DFERI: Density Fitted 3-Index Tensors <==

    Schwarz cutoff =   0.000E+00
    J cutoff       =   1.000E-12
    Mem (GB)       =         628

   => Auxiliary Basis <=

  Basis Set: (JUN-CC-PVDZ AUX)
    Blend: JUN-CC-PVDZ-JKFIT
    Number of shells: 558
    Number of basis function: 1586
    Number of Cartesian functions: 1806
    Spherical Harmonics?: true
    Max angular momentum: 3

    Elst10,r            =     0.009226799065 [Eh]

  ==> F-SAPT Exchange <==

  ==> DFERI: Density Fitted 3-Index Tensors <==

    Schwarz cutoff =   0.000E+00
    J cutoff       =   1.000E-12
    Mem (GB)       =         628

   => Auxiliary Basis <=

  Basis Set: (JUN-CC-PVDZ AUX)
    Blend: JUN-CC-PVDZ-JKFIT
    Number of shells: 558
    Number of basis function: 1586
    Number of Cartesian functions: 1806
    Spherical Harmonics?: true
    Max angular momentum: 3

    Exch10(S^2)         =     0.005111616471 [Eh]

    Scaling F-SAPT Exch10(S^2) by   1.004E+00 to match Exch10

  ==> F-SAPT Induction <==

  ==> DFERI: Density Fitted 3-Index Tensors <==

    Schwarz cutoff =   0.000E+00
    J cutoff       =   1.000E-12
    Mem (GB)       =         628

   => Auxiliary Basis <=

  Basis Set: (JUN-CC-PVDZ AUX)
    Blend: JUN-CC-PVDZ-JKFIT
    Number of shells: 558
    Number of basis function: 1586
    Number of Cartesian functions: 1806
    Spherical Harmonics?: true
    Max angular momentum: 3

    Ind20,u (A<-B)      =    -0.001243991579 [Eh]
    Ind20,u (B<-A)      =    -0.000774597213 [Eh]
    Ind20,u             =    -0.002018588792 [Eh]
    Exch-Ind20,u (A<-B) =     0.000483953583 [Eh]
    Exch-Ind20,u (B<-A) =     0.000505245062 [Eh]
    Exch-Ind20,u        =     0.000989198645 [Eh]

    Scaling for delta HF        =   1.372E+00
    Scaling for response (A<-B) =   1.140E+00
    Scaling for response (B<-A) =   9.647E-01
    Scaling for total (A<-B)    =   1.564E+00
    Scaling for total (B<-A)    =   1.323E+00

  ==> F-SAPT Dispersion <==

  ==> DFERI: Density Fitted 3-Index Tensors <==

    Schwarz cutoff =   0.000E+00
    J cutoff       =   1.000E-12
    Mem (GB)       =         628

   => Auxiliary Basis <=

  Basis Set: (JUN-CC-PVDZ AUX)
    Blend: JUN-CC-PVDZ-RI
    Number of shells: 420
    Number of basis function: 1236
    Number of Cartesian functions: 1426
    Spherical Harmonics?: true
    Max angular momentum: 3

    Disp20              =    -0.002566993441 [Eh]
    Exch-Disp20         =     0.000361385368 [Eh]

  ==> F-SAPT Output <==

    F-SAPT Data Filepath = fsapt/

  ==> Results <==


    SAPT Results  
  --------------------------------------------------------------------------------------------------------
    Electrostatics                  9.22677784 [mEh]       5.78989075 [kcal/mol]      24.22490521 [kJ/mol]
      Elst10,r                      9.22677784 [mEh]       5.78989075 [kcal/mol]      24.22490521 [kJ/mol]

    Exchange                        5.13154556 [mEh]       3.22009359 [kcal/mol]      13.47287286 [kJ/mol]
      Exch10                        5.13154556 [mEh]       3.22009359 [kcal/mol]      13.47287286 [kJ/mol]
      Exch10(S^2)                   5.11162987 [mEh]       3.20759631 [kcal/mol]      13.42058424 [kJ/mol]

    Induction                      -1.54529433 [mEh]      -0.96968687 [kcal/mol]      -4.05717027 [kJ/mol]
      Ind20,r                      -2.37130249 [mEh]      -1.48801484 [kcal/mol]      -6.22585468 [kJ/mol]
      Exch-Ind20,r                  1.24477651 [mEh]       0.78110909 [kcal/mol]       3.26816073 [kJ/mol]
      delta HF,r (2)               -0.41876835 [mEh]      -0.26278112 [kcal/mol]      -1.09947631 [kJ/mol]
      Induction (A<-B)             -1.18884547 [mEh]      -0.74601183 [kcal/mol]      -3.12131378 [kJ/mol]
      Induction (B<-A)             -0.35644886 [mEh]      -0.22367505 [kcal/mol]      -0.93585649 [kJ/mol]

    Dispersion                     -2.20560807 [mEh]      -1.38404002 [kcal/mol]      -5.79082399 [kJ/mol]
      Disp20                       -2.56699344 [mEh]      -1.61081277 [kcal/mol]      -6.73964128 [kJ/mol]
      Exch-Disp20                   0.36138537 [mEh]       0.22677275 [kcal/mol]       0.94881728 [kJ/mol]

  Total HF                         12.81302906 [mEh]       8.04029746 [kcal/mol]      33.64060780 [kJ/mol]
  Total SAPT0                      10.60742099 [mEh]       6.65625744 [kcal/mol]      27.84978380 [kJ/mol]

  --------------------------------------------------------------------------------------------------------
    Han Solo: This is *not* gonna work.
    Luke Skywalker: Why didn't you say so before?
    Han Solo: I *did* say so before.

*** tstop() called on vega02.cac.cornell.edu at Thu Oct 19 09:26:05 2017
Module time:
	user time   =    1786.50 seconds =      29.77 minutes
	system time =      11.10 seconds =       0.19 minutes
	total time  =         69 seconds =       1.15 minutes
Total time:
	user time   =    2499.29 seconds =      41.65 minutes
	system time =      17.12 seconds =       0.29 minutes
	total time  =        101 seconds =       1.68 minutes

*** Psi4 exiting successfully. Buy a developer a beer!
