
    -----------------------------------------------------------------------
          Psi4: An Open-Source Ab Initio Electronic Structure Package
                               Psi4 1.1 release

                         Git: Rev {HEAD} add49b9 


    R. M. Parrish, L. A. Burns, D. G. A. Smith, A. C. Simmonett,
    A. E. DePrince III, E. G. Hohenstein, U. Bozkaya, A. Yu. Sokolov,
    R. Di Remigio, R. M. Richard, J. F. Gonthier, A. M. James,
    H. R. McAlexander, A. Kumar, M. Saitow, X. Wang, B. P. Pritchard,
    P. Verma, H. F. Schaefer III, K. Patkowski, R. A. King, E. F. Valeev,
    F. A. Evangelista, J. M. Turney, T. D. Crawford, and C. D. Sherrill,
    J. Chem. Theory Comput. in press (2017).
    (doi: 10.1021/acs.jctc.7b00174)

    -----------------------------------------------------------------------


    Psi4 started on: Thursday, 19 October 2017 09:26AM

    Process ID:  19103
    PSIDATADIR: /opt/software/psi4/psi4conda/share/psi4
    Memory:     500.0 MiB
    Threads:    48
    
  ==> Input File <==

--------------------------------------------------------------------------
memory 750000 mb

molecule mol {
0 1
C         -1.78103       -2.92226       -0.24590
H         -2.80572       -3.28175       -0.13627
H         -1.39752       -3.25223       -1.21323
H         -1.16958       -3.40777        0.51926
--
0 1
C          0.74969       -1.43776       -0.09374
O          1.04702       -2.28405       -0.90088
O          1.53645       -1.09176        0.94813
C          2.82316       -1.73208        1.00475
H          3.39889       -1.50934        0.10459
H          3.31095       -1.32281        1.88650
H          2.70778       -2.81319        1.09555
--
0 1
C         -0.54444       -0.68370       -0.06689
C         -0.55709        0.71878        0.05493
C         -1.74320       -1.41616       -0.12552
C         -2.93952       -0.70056       -0.05285
C         -2.95313        0.68255        0.06934
C         -1.77161        1.42404        0.12810
H         -3.90354        1.20325        0.11710
H         -3.87892       -1.24211       -0.08988
C         -1.83960        2.92746        0.24839
H         -1.45503        3.26427        1.21284
H         -1.24214        3.42352       -0.52065
H         -2.87211        3.26623        0.14638
C          0.72843        1.48436        0.06598
O          1.01035        2.37097        0.83478
O          1.53784        1.08301       -0.93877
C          2.83449        1.70121       -0.99358
H          2.73835        2.77989       -1.12464
H          3.38998        1.50093       -0.07544
H          3.33184        1.25269       -1.85067

symmetry c1
no_reorient
no_com
}

set {
basis jun-cc-pvdz
scf_type df
guess sad
freeze_core true
}

energy('fisapt0')
--------------------------------------------------------------------------

  Memory set to 698.492 GiB by Python driver.

*** tstart() called on vega02.cac.cornell.edu
*** at Thu Oct 19 09:26:05 2017

   => Loading Basis Set <=

    Name: JUN-CC-PVDZ
    Role: ORBITAL
    Keyword: BASIS
    atoms 1, 5, 8, 12-17, 20, 24, 27     entry C          line   157 file /opt/software/psi4/psi4conda/share/psi4/basis/jun-cc-pvdz.gbs 
    atoms 2-4, 9-11, 18-19, 21-23, 28-30 entry H          line    35 file /opt/software/psi4/psi4conda/share/psi4/basis/jun-cc-pvdz.gbs 
    atoms 6-7, 25-26                     entry O          line   225 file /opt/software/psi4/psi4conda/share/psi4/basis/jun-cc-pvdz.gbs 


         ---------------------------------------------------------
                                   SCF
            by Justin Turney, Rob Parrish, and Andy Simmonett
                              RHF Reference
                       48 Threads, 715255 MiB Core
         ---------------------------------------------------------

  ==> Geometry <==

    Molecular point group: c1
    Full point group: C1

    Geometry (in Angstrom), charge = 0, multiplicity = 1:

       Center              X                  Y                   Z               Mass       
    ------------   -----------------  -----------------  -----------------  -----------------
           C         -1.781030000000    -2.922260000000    -0.245900000000    12.000000000000
           H         -2.805720000000    -3.281750000000    -0.136270000000     1.007825032070
           H         -1.397520000000    -3.252230000000    -1.213230000000     1.007825032070
           H         -1.169580000000    -3.407770000000     0.519260000000     1.007825032070
           C          0.749690000000    -1.437760000000    -0.093740000000    12.000000000000
           O          1.047020000000    -2.284050000000    -0.900880000000    15.994914619560
           O          1.536450000000    -1.091760000000     0.948130000000    15.994914619560
           C          2.823160000000    -1.732080000000     1.004750000000    12.000000000000
           H          3.398890000000    -1.509340000000     0.104590000000     1.007825032070
           H          3.310950000000    -1.322810000000     1.886500000000     1.007825032070
           H          2.707780000000    -2.813190000000     1.095550000000     1.007825032070
           C         -0.544440000000    -0.683700000000    -0.066890000000    12.000000000000
           C         -0.557090000000     0.718780000000     0.054930000000    12.000000000000
           C         -1.743200000000    -1.416160000000    -0.125520000000    12.000000000000
           C         -2.939520000000    -0.700560000000    -0.052850000000    12.000000000000
           C         -2.953130000000     0.682550000000     0.069340000000    12.000000000000
           C         -1.771610000000     1.424040000000     0.128100000000    12.000000000000
           H         -3.903540000000     1.203250000000     0.117100000000     1.007825032070
           H         -3.878920000000    -1.242110000000    -0.089880000000     1.007825032070
           C         -1.839600000000     2.927460000000     0.248390000000    12.000000000000
           H         -1.455030000000     3.264270000000     1.212840000000     1.007825032070
           H         -1.242140000000     3.423520000000    -0.520650000000     1.007825032070
           H         -2.872110000000     3.266230000000     0.146380000000     1.007825032070
           C          0.728430000000     1.484360000000     0.065980000000    12.000000000000
           O          1.010350000000     2.370970000000     0.834780000000    15.994914619560
           O          1.537840000000     1.083010000000    -0.938770000000    15.994914619560
           C          2.834490000000     1.701210000000    -0.993580000000    12.000000000000
           H          2.738350000000     2.779890000000    -1.124640000000     1.007825032070
           H          3.389980000000     1.500930000000    -0.075440000000     1.007825032070
           H          3.331840000000     1.252690000000    -1.850670000000     1.007825032070

  Running in c1 symmetry.

  Rotational constants: A =      0.02120  B =      0.01896  C =      0.01123 [cm^-1]
  Rotational constants: A =    635.67058  B =    568.40897  C =    336.73028 [MHz]
  Nuclear repulsion = 1146.506011940808548

  Charge       = 0
  Multiplicity = 1
  Electrons    = 118
  Nalpha       = 59
  Nbeta        = 59

  ==> Algorithm <==

  SCF Algorithm Type is DF.
  DIIS enabled.
  MOM disabled.
  Fractional occupation disabled.
  Guess Type is SAD.
  Energy threshold   = 1.00e-08
  Density threshold  = 1.00e-08
  Integral threshold = 0.00e+00

  ==> Primary Basis <==

  Basis Set: JUN-CC-PVDZ
    Blend: JUN-CC-PVDZ
    Number of shells: 170
    Number of basis function: 358
    Number of Cartesian functions: 374
    Spherical Harmonics?: true
    Max angular momentum: 2

   => Loading Basis Set <=

    Name: (JUN-CC-PVDZ AUX)
    Role: JKFIT
    Keyword: DF_BASIS_SCF
    atoms 1, 5, 8, 12-17, 20, 24, 27     entry C          line   145 file /opt/software/psi4/psi4conda/share/psi4/basis/jun-cc-pvdz-jkfit.gbs 
    atoms 2-4, 9-11, 18-19, 21-23, 28-30 entry H          line    69 file /opt/software/psi4/psi4conda/share/psi4/basis/jun-cc-pvdz-jkfit.gbs 
    atoms 6-7, 25-26                     entry O          line   257 file /opt/software/psi4/psi4conda/share/psi4/basis/jun-cc-pvdz-jkfit.gbs 

  ==> Pre-Iterations <==

   -------------------------------------------------------
    Irrep   Nso     Nmo     Nalpha   Nbeta   Ndocc  Nsocc
   -------------------------------------------------------
     A        358     358       0       0       0       0
   -------------------------------------------------------
    Total     358     358      59      59      59       0
   -------------------------------------------------------

  ==> Integral Setup <==

  ==> DFJK: Density-Fitted J/K Matrices <==

    J tasked:                  Yes
    K tasked:                  Yes
    wK tasked:                  No
    OpenMP threads:             48
    Integrals threads:          48
    Memory (MB):            536441
    Algorithm:                Core
    Integral Cache:           NONE
    Schwarz Cutoff:          1E-12
    Fitting Condition:       1E-12

   => Auxiliary Basis Set <=

  Basis Set: (JUN-CC-PVDZ AUX)
    Blend: JUN-CC-PVDZ-JKFIT
    Number of shells: 558
    Number of basis function: 1586
    Number of Cartesian functions: 1806
    Spherical Harmonics?: true
    Max angular momentum: 3

  Minimum eigenvalue in the overlap matrix is 3.3134102024E-06.
  Using Symmetric Orthogonalization.

  SCF Guess: Superposition of Atomic Densities via on-the-fly atomic UHF.

  ==> Iterations <==

                           Total Energy        Delta E     RMS |[F,P]|

   @DF-RHF iter   0:  -769.67461167658701   -7.69675e+02   1.52671e-01 
   @DF-RHF iter   1:  -761.61359662997927    8.06102e+00   8.94071e-03 
   @DF-RHF iter   2:  -761.97450653896328   -3.60910e-01   6.47682e-03 DIIS
   @DF-RHF iter   3:  -762.09483972758585   -1.20333e-01   3.13881e-03 DIIS
   @DF-RHF iter   4:  -762.11788768212023   -2.30480e-02   6.89921e-04 DIIS
   @DF-RHF iter   5:  -762.12068990198247   -2.80222e-03   2.79179e-04 DIIS
   @DF-RHF iter   6:  -762.12123972263248   -5.49821e-04   1.31418e-04 DIIS
   @DF-RHF iter   7:  -762.12131316508987   -7.34425e-05   3.51444e-05 DIIS
   @DF-RHF iter   8:  -762.12131989478235   -6.72969e-06   1.56705e-05 DIIS
   @DF-RHF iter   9:  -762.12132116269515   -1.26791e-06   4.87799e-06 DIIS
   @DF-RHF iter  10:  -762.12132138659956   -2.23904e-07   2.24492e-06 DIIS
   @DF-RHF iter  11:  -762.12132142049120   -3.38916e-08   7.07336e-07 DIIS
   @DF-RHF iter  12:  -762.12132142618964   -5.69844e-09   3.36652e-07 DIIS
   @DF-RHF iter  13:  -762.12132142751852   -1.32889e-09   1.12309e-07 DIIS
   @DF-RHF iter  14:  -762.12132142783412   -3.15595e-10   4.75646e-08 DIIS
   @DF-RHF iter  15:  -762.12132142788948   -5.53655e-11   2.45811e-08 DIIS
   @DF-RHF iter  16:  -762.12132142789915   -9.66338e-12   9.86493e-09 DIIS

  ==> Post-Iterations <==

    Orbital Energies (a.u.)
    -----------------------

    Doubly Occupied:                                                      

       1A    -20.614471     2A    -20.614377     3A    -20.559695  
       4A    -20.559114     5A    -11.397640     6A    -11.397494  
       7A    -11.298742     8A    -11.298634     9A    -11.271320  
      10A    -11.270091    11A    -11.265508    12A    -11.264958  
      13A    -11.253141    14A    -11.251770    15A    -11.234132  
      16A    -11.233540    17A     -1.474234    18A     -1.466453  
      19A     -1.370012    20A     -1.369377    21A     -1.183859  
      22A     -1.084796    23A     -1.066607    24A     -0.992957  
      25A     -0.987395    26A     -0.970260    27A     -0.915234  
      28A     -0.879412    29A     -0.836815    30A     -0.782848  
      31A     -0.769995    32A     -0.728158    33A     -0.709431  
      34A     -0.700247    35A     -0.683124    36A     -0.678468  
      37A     -0.658603    38A     -0.657291    39A     -0.643517  
      40A     -0.609517    41A     -0.588781    42A     -0.587668  
      43A     -0.571699    44A     -0.569557    45A     -0.562890  
      46A     -0.554242    47A     -0.545154    48A     -0.537876  
      49A     -0.537425    50A     -0.532202    51A     -0.518071  
      52A     -0.507250    53A     -0.488238    54A     -0.469048  
      55A     -0.463676    56A     -0.455476    57A     -0.448562  
      58A     -0.353312    59A     -0.330977  

    Virtual:                                                              

      60A      0.053801    61A      0.056781    62A      0.059140  
      63A      0.068368    64A      0.075516    65A      0.076742  
      66A      0.086442    67A      0.092134    68A      0.093154  
      69A      0.099395    70A      0.106274    71A      0.112071  
      72A      0.114747    73A      0.117697    74A      0.121040  
      75A      0.121368    76A      0.136099    77A      0.138684  
      78A      0.144841    79A      0.149378    80A      0.151504  
      81A      0.158879    82A      0.164159    83A      0.174836  
      84A      0.176916    85A      0.179127    86A      0.187251  
      87A      0.188286    88A      0.204209    89A      0.206101  
      90A      0.209073    91A      0.212591    92A      0.218515  
      93A      0.228326    94A      0.229834    95A      0.234743  
      96A      0.235723    97A      0.247788    98A      0.248417  
      99A      0.256815   100A      0.260744   101A      0.263949  
     102A      0.272343   103A      0.272706   104A      0.281290  
     105A      0.288506   106A      0.293341   107A      0.300198  
     108A      0.301962   109A      0.320583   110A      0.321926  
     111A      0.324176   112A      0.325507   113A      0.329917  
     114A      0.337031   115A      0.339705   116A      0.350187  
     117A      0.351543   118A      0.354142   119A      0.356718  
     120A      0.363140   121A      0.365632   122A      0.378529  
     123A      0.385175   124A      0.393048   125A      0.396720  
     126A      0.398941   127A      0.399184   128A      0.404128  
     129A      0.418849   130A      0.427699   131A      0.430041  
     132A      0.438619   133A      0.440270   134A      0.445759  
     135A      0.446674   136A      0.454692   137A      0.457665  
     138A      0.469946   139A      0.475492   140A      0.481054  
     141A      0.488864   142A      0.507677   143A      0.509056  
     144A      0.514739   145A      0.519716   146A      0.532514  
     147A      0.547563   148A      0.566696   149A      0.573498  
     150A      0.599191   151A      0.602020   152A      0.615405  
     153A      0.627483   154A      0.659482   155A      0.702462  
     156A      0.715837   157A      0.753692   158A      0.756821  
     159A      0.766847   160A      0.770903   161A      0.788036  
     162A      0.815431   163A      0.825395   164A      0.826963  
     165A      0.834051   166A      0.844940   167A      0.870678  
     168A      0.872430   169A      0.872942   170A      0.892228  
     171A      0.894556   172A      0.901300   173A      0.904974  
     174A      0.911626   175A      0.917098   176A      0.919386  
     177A      0.920689   178A      0.924499   179A      0.930936  
     180A      0.944577   181A      0.948925   182A      0.951089  
     183A      0.955585   184A      0.965852   185A      0.966396  
     186A      0.972065   187A      0.973597   188A      0.990312  
     189A      0.995860   190A      1.006538   191A      1.011022  
     192A      1.019000   193A      1.026018   194A      1.038038  
     195A      1.040619   196A      1.071126   197A      1.074274  
     198A      1.084275   199A      1.111008   200A      1.112642  
     201A      1.134342   202A      1.144647   203A      1.147912  
     204A      1.165908   205A      1.183249   206A      1.204425  
     207A      1.206675   208A      1.228557   209A      1.230621  
     210A      1.261138   211A      1.276344   212A      1.277957  
     213A      1.287471   214A      1.303976   215A      1.322150  
     216A      1.322714   217A      1.341224   218A      1.357027  
     219A      1.368160   220A      1.369010   221A      1.382898  
     222A      1.438466   223A      1.448232   224A      1.452695  
     225A      1.493967   226A      1.505419   227A      1.509003  
     228A      1.544141   229A      1.546659   230A      1.553468  
     231A      1.557198   232A      1.571147   233A      1.599876  
     234A      1.605427   235A      1.607323   236A      1.613228  
     237A      1.621191   238A      1.624480   239A      1.639841  
     240A      1.656665   241A      1.671595   242A      1.695125  
     243A      1.702692   244A      1.708313   245A      1.711815  
     246A      1.724073   247A      1.734623   248A      1.757589  
     249A      1.761292   250A      1.786229   251A      1.804323  
     252A      1.815433   253A      1.816699   254A      1.832696  
     255A      1.873678   256A      1.881764   257A      1.891375  
     258A      1.898532   259A      1.906587   260A      1.917988  
     261A      1.925231   262A      1.937074   263A      1.940617  
     264A      1.947375   265A      1.953301   266A      1.975173  
     267A      1.978016   268A      1.983408   269A      1.985105  
     270A      1.999138   271A      2.002436   272A      2.014112  
     273A      2.016474   274A      2.025233   275A      2.029900  
     276A      2.034707   277A      2.041157   278A      2.052574  
     279A      2.059001   280A      2.092681   281A      2.105389  
     282A      2.117061   283A      2.119564   284A      2.129705  
     285A      2.145112   286A      2.170279   287A      2.176081  
     288A      2.186260   289A      2.216851   290A      2.217305  
     291A      2.237547   292A      2.250492   293A      2.288865  
     294A      2.303951   295A      2.315648   296A      2.343815  
     297A      2.362076   298A      2.366187   299A      2.382499  
     300A      2.386264   301A      2.400192   302A      2.421954  
     303A      2.427180   304A      2.431930   305A      2.437027  
     306A      2.451755   307A      2.507977   308A      2.521903  
     309A      2.540320   310A      2.547259   311A      2.569323  
     312A      2.580840   313A      2.588021   314A      2.639824  
     315A      2.661225   316A      2.664078   317A      2.730445  
     318A      2.747769   319A      2.766310   320A      2.794931  
     321A      2.808265   322A      2.820733   323A      2.849987  
     324A      2.855473   325A      2.869159   326A      2.869284  
     327A      2.879303   328A      2.882330   329A      2.906598  
     330A      2.911621   331A      2.921097   332A      2.937076  
     333A      2.972281   334A      2.986828   335A      3.036238  
     336A      3.057162   337A      3.080146   338A      3.098366  
     339A      3.119658   340A      3.144191   341A      3.195529  
     342A      3.268335   343A      3.269003   344A      3.285370  
     345A      3.317721   346A      3.383039   347A      3.427442  
     348A      3.562501   349A      3.584255   350A      3.654109  
     351A      3.681059   352A      3.746674   353A      3.761375  
     354A      3.811539   355A      3.942779   356A      3.951648  
     357A      4.067290   358A      4.074360  

    Final Occupation by Irrep:
              A 
    DOCC [    59 ]

  Energy converged.

  @DF-RHF Final Energy:  -762.12132142789915

   => Energetics <=

    Nuclear Repulsion Energy =           1146.5060119408085484
    One-Electron Energy =               -3318.0039882617220428
    Two-Electron Energy =                1409.3766548930143472
    DFT Exchange-Correlation Energy =       0.0000000000000000
    Empirical Dispersion Energy =           0.0000000000000000
    PCM Polarization Energy =               0.0000000000000000
    EFP Energy =                            0.0000000000000000
    Total Energy =                       -762.1213214278991472



Properties will be evaluated at   0.000000,   0.000000,   0.000000 Bohr

Properties computed using the SCF density matrix

  Nuclear Dipole Moment: (a.u.)
     X:    -1.4297      Y:     1.4404      Z:    -0.8020

  Electronic Dipole Moment: (a.u.)
     X:     1.3739      Y:    -1.4846      Z:     0.8305

  Dipole Moment: (a.u.)
     X:    -0.0558      Y:    -0.0442      Z:     0.0285     Total:     0.0767

  Dipole Moment: (Debye)
     X:    -0.1419      Y:    -0.1123      Z:     0.0724     Total:     0.1949


*** tstop() called on vega02.cac.cornell.edu at Thu Oct 19 09:26:36 2017
Module time:
	user time   =     672.09 seconds =      11.20 minutes
	system time =       5.48 seconds =       0.09 minutes
	total time  =         31 seconds =       0.52 minutes
Total time:
	user time   =     672.09 seconds =      11.20 minutes
	system time =       5.48 seconds =       0.09 minutes
	total time  =         31 seconds =       0.52 minutes
   => Loading Basis Set <=

    Name: (JUN-CC-PVDZ AUX)
    Role: JKFIT
    Keyword: DF_BASIS_SCF
    atoms 1, 5, 8, 12-17, 20, 24, 27     entry C          line   145 file /opt/software/psi4/psi4conda/share/psi4/basis/jun-cc-pvdz-jkfit.gbs 
    atoms 2-4, 9-11, 18-19, 21-23, 28-30 entry H          line    69 file /opt/software/psi4/psi4conda/share/psi4/basis/jun-cc-pvdz-jkfit.gbs 
    atoms 6-7, 25-26                     entry O          line   257 file /opt/software/psi4/psi4conda/share/psi4/basis/jun-cc-pvdz-jkfit.gbs 

   => Loading Basis Set <=

    Name: (JUN-CC-PVDZ AUX)
    Role: RIFIT
    Keyword: DF_BASIS_SAPT
    atoms 1, 5, 8, 12-17, 20, 24, 27     entry C          line    99 file /opt/software/psi4/psi4conda/share/psi4/basis/jun-cc-pvdz-ri.gbs 
    atoms 2-4, 9-11, 18-19, 21-23, 28-30 entry H          line    29 file /opt/software/psi4/psi4conda/share/psi4/basis/jun-cc-pvdz-ri.gbs 
    atoms 6-7, 25-26                     entry O          line   187 file /opt/software/psi4/psi4conda/share/psi4/basis/jun-cc-pvdz-ri.gbs 

   => Loading Basis Set <=

    Name: CC-PVTZ-MINAO
    Role: ORBITAL
    Keyword: BASIS
    atoms 1, 5, 8, 12-17, 20, 24, 27     entry C          line   130 file /opt/software/psi4/psi4conda/share/psi4/basis/cc-pvtz-minao.gbs 
    atoms 2-4, 9-11, 18-19, 21-23, 28-30 entry H          line    19 file /opt/software/psi4/psi4conda/share/psi4/basis/cc-pvtz-minao.gbs 
    atoms 6-7, 25-26                     entry O          line   190 file /opt/software/psi4/psi4conda/share/psi4/basis/cc-pvtz-minao.gbs 


*** tstart() called on vega02.cac.cornell.edu
*** at Thu Oct 19 09:26:37 2017

	 --------------------------------------------
	                    FISAPT0                  
	                  Rob Parrish                
	 --------------------------------------------

    Do F-SAPT =         Yes
    Do Plot   =          No
    Memory    =      78.580 [GD]

  ==> Localization (IBO) <==

  ==> IBO Localizer 2 <==

    MinAO Basis = CC-PVTZ-MINAO
    Use Ghosts  =       FALSE
    Use Stars   =       FALSE
    Condition   =   1.000E-07
    Power       =           4
    Convergence =   1.000E-12
    Maxiter     =        1000

    @IBO Iter:                   Metric       Gradient
    @IBO    1:   1.8955799772266222E+00   2.747364E+00
    @IBO    2:   2.2089762065724514E+00   1.987217E+00
    @IBO    3:   2.2803818625945507E+00   8.953763E-01
    @IBO    4:   2.2877991577585224E+00   1.708358E-01
    @IBO    5:   2.2879570974601289E+00   5.003018E-03
    @IBO    6:   2.2879581103684292E+00   1.034147E-03
    @IBO    7:   2.2879581671641982E+00   2.578265E-04
    @IBO    8:   2.2879581707552110E+00   6.593866E-05
    @IBO    9:   2.2879581709899672E+00   1.720540E-05
    @IBO   10:   2.2879581710059353E+00   4.561021E-06
    @IBO   11:   2.2879581710070571E+00   1.224178E-06
    @IBO   12:   2.2879581710071379E+00   3.321604E-07
    @IBO   13:   2.2879581710071442E+00   9.101360E-08
    @IBO   14:   2.2879581710071446E+00   2.515966E-08
    @IBO   15:   2.2879581710071446E+00   7.009593E-09
    @IBO   16:   2.2879581710071446E+00   1.966010E-09
    @IBO   17:   2.2879581710071446E+00   5.544924E-10
    @IBO   18:   2.2879581710071442E+00   1.570960E-10
    @IBO   19:   2.2879581710071446E+00   4.466735E-11
    @IBO   20:   2.2879581710071446E+00   1.273593E-11
    @IBO   21:   2.2879581710071442E+00   3.639239E-12
    @IBO   22:   2.2879581710071442E+00   1.041618E-12
    @IBO   23:   2.2879581710071442E+00   2.984896E-13

    IBO Localizer 2 converged.

  ==> Partitioning <==

   => Atomic Partitioning <= 

    Monomer A:   4 atoms
    Monomer B:   7 atoms
    Monomer C:  19 atoms

   => Link Bond Identification <=

    Link Bond Selection = AUTOMATIC

    Charge Completeness = 0.800

    Total Link Bonds = 2

    --------------------------
    N     Orb Type Aind1 Aind2
    --------------------------
    1      27   BC     5    12
    2      48   AC     1    14
    --------------------------

   => Link Bond Assignment <=

    Link Bond Assignment      = C

   => Partition Summary <=

    Monomer A:  0 charge,   8 protons,   8 electrons,   4 docc
    Monomer B:  0 charge,  30 protons,  30 electrons,  15 docc
    Monomer C:  0 charge,  80 protons,  80 electrons,  40 docc

  ==> Overlap Integrals <==

  ==> Kinetic Integrals <==

  ==> Nuclear Integrals <==

    Nuclear Repulsion Tot:   1.1465060119408090E+03 [Eh]

  ==> Coulomb Integrals <==

  ==> DFJK: Density-Fitted J/K Matrices <==

    J tasked:                  Yes
    K tasked:                  Yes
    wK tasked:                  No
    OpenMP threads:             48
    Integrals threads:          48
    Memory (MB):            643730
    Algorithm:                Core
    Integral Cache:           NONE
    Schwarz Cutoff:          1E-12
    Fitting Condition:       1E-12

   => Auxiliary Basis Set <=

  Basis Set: (JUN-CC-PVDZ AUX)
    Blend: JUN-CC-PVDZ-JKFIT
    Number of shells: 558
    Number of basis function: 1586
    Number of Cartesian functions: 1806
    Spherical Harmonics?: true
    Max angular momentum: 3

  ==> Relaxed SCF Equations <==

  ==> SCF A: <==

    Maxiter =          50
    E Tol   =   1.000E-06
    D Tol   =   1.000E-08

    Max DIIS Vectors = 5

    Iter   N:                        E          dE         |D|
    Iter   1:  -3.6316428044712445E+01  -3.632E+01   1.424E-03 
    Iter   2:  -3.6318580876031120E+01  -2.153E-03   1.093E-04 DIIS
    Iter   3:  -3.6318641250657762E+01  -6.037E-05   3.792E-05 DIIS
    Iter   4:  -3.6318645117151632E+01  -3.866E-06   9.975E-06 DIIS
    Iter   5:  -3.6318645361606670E+01  -2.445E-07   1.791E-06 DIIS
    Iter   6:  -3.6318645371539539E+01  -9.933E-09   2.543E-07 DIIS
    Iter   7:  -3.6318645371758642E+01  -2.191E-10   3.138E-08 DIIS
    Iter   8:  -3.6318645371762209E+01  -3.567E-12   3.938E-09 DIIS

    FISAPTSCF Converged.

    Final SCF Energy:  -3.6318645371762209E+01 [Eh]

   => Occupied Orbital Energies <=

       1  -11.234364     2   -0.849419     3   -0.557701  
       4   -0.554110  

   => Virtual Orbital Energies <=

       5    0.032943     6    0.052693     7    0.060940  
       8    0.065062     9    0.070801    10    0.078894  
      11    0.086189    12    0.092257    13    0.098910  
      14    0.099556    15    0.105359    16    0.107719  
      17    0.115937    18    0.117331    19    0.119600  
      20    0.130761    21    0.135566    22    0.137316  
      23    0.141789    24    0.150574    25    0.152392  
      26    0.157141    27    0.164221    28    0.166668  
      29    0.170775    30    0.176243    31    0.180473  
      32    0.192532    33    0.200799    34    0.201636  
      35    0.204286    36    0.212402    37    0.221302  
      38    0.224849    39    0.231747    40    0.235009  
      41    0.240141    42    0.245293    43    0.252435  
      44    0.256285    45    0.259750    46    0.263058  
      47    0.270069    48    0.272916    49    0.283833  
      50    0.289365    51    0.294396    52    0.298459  
      53    0.302341    54    0.307167    55    0.316745  
      56    0.318860    57    0.326314    58    0.329085  
      59    0.332453    60    0.336533    61    0.343173  
      62    0.345115    63    0.350147    64    0.358373  
      65    0.363578    66    0.370764    67    0.371664  
      68    0.386173    69    0.389897    70    0.394950  
      71    0.399624    72    0.407660    73    0.411756  
      74    0.422805    75    0.427240    76    0.435959  
      77    0.438055    78    0.446582    79    0.453304  
      80    0.457040    81    0.469391    82    0.480537  
      83    0.484993    84    0.489630    85    0.491582  
      86    0.510823    87    0.516026    88    0.520290  
      89    0.541094    90    0.548342    91    0.551508  
      92    0.570785    93    0.576468    94    0.589240  
      95    0.604097    96    0.623979    97    0.627102  
      98    0.641296    99    0.658938   100    0.664467  
     101    0.691219   102    0.698723   103    0.745756  
     104    0.769816   105    0.774616   106    0.781144  
     107    0.788005   108    0.817702   109    0.822636  
     110    0.835877   111    0.843542   112    0.852981  
     113    0.868127   114    0.880775   115    0.893924  
     116    0.897575   117    0.909120   118    0.922993  
     119    0.927601   120    0.928767   121    0.936075  
     122    0.941122   123    0.944901   124    0.952163  
     125    0.958480   126    0.961022   127    0.964697  
     128    0.969497   129    0.980737   130    0.984556  
     131    0.992169   132    1.005922   133    1.009328  
     134    1.025313   135    1.033628   136    1.038230  
     137    1.053676   138    1.069463   139    1.079365  
     140    1.096625   141    1.109112   142    1.117196  
     143    1.121471   144    1.131705   145    1.152816  
     146    1.153908   147    1.173392   148    1.186631  
     149    1.203527   150    1.219141   151    1.223209  
     152    1.230463   153    1.243382   154    1.268290  
     155    1.274834   156    1.296020   157    1.303775  
     158    1.309865   159    1.331081   160    1.349400  
     161    1.353179   162    1.384473   163    1.392676  
     164    1.408498   165    1.446415   166    1.466213  
     167    1.509123   168    1.527088   169    1.540446  
     170    1.546506   171    1.570462   172    1.582914  
     173    1.587275   174    1.594707   175    1.599255  
     176    1.625265   177    1.627010   178    1.642612  
     179    1.664541   180    1.668514   181    1.682808  
     182    1.689697   183    1.709930   184    1.723794  
     185    1.729305   186    1.741135   187    1.755028  
     188    1.786363   189    1.800019   190    1.808880  
     191    1.822651   192    1.835979   193    1.840614  
     194    1.845909   195    1.862302   196    1.891749  
     197    1.898395   198    1.905175   199    1.925087  
     200    1.933365   201    1.941073   202    1.955183  
     203    1.972574   204    1.973155   205    1.987471  
     206    1.994859   207    2.002403   208    2.012222  
     209    2.015364   210    2.019808   211    2.034415  
     212    2.040172   213    2.050875   214    2.060420  
     215    2.072399   216    2.093971   217    2.100373  
     218    2.118691   219    2.122249   220    2.131397  
     221    2.136681   222    2.145301   223    2.157320  
     224    2.175176   225    2.180341   226    2.189841  
     227    2.220686   228    2.225825   229    2.253102  
     230    2.278851   231    2.288400   232    2.311104  
     233    2.315145   234    2.321834   235    2.332993  
     236    2.341010   237    2.369611   238    2.381557  
     239    2.398402   240    2.400426   241    2.404218  
     242    2.420355   243    2.434674   244    2.450761  
     245    2.468156   246    2.499068   247    2.519650  
     248    2.525819   249    2.561859   250    2.575219  
     251    2.583719   252    2.608798   253    2.636451  
     254    2.644430   255    2.660594   256    2.677959  
     257    2.703318   258    2.726213   259    2.735892  
     260    2.767614   261    2.786602   262    2.800629  
     263    2.839780   264    2.845426   265    2.854800  
     266    2.861311   267    2.872880   268    2.877512  
     269    2.881927   270    2.885862   271    2.901178  
     272    2.905503   273    2.923722   274    2.947094  
     275    2.961973   276    2.982868   277    3.051420  
     278    3.057526   279    3.081037   280    3.118406  
     281    3.127342   282    3.185557   283    3.228396  
     284    3.290123   285    3.315879   286    3.410901  
     287    3.451410   288    3.585577   289    3.617313  
     290    3.691843   291    3.749510   292    3.793146  
     293    3.875131   294    3.946606   295    3.968727  
     296    4.080410   297    4.144351   298    4.203218  
     299    4.441905   300    4.513768   301    4.553758  
     302    4.761281   303    4.935727   304    5.039840  
     305    5.067863   306    5.189040   307    5.319606  
     308    5.516464   309    5.646911   310    5.736172  
     311    5.856322   312    6.106470   313    6.328005  
     314    6.699485   315   13.373621   316   18.424437  
     317   33.421777   318   33.475244  

  ==> SCF B: <==

    Maxiter =          50
    E Tol   =   1.000E-06
    D Tol   =   1.000E-08

    Max DIIS Vectors = 5

    Iter   N:                        E          dE         |D|
    Iter   1:  -2.2423070622320378E+02  -2.242E+02   2.428E-03 
    Iter   2:  -2.2424070104617053E+02  -9.995E-03   2.381E-04 DIIS
    Iter   3:  -2.2424106510287797E+02  -3.641E-04   1.203E-04 DIIS
    Iter   4:  -2.2424109445795065E+02  -2.936E-05   6.820E-05 DIIS
    Iter   5:  -2.2424110164206306E+02  -7.184E-06   1.106E-05 DIIS
    Iter   6:  -2.2424110202508811E+02  -3.830E-07   4.219E-06 DIIS
    Iter   7:  -2.2424110208673423E+02  -6.165E-08   1.726E-06 DIIS
    Iter   8:  -2.2424110210282859E+02  -1.609E-08   7.074E-07 DIIS
    Iter   9:  -2.2424110210553980E+02  -2.711E-09   3.197E-07 DIIS
    Iter  10:  -2.2424110210600298E+02  -4.632E-10   1.194E-07 DIIS
    Iter  11:  -2.2424110210607071E+02  -6.773E-11   4.936E-08 DIIS
    Iter  12:  -2.2424110210607506E+02  -4.349E-12   1.613E-08 DIIS
    Iter  13:  -2.2424110210607620E+02  -1.137E-12   7.329E-09 DIIS

    FISAPTSCF Converged.

    Final SCF Energy:  -2.2424110210607620E+02 [Eh]

   => Occupied Orbital Energies <=

       1  -20.609900     2  -20.553865     3  -11.393156  
       4  -11.295916     5   -1.441141     6   -1.360544  
       7   -0.963732     8   -0.768957     9   -0.673722  
      10   -0.665071    11   -0.623957    12   -0.543860  
      13   -0.538653    14   -0.477180    15   -0.463968  

   => Virtual Orbital Energies <=

      16    0.011692    17    0.056152    18    0.060633  
      19    0.067962    20    0.072949    21    0.083896  
      22    0.088609    23    0.090618    24    0.094140  
      25    0.098974    26    0.103942    27    0.105438  
      28    0.113917    29    0.117169    30    0.119385  
      31    0.120148    32    0.133967    33    0.137281  
      34    0.141811    35    0.146350    36    0.151555  
      37    0.152183    38    0.163127    39    0.167191  
      40    0.177801    41    0.179340    42    0.183892  
      43    0.187699    44    0.192100    45    0.208332  
      46    0.211792    47    0.212717    48    0.219811  
      49    0.223773    50    0.232462    51    0.235511  
      52    0.239401    53    0.242867    54    0.251223  
      55    0.257088    56    0.259609    57    0.265656  
      58    0.267748    59    0.275510    60    0.286037  
      61    0.289901    62    0.292110    63    0.300382  
      64    0.306878    65    0.312652    66    0.316865  
      67    0.322686    68    0.330947    69    0.336703  
      70    0.336918    71    0.342296    72    0.351279  
      73    0.354376    74    0.356540    75    0.366251  
      76    0.366892    77    0.373045    78    0.376447  
      79    0.378248    80    0.384557    81    0.398701  
      82    0.403086    83    0.404630    84    0.415445  
      85    0.418171    86    0.425793    87    0.426433  
      88    0.435111    89    0.443981    90    0.451084  
      91    0.455112    92    0.458054    93    0.459751  
      94    0.466401    95    0.479371    96    0.490074  
      97    0.491458    98    0.503056    99    0.506316  
     100    0.517843   101    0.533113   102    0.547224  
     103    0.550090   104    0.570738   105    0.586317  
     106    0.590142   107    0.597640   108    0.614892  
     109    0.620479   110    0.630454   111    0.657692  
     112    0.670726   113    0.677455   114    0.724131  
     115    0.742735   116    0.767898   117    0.779459  
     118    0.783163   119    0.805049   120    0.823053  
     121    0.840228   122    0.844211   123    0.857892  
     124    0.869738   125    0.879236   126    0.885493  
     127    0.894687   128    0.903189   129    0.908435  
     130    0.922030   131    0.924396   132    0.928476  
     133    0.931403   134    0.939697   135    0.944406  
     136    0.950016   137    0.954825   138    0.958631  
     139    0.973790   140    0.974812   141    0.983041  
     142    1.003551   143    1.008337   144    1.016668  
     145    1.020073   146    1.027921   147    1.043354  
     148    1.049814   149    1.060638   150    1.079264  
     151    1.089241   152    1.104293   153    1.114361  
     154    1.117306   155    1.155672   156    1.159653  
     157    1.171853   158    1.204314   159    1.218537  
     160    1.229196   161    1.237326   162    1.254428  
     163    1.279979   164    1.284044   165    1.301956  
     166    1.310401   167    1.320320   168    1.333895  
     169    1.340375   170    1.356106   171    1.371149  
     172    1.377357   173    1.389991   174    1.404328  
     175    1.413675   176    1.453327   177    1.464432  
     178    1.482592   179    1.492767   180    1.503839  
     181    1.513465   182    1.537539   183    1.544101  
     184    1.562740   185    1.571594   186    1.576413  
     187    1.604780   188    1.613109   189    1.617450  
     190    1.624247   191    1.633132   192    1.636501  
     193    1.656222   194    1.661835   195    1.665220  
     196    1.680508   197    1.711745   198    1.713120  
     199    1.717361   200    1.733859   201    1.736428  
     202    1.766715   203    1.773799   204    1.780352  
     205    1.808220   206    1.817948   207    1.841934  
     208    1.862753   209    1.878337   210    1.879948  
     211    1.882844   212    1.895526   213    1.909038  
     214    1.916060   215    1.929573   216    1.938293  
     217    1.946873   218    1.951919   219    1.962338  
     220    1.968177   221    1.990867   222    1.991434  
     223    1.996156   224    2.005313   225    2.011810  
     226    2.016018   227    2.018132   228    2.029714  
     229    2.037580   230    2.040465   231    2.054713  
     232    2.064765   233    2.073200   234    2.087212  
     235    2.100689   236    2.124419   237    2.132633  
     238    2.154330   239    2.163562   240    2.174412  
     241    2.187239   242    2.196973   243    2.220455  
     244    2.227247   245    2.240816   246    2.259653  
     247    2.279453   248    2.310334   249    2.330074  
     250    2.336144   251    2.357744   252    2.372438  
     253    2.383733   254    2.392611   255    2.398613  
     256    2.413411   257    2.420916   258    2.429261  
     259    2.430186   260    2.455074   261    2.468057  
     262    2.515474   263    2.533295   264    2.552438  
     265    2.564090   266    2.569910   267    2.604434  
     268    2.629398   269    2.647880   270    2.668728  
     271    2.688935   272    2.732026   273    2.746019  
     274    2.763747   275    2.784808   276    2.797125  
     277    2.808287   278    2.816444   279    2.844591  
     280    2.860905   281    2.865161   282    2.872833  
     283    2.877358   284    2.897436   285    2.907520  
     286    2.915522   287    2.928143   288    2.944551  
     289    2.989607   290    3.012519   291    3.067075  
     292    3.089860   293    3.102526   294    3.123617  
     295    3.135659   296    3.206067   297    3.241487  
     298    3.272640   299    3.278621   300    3.294129  
     301    3.323502   302    3.389631   303    3.436086  
     304    3.568037   305    3.572267   306    3.631301  
     307    3.679669   308    3.692541   309    3.766947  
     310    3.816429   311    3.924643   312    3.957085  
     313    4.054978   314    4.076372   315    4.095239  
     316    4.496485   317    4.545880   318   13.281753  

  ==> Frozen Core <==


    ------------------
    Range      A     B
    ------------------
    nbf      358   358
    nmo      318   318
    nocc       4    15
    nvir     314   303
    nfocc      1     4
    naocc      3    11
    navir    314   303
    nfvir      0     0
    ------------------

  ==> Unification <==

  ==> dHF <==

    E ABC(HF) =  -7.6212132142789915E+02 [Eh]
    E AC(0)   =  -5.3409829963983600E+02 [Eh]
    E BC(0)   =  -7.2198634709821442E+02 [Eh]
    E A(0)    =  -2.5026014817124494E+01 [Eh]
    E B(0)    =  -2.1264571606656014E+02 [Eh]
    E AC(HF)  =  -5.3409608231278662E+02 [Eh]
    E BC(HF)  =  -7.2197595121534243E+02 [Eh]
    E AB(HF)  =  -2.3763834052138179E+02 [Eh]
    E A(HF)   =  -2.5010997792258205E+01 [Eh]
    E B(HF)   =  -2.1262730188744260E+02 [Eh]
    E C       =  -4.9395075294191020E+02 [Eh]
    E HF      =   1.2572368241080767E-02 [Eh]

  ==> Electrostatics <==

    Elst10,r            =     0.008965268268 [Eh]

  ==> Exchange <==

    Exch10(S^2)         =     0.005024084139 [Eh]
    Exch10              =     0.005043191515 [Eh]

  ==> Induction <==

    Ind20,u (A<-B)      =    -0.001190900790 [Eh]
    Ind20,u (B<-A)      =    -0.000732671918 [Eh]
    Ind20,u             =    -0.001923572708 [Eh]
    Exch-Ind20,u (A<-B) =     0.000483791152 [Eh]
    Exch-Ind20,u (B<-A) =     0.000472034622 [Eh]
    Exch-Ind20,u        =     0.000955825774 [Eh]

  ==> CPHF Iterations <==

    Maxiter     =          50
    Convergence =   1.000E-08

    -----------------------------------------
    Iter   Monomer A    Monomer B    Time [s]
    -----------------------------------------
    1      1.470E-01    2.610E-01           1
    2      2.658E-02    9.424E-02           1
    3      6.272E-03    2.177E-02           2
    4      8.722E-04    9.895E-03           3
    5      1.034E-04    3.718E-03           4
    6      1.597E-05    1.562E-03           5
    7      2.307E-06    4.217E-04           6
    8      3.379E-07    1.695E-04           7
    9      3.737E-08    4.861E-05           7
    10     3.559E-09*   1.810E-05           8
    11     3.559E-09*   5.164E-06           9
    12     3.559E-09*   9.911E-07           9
    13     3.559E-09*   1.864E-07          10
    14     3.559E-09*   4.489E-08          10
    15     3.559E-09*   9.464E-09*         11
    -----------------------------------------

    Ind20,r (A<-B)      =    -0.001380217049 [Eh]
    Ind20,r (B<-A)      =    -0.000877578752 [Eh]
    Ind20,r             =    -0.002257795801 [Eh]
    Exch-Ind20,r (A<-B) =     0.000578154519 [Eh]
    Exch-Ind20,r (B<-A) =     0.000625166544 [Eh]
    Exch-Ind20,r        =     0.001203321062 [Eh]

  ==> F-SAPT Localization (IBO) <==

  Local Orbitals for Monomer A:

  ==> IBO Localizer 2 <==

    MinAO Basis = CC-PVTZ-MINAO
    Use Ghosts  =       FALSE
    Use Stars   =       FALSE
    Condition   =   1.000E-07
    Power       =           4
    Convergence =   1.000E-12
    Maxiter     =        1000

    @IBO Iter:                   Metric       Gradient
    @IBO    1:   1.0658572579544325E+00   6.973470E-02
    @IBO    2:   1.0833469628534009E+00   3.014622E-02
    @IBO    3:   1.0840417873412327E+00   7.303264E-04
    @IBO    4:   1.0840421678857148E+00   1.742250E-07
    @IBO    5:   1.0840421678857366E+00   2.067585E-10
    @IBO    6:   1.0840421678857366E+00   2.352075E-15

    IBO Localizer 2 converged.

  Local Orbitals for Monomer B:

  ==> IBO Localizer 2 <==

    MinAO Basis = CC-PVTZ-MINAO
    Use Ghosts  =       FALSE
    Use Stars   =       FALSE
    Condition   =   1.000E-07
    Power       =           4
    Convergence =   1.000E-12
    Maxiter     =        1000

    @IBO Iter:                   Metric       Gradient
    @IBO    1:   1.4800693874586865E+00   1.673990E+00
    @IBO    2:   1.6765644826177282E+00   9.416848E-01
    @IBO    3:   1.7090336824803847E+00   3.518035E-01
    @IBO    4:   1.7106500860781697E+00   6.223756E-03
    @IBO    5:   1.7106511479881945E+00   2.384200E-04
    @IBO    6:   1.7106511486987024E+00   3.777967E-06
    @IBO    7:   1.7106511486989284E+00   9.335387E-08
    @IBO    8:   1.7106511486989286E+00   1.982603E-09
    @IBO    9:   1.7106511486989284E+00   4.287541E-11
    @IBO   10:   1.7106511486989286E+00   9.589859E-13

    IBO Localizer 2 converged.

  ==> F-SAPT Electrostatics <==

  ==> DFERI: Density Fitted 3-Index Tensors <==

    Schwarz cutoff =   0.000E+00
    J cutoff       =   1.000E-12
    Mem (GB)       =         628

   => Auxiliary Basis <=

  Basis Set: (JUN-CC-PVDZ AUX)
    Blend: JUN-CC-PVDZ-JKFIT
    Number of shells: 558
    Number of basis function: 1586
    Number of Cartesian functions: 1806
    Spherical Harmonics?: true
    Max angular momentum: 3

    Elst10,r            =     0.008965284138 [Eh]

  ==> F-SAPT Exchange <==

  ==> DFERI: Density Fitted 3-Index Tensors <==

    Schwarz cutoff =   0.000E+00
    J cutoff       =   1.000E-12
    Mem (GB)       =         628

   => Auxiliary Basis <=

  Basis Set: (JUN-CC-PVDZ AUX)
    Blend: JUN-CC-PVDZ-JKFIT
    Number of shells: 558
    Number of basis function: 1586
    Number of Cartesian functions: 1806
    Spherical Harmonics?: true
    Max angular momentum: 3

    Exch10(S^2)         =     0.005024069652 [Eh]

    Scaling F-SAPT Exch10(S^2) by   1.004E+00 to match Exch10

  ==> F-SAPT Induction <==

  ==> DFERI: Density Fitted 3-Index Tensors <==

    Schwarz cutoff =   0.000E+00
    J cutoff       =   1.000E-12
    Mem (GB)       =         628

   => Auxiliary Basis <=

  Basis Set: (JUN-CC-PVDZ AUX)
    Blend: JUN-CC-PVDZ-JKFIT
    Number of shells: 558
    Number of basis function: 1586
    Number of Cartesian functions: 1806
    Spherical Harmonics?: true
    Max angular momentum: 3

    Ind20,u (A<-B)      =    -0.001190901338 [Eh]
    Ind20,u (B<-A)      =    -0.000732672541 [Eh]
    Ind20,u             =    -0.001923573879 [Eh]
    Exch-Ind20,u (A<-B) =     0.000483791363 [Eh]
    Exch-Ind20,u (B<-A) =     0.000472034828 [Eh]
    Exch-Ind20,u        =     0.000955826191 [Eh]

    Scaling for delta HF        =   1.362E+00
    Scaling for response (A<-B) =   1.134E+00
    Scaling for response (B<-A) =   9.684E-01
    Scaling for total (A<-B)    =   1.545E+00
    Scaling for total (B<-A)    =   1.319E+00

  ==> F-SAPT Dispersion <==

  ==> DFERI: Density Fitted 3-Index Tensors <==

    Schwarz cutoff =   0.000E+00
    J cutoff       =   1.000E-12
    Mem (GB)       =         628

   => Auxiliary Basis <=

  Basis Set: (JUN-CC-PVDZ AUX)
    Blend: JUN-CC-PVDZ-RI
    Number of shells: 420
    Number of basis function: 1236
    Number of Cartesian functions: 1426
    Spherical Harmonics?: true
    Max angular momentum: 3

    Disp20              =    -0.002569669799 [Eh]
    Exch-Disp20         =     0.000357044174 [Eh]

  ==> F-SAPT Output <==

    F-SAPT Data Filepath = fsapt/

  ==> Results <==


    SAPT Results  
  --------------------------------------------------------------------------------------------------------
    Electrostatics                  8.96526827 [mEh]       5.62579101 [kcal/mol]      23.53831184 [kJ/mol]
      Elst10,r                      8.96526827 [mEh]       5.62579101 [kcal/mol]      23.53831184 [kJ/mol]

    Exchange                        5.04319152 [mEh]       3.16465059 [kcal/mol]      13.24089932 [kJ/mol]
      Exch10                        5.04319152 [mEh]       3.16465059 [kcal/mol]      13.24089932 [kJ/mol]
      Exch10(S^2)                   5.02408414 [mEh]       3.15266053 [kcal/mol]      13.19073291 [kJ/mol]

    Induction                      -1.43609154 [mEh]      -0.90116109 [kcal/mol]      -3.77045834 [kJ/mol]
      Ind20,r                      -2.25779580 [mEh]      -1.41678831 [kcal/mol]      -5.92784287 [kJ/mol]
      Exch-Ind20,r                  1.20332106 [mEh]       0.75509540 [kcal/mol]       3.15931945 [kJ/mol]
      delta HF,r (2)               -0.38161680 [mEh]      -0.23946817 [kcal/mol]      -1.00193492 [kJ/mol]
      Induction (A<-B)             -1.09233078 [mEh]      -0.68544794 [kcal/mol]      -2.86791447 [kJ/mol]
      Induction (B<-A)             -0.34376076 [mEh]      -0.21571314 [kcal/mol]      -0.90254388 [kJ/mol]

    Dispersion                     -2.21262563 [mEh]      -1.38844360 [kcal/mol]      -5.80924858 [kJ/mol]
      Disp20                       -2.56966980 [mEh]      -1.61249221 [kcal/mol]      -6.74666806 [kJ/mol]
      Exch-Disp20                   0.35704417 [mEh]       0.22404861 [kcal/mol]       0.93741948 [kJ/mol]

  Total HF                         12.57236824 [mEh]       7.88928051 [kcal/mol]      33.00875282 [kJ/mol]
  Total SAPT0                      10.35974262 [mEh]       6.50083691 [kcal/mol]      27.19950424 [kJ/mol]

  --------------------------------------------------------------------------------------------------------
    Han Solo: This is *not* gonna work.
    Luke Skywalker: Why didn't you say so before?
    Han Solo: I *did* say so before.

*** tstop() called on vega02.cac.cornell.edu at Thu Oct 19 09:27:45 2017
Module time:
	user time   =    1737.96 seconds =      28.97 minutes
	system time =       9.92 seconds =       0.17 minutes
	total time  =         68 seconds =       1.13 minutes
Total time:
	user time   =    2415.79 seconds =      40.26 minutes
	system time =      15.42 seconds =       0.26 minutes
	total time  =        100 seconds =       1.67 minutes

*** Psi4 exiting successfully. Buy a developer a beer!
