
    -----------------------------------------------------------------------
          Psi4: An Open-Source Ab Initio Electronic Structure Package
                               Psi4 1.1 release

                         Git: Rev {HEAD} add49b9 


    R. M. Parrish, L. A. Burns, D. G. A. Smith, A. C. Simmonett,
    A. E. DePrince III, E. G. Hohenstein, U. Bozkaya, A. Yu. Sokolov,
    R. Di Remigio, R. M. Richard, J. F. Gonthier, A. M. James,
    H. R. McAlexander, A. Kumar, M. Saitow, X. Wang, B. P. Pritchard,
    P. Verma, H. F. Schaefer III, K. Patkowski, R. A. King, E. F. Valeev,
    F. A. Evangelista, J. M. Turney, T. D. Crawford, and C. D. Sherrill,
    J. Chem. Theory Comput. in press (2017).
    (doi: 10.1021/acs.jctc.7b00174)

    -----------------------------------------------------------------------


    Psi4 started on: Monday, 15 January 2018 06:45PM

    Process ID:  21327
    PSIDATADIR: /home/junteng/Softwares/psi4conda/share/psi4
    Memory:     500.0 MiB
    Threads:    1
    
  ==> Input File <==

--------------------------------------------------------------------------
memory 750000 mb

molecule mol {
0 1
C         -1.34499        0.77476       -0.28278
O         -1.91200        0.87864       -1.34136
O         -1.96720        0.79415        0.91201
C         -3.40514        0.82382        0.86832
H         -3.75713        1.71250        0.34215
H         -3.72708        0.83869        1.90724
H         -3.78435       -0.06548        0.36178
--
0 1
C          0.23682       -1.78307       -0.07144
O          0.80387       -2.85160       -0.02158
O         -1.10553       -1.69654       -0.17947
C         -1.82703       -2.93588       -0.26102
H         -2.86734       -2.65355       -0.40732
H         -1.70802       -3.50704        0.66122
H         -1.46982       -3.53099       -1.10214
--
0 1
C         -0.04267        3.27951       -0.18928
H         -0.80730        3.33033        0.59133
H         -0.55603        3.33728       -1.15274
H          0.59875        4.15632       -0.09009
C          3.21173       -1.58756        0.18748
H          3.11565       -2.22848       -0.69038
H          2.96526       -2.21459        1.04621
H          4.25051       -1.26355        0.27556
C          0.90114       -0.44258       -0.02801
C          0.15263        0.75062       -0.11404
C          2.31053       -0.37923        0.09634
C          2.90211        0.88499        0.13631
C          2.15416        2.05120        0.05067
C          0.76738        2.00921       -0.08102
H          2.65523        3.01281        0.08588
H          3.97960        0.95241        0.23649

symmetry c1
no_reorient
no_com
}

set {
basis jun-cc-pvdz
scf_type df
guess sad
freeze_core true
}

energy('fisapt0')
--------------------------------------------------------------------------

  Memory set to 698.492 GiB by Python driver.

*** tstart() called on ThinkPad-P50
*** at Mon Jan 15 18:45:46 2018

   => Loading Basis Set <=

    Name: JUN-CC-PVDZ
    Role: ORBITAL
    Keyword: BASIS
    atoms 1, 4, 8, 11, 15, 19, 23-28      entry C          line   157 file /home/junteng/Softwares/psi4conda/share/psi4/basis/jun-cc-pvdz.gbs 
    atoms 2-3, 9-10                       entry O          line   225 file /home/junteng/Softwares/psi4conda/share/psi4/basis/jun-cc-pvdz.gbs 
    atoms 5-7, 12-14, 16-18, 20-22, 29-30 entry H          line    35 file /home/junteng/Softwares/psi4conda/share/psi4/basis/jun-cc-pvdz.gbs 


         ---------------------------------------------------------
                                   SCF
            by Justin Turney, Rob Parrish, and Andy Simmonett
                              RHF Reference
                        1 Threads, 715255 MiB Core
         ---------------------------------------------------------

  ==> Geometry <==

    Molecular point group: c1
    Full point group: C1

    Geometry (in Angstrom), charge = 0, multiplicity = 1:

       Center              X                  Y                   Z               Mass       
    ------------   -----------------  -----------------  -----------------  -----------------
           C         -1.344990000000     0.774760000000    -0.282780000000    12.000000000000
           O         -1.912000000000     0.878640000000    -1.341360000000    15.994914619560
           O         -1.967200000000     0.794150000000     0.912010000000    15.994914619560
           C         -3.405140000000     0.823820000000     0.868320000000    12.000000000000
           H         -3.757130000000     1.712500000000     0.342150000000     1.007825032070
           H         -3.727080000000     0.838690000000     1.907240000000     1.007825032070
           H         -3.784350000000    -0.065480000000     0.361780000000     1.007825032070
           C          0.236820000000    -1.783070000000    -0.071440000000    12.000000000000
           O          0.803870000000    -2.851600000000    -0.021580000000    15.994914619560
           O         -1.105530000000    -1.696540000000    -0.179470000000    15.994914619560
           C         -1.827030000000    -2.935880000000    -0.261020000000    12.000000000000
           H         -2.867340000000    -2.653550000000    -0.407320000000     1.007825032070
           H         -1.708020000000    -3.507040000000     0.661220000000     1.007825032070
           H         -1.469820000000    -3.530990000000    -1.102140000000     1.007825032070
           C         -0.042670000000     3.279510000000    -0.189280000000    12.000000000000
           H         -0.807300000000     3.330330000000     0.591330000000     1.007825032070
           H         -0.556030000000     3.337280000000    -1.152740000000     1.007825032070
           H          0.598750000000     4.156320000000    -0.090090000000     1.007825032070
           C          3.211730000000    -1.587560000000     0.187480000000    12.000000000000
           H          3.115650000000    -2.228480000000    -0.690380000000     1.007825032070
           H          2.965260000000    -2.214590000000     1.046210000000     1.007825032070
           H          4.250510000000    -1.263550000000     0.275560000000     1.007825032070
           C          0.901140000000    -0.442580000000    -0.028010000000    12.000000000000
           C          0.152630000000     0.750620000000    -0.114040000000    12.000000000000
           C          2.310530000000    -0.379230000000     0.096340000000    12.000000000000
           C          2.902110000000     0.884990000000     0.136310000000    12.000000000000
           C          2.154160000000     2.051200000000     0.050670000000    12.000000000000
           C          0.767380000000     2.009210000000    -0.081020000000    12.000000000000
           H          2.655230000000     3.012810000000     0.085880000000     1.007825032070
           H          3.979600000000     0.952410000000     0.236490000000     1.007825032070

  Running in c1 symmetry.

  Rotational constants: A =      0.02130  B =      0.01876  C =      0.01079 [cm^-1]
  Rotational constants: A =    638.47031  B =    562.39929  C =    323.54509 [MHz]
  Nuclear repulsion = 1143.391977762463966

  Charge       = 0
  Multiplicity = 1
  Electrons    = 118
  Nalpha       = 59
  Nbeta        = 59

  ==> Algorithm <==

  SCF Algorithm Type is DF.
  DIIS enabled.
  MOM disabled.
  Fractional occupation disabled.
  Guess Type is SAD.
  Energy threshold   = 1.00e-08
  Density threshold  = 1.00e-08
  Integral threshold = 0.00e+00

  ==> Primary Basis <==

  Basis Set: JUN-CC-PVDZ
    Blend: JUN-CC-PVDZ
    Number of shells: 170
    Number of basis function: 358
    Number of Cartesian functions: 374
    Spherical Harmonics?: true
    Max angular momentum: 2

   => Loading Basis Set <=

    Name: (JUN-CC-PVDZ AUX)
    Role: JKFIT
    Keyword: DF_BASIS_SCF
    atoms 1, 4, 8, 11, 15, 19, 23-28      entry C          line   145 file /home/junteng/Softwares/psi4conda/share/psi4/basis/jun-cc-pvdz-jkfit.gbs 
    atoms 2-3, 9-10                       entry O          line   257 file /home/junteng/Softwares/psi4conda/share/psi4/basis/jun-cc-pvdz-jkfit.gbs 
    atoms 5-7, 12-14, 16-18, 20-22, 29-30 entry H          line    69 file /home/junteng/Softwares/psi4conda/share/psi4/basis/jun-cc-pvdz-jkfit.gbs 

  ==> Pre-Iterations <==

   -------------------------------------------------------
    Irrep   Nso     Nmo     Nalpha   Nbeta   Ndocc  Nsocc
   -------------------------------------------------------
     A        358     358       0       0       0       0
   -------------------------------------------------------
    Total     358     358      59      59      59       0
   -------------------------------------------------------

  ==> Integral Setup <==

  ==> DFJK: Density-Fitted J/K Matrices <==

    J tasked:                  Yes
    K tasked:                  Yes
    wK tasked:                  No
    OpenMP threads:              1
    Integrals threads:           1
    Memory (MB):            536441
    Algorithm:                Core
    Integral Cache:           NONE
    Schwarz Cutoff:          1E-12
    Fitting Condition:       1E-12

   => Auxiliary Basis Set <=

  Basis Set: (JUN-CC-PVDZ AUX)
    Blend: JUN-CC-PVDZ-JKFIT
    Number of shells: 558
    Number of basis function: 1586
    Number of Cartesian functions: 1806
    Spherical Harmonics?: true
    Max angular momentum: 3

  Minimum eigenvalue in the overlap matrix is 2.6911722841E-06.
  Using Symmetric Orthogonalization.

  SCF Guess: Superposition of Atomic Densities via on-the-fly atomic UHF.

  ==> Iterations <==

                           Total Energy        Delta E     RMS |[F,P]|

   @DF-RHF iter   0:  -771.11350834872815   -7.71114e+02   2.18958e-02 
   @DF-RHF iter   1:  -761.57072004500287    9.54279e+00   2.63691e-03 
   @DF-RHF iter   2:  -761.89534495286523   -3.24625e-01   2.01069e-03 DIIS
   @DF-RHF iter   3:  -762.09936150893270   -2.04017e-01   4.18430e-04 DIIS
   @DF-RHF iter   4:  -762.11557604277732   -1.62145e-02   1.40980e-04 DIIS
   @DF-RHF iter   5:  -762.11773177623445   -2.15573e-03   4.78448e-05 DIIS
   @DF-RHF iter   6:  -762.11803968304343   -3.07907e-04   1.88881e-05 DIIS
   @DF-RHF iter   7:  -762.11809789853100   -5.82155e-05   6.15365e-06 DIIS
   @DF-RHF iter   8:  -762.11810402806520   -6.12953e-06   2.66044e-06 DIIS
   @DF-RHF iter   9:  -762.11810511256010   -1.08449e-06   1.07761e-06 DIIS
   @DF-RHF iter  10:  -762.11810531200945   -1.99449e-07   3.56737e-07 DIIS
   @DF-RHF iter  11:  -762.11810534197457   -2.99651e-08   1.31620e-07 DIIS
   @DF-RHF iter  12:  -762.11810534567962   -3.70505e-09   5.87321e-08 DIIS
   @DF-RHF iter  13:  -762.11810534650613   -8.26503e-10   2.35435e-08 DIIS
   @DF-RHF iter  14:  -762.11810534666529   -1.59162e-10   1.23744e-08 DIIS
   @DF-RHF iter  15:  -762.11810534669257   -2.72848e-11   4.95283e-09 DIIS

  ==> Post-Iterations <==

    Orbital Energies (a.u.)
    -----------------------

    Doubly Occupied:                                                      

       1A    -20.612443     2A    -20.610507     3A    -20.555282  
       4A    -20.553806     5A    -11.397816     6A    -11.396556  
       7A    -11.298293     8A    -11.296954     9A    -11.275861  
      10A    -11.270843    11A    -11.269123    12A    -11.261908  
      13A    -11.258041    14A    -11.248050    15A    -11.238452  
      16A    -11.227317    17A     -1.473384    18A     -1.464245  
      19A     -1.367074    20A     -1.365517    21A     -1.183751  
      22A     -1.085776    23A     -1.064426    24A     -0.993411  
      25A     -0.985458    26A     -0.970305    27A     -0.914941  
      28A     -0.879368    29A     -0.833316    30A     -0.785096  
      31A     -0.770237    32A     -0.726533    33A     -0.708370  
      34A     -0.696585    35A     -0.679983    36A     -0.673242  
      37A     -0.668187    38A     -0.655208    39A     -0.640941  
      40A     -0.607070    41A     -0.592211    42A     -0.583359  
      43A     -0.575008    44A     -0.567390    45A     -0.562269  
      46A     -0.551686    47A     -0.547737    48A     -0.537776  
      49A     -0.534522    50A     -0.528180    51A     -0.515106  
      52A     -0.503816    53A     -0.489052    54A     -0.472244  
      55A     -0.456531    56A     -0.452869    57A     -0.444157  
      58A     -0.355301    59A     -0.330799  

    Virtual:                                                              

      60A      0.053366    61A      0.054921    62A      0.058534  
      63A      0.067060    64A      0.071366    65A      0.076335  
      66A      0.084496    67A      0.092720    68A      0.095849  
      69A      0.101242    70A      0.103520    71A      0.109051  
      72A      0.114529    73A      0.117155    74A      0.119157  
      75A      0.126357    76A      0.134781    77A      0.137155  
      78A      0.142805    79A      0.149831    80A      0.152155  
      81A      0.160470    82A      0.164381    83A      0.170499  
      84A      0.172971    85A      0.182124    86A      0.188979  
      87A      0.191564    88A      0.200910    89A      0.203668  
      90A      0.211831    91A      0.220807    92A      0.224324  
      93A      0.229198    94A      0.230517    95A      0.234333  
      96A      0.235463    97A      0.243507    98A      0.249120  
      99A      0.254913   100A      0.262707   101A      0.266158  
     102A      0.271157   103A      0.273556   104A      0.276895  
     105A      0.292681   106A      0.294862   107A      0.297073  
     108A      0.301653   109A      0.303113   110A      0.314769  
     111A      0.320492   112A      0.324702   113A      0.332091  
     114A      0.333959   115A      0.338937   116A      0.342207  
     117A      0.347607   118A      0.353138   119A      0.359890  
     120A      0.372987   121A      0.374911   122A      0.375457  
     123A      0.382237   124A      0.394199   125A      0.399617  
     126A      0.400675   127A      0.413886   128A      0.414427  
     129A      0.418279   130A      0.421115   131A      0.432088  
     132A      0.434472   133A      0.441092   134A      0.450091  
     135A      0.456373   136A      0.465144   137A      0.466942  
     138A      0.475337   139A      0.478022   140A      0.485597  
     141A      0.494843   142A      0.499745   143A      0.509539  
     144A      0.514866   145A      0.524199   146A      0.533700  
     147A      0.539991   148A      0.552538   149A      0.583307  
     150A      0.586547   151A      0.611428   152A      0.624829  
     153A      0.641315   154A      0.676769   155A      0.699324  
     156A      0.728888   157A      0.747414   158A      0.757213  
     159A      0.769306   160A      0.785072   161A      0.788924  
     162A      0.795184   163A      0.806225   164A      0.826253  
     165A      0.837413   166A      0.843897   167A      0.855884  
     168A      0.870962   169A      0.880618   170A      0.892014  
     171A      0.895000   172A      0.907972   173A      0.912975  
     174A      0.915517   175A      0.923337   176A      0.926466  
     177A      0.932241   178A      0.935709   179A      0.942517  
     180A      0.943797   181A      0.950073   182A      0.959194  
     183A      0.963009   184A      0.965382   185A      0.970533  
     186A      0.976681   187A      0.987412   188A      0.990980  
     189A      0.994090   190A      1.004299   191A      1.024052  
     192A      1.027857   193A      1.043031   194A      1.058967  
     195A      1.059527   196A      1.069126   197A      1.076387  
     198A      1.097970   199A      1.119026   200A      1.132847  
     201A      1.140213   202A      1.143733   203A      1.163486  
     204A      1.172149   205A      1.174902   206A      1.210144  
     207A      1.216102   208A      1.228358   209A      1.232427  
     210A      1.245742   211A      1.258306   212A      1.262915  
     213A      1.281656   214A      1.308353   215A      1.322767  
     216A      1.325630   217A      1.332871   218A      1.360101  
     219A      1.373760   220A      1.385995   221A      1.396434  
     222A      1.406689   223A      1.428643   224A      1.453872  
     225A      1.489414   226A      1.492260   227A      1.509438  
     228A      1.520143   229A      1.542312   230A      1.556683  
     231A      1.563822   232A      1.579162   233A      1.591862  
     234A      1.601201   235A      1.608831   236A      1.611822  
     237A      1.628092   238A      1.646166   239A      1.658635  
     240A      1.668778   241A      1.673587   242A      1.680994  
     243A      1.695272   244A      1.698287   245A      1.713183  
     246A      1.718687   247A      1.733295   248A      1.758782  
     249A      1.774496   250A      1.796798   251A      1.804690  
     252A      1.814532   253A      1.829866   254A      1.836536  
     255A      1.857112   256A      1.873454   257A      1.878912  
     258A      1.905224   259A      1.909159   260A      1.922641  
     261A      1.933241   262A      1.940284   263A      1.952100  
     264A      1.960705   265A      1.969717   266A      1.970409  
     267A      1.980402   268A      1.987228   269A      1.999681  
     270A      2.011083   271A      2.018495   272A      2.023386  
     273A      2.036286   274A      2.046076   275A      2.049353  
     276A      2.056999   277A      2.064827   278A      2.076174  
     279A      2.083369   280A      2.096507   281A      2.110135  
     282A      2.115599   283A      2.134938   284A      2.145521  
     285A      2.166782   286A      2.173526   287A      2.183722  
     288A      2.186326   289A      2.196743   290A      2.217752  
     291A      2.250202   292A      2.266473   293A      2.283909  
     294A      2.295815   295A      2.313306   296A      2.333181  
     297A      2.359170   298A      2.366035   299A      2.388875  
     300A      2.399471   301A      2.402907   302A      2.421073  
     303A      2.434118   304A      2.436746   305A      2.449804  
     306A      2.472137   307A      2.515825   308A      2.519323  
     309A      2.525386   310A      2.558935   311A      2.594784  
     312A      2.601936   313A      2.607032   314A      2.655573  
     315A      2.684268   316A      2.716770   317A      2.760674  
     318A      2.774276   319A      2.779560   320A      2.790266  
     321A      2.816472   322A      2.839024   323A      2.853237  
     324A      2.858083   325A      2.867231   326A      2.874460  
     327A      2.879144   328A      2.894320   329A      2.903768  
     330A      2.915522   331A      2.939779   332A      2.957065  
     333A      2.995532   334A      3.027794   335A      3.038096  
     336A      3.063547   337A      3.088443   338A      3.114680  
     339A      3.137599   340A      3.156285   341A      3.236789  
     342A      3.248176   343A      3.284679   344A      3.293399  
     345A      3.340808   346A      3.375844   347A      3.439624  
     348A      3.548669   349A      3.575337   350A      3.645952  
     351A      3.680994   352A      3.731998   353A      3.775457  
     354A      3.832277   355A      3.939909   356A      3.991135  
     357A      4.086625   358A      4.094562  

    Final Occupation by Irrep:
              A 
    DOCC [    59 ]

  Energy converged.

  @DF-RHF Final Energy:  -762.11810534669257

   => Energetics <=

    Nuclear Repulsion Energy =           1143.3919777624639664
    One-Electron Energy =               -3311.8927950541319660
    Two-Electron Energy =                1406.3827119449751990
    DFT Exchange-Correlation Energy =       0.0000000000000000
    Empirical Dispersion Energy =           0.0000000000000000
    PCM Polarization Energy =               0.0000000000000000
    EFP Energy =                            0.0000000000000000
    Total Energy =                       -762.1181053466925732



Properties will be evaluated at   0.000000,   0.000000,   0.000000 Bohr

Properties computed using the SCF density matrix

  Nuclear Dipole Moment: (a.u.)
     X:     2.9122      Y:    -0.8530      Z:    -2.0954

  Electronic Dipole Moment: (a.u.)
     X:    -3.1718      Y:     1.4006      Z:     2.7731

  Dipole Moment: (a.u.)
     X:    -0.2596      Y:     0.5476      Z:     0.6777     Total:     0.9091

  Dipole Moment: (Debye)
     X:    -0.6599      Y:     1.3919      Z:     1.7225     Total:     2.3108


*** tstop() called on ThinkPad-P50 at Mon Jan 15 18:47:09 2018
Module time:
	user time   =      82.96 seconds =       1.38 minutes
	system time =       0.58 seconds =       0.01 minutes
	total time  =         83 seconds =       1.38 minutes
Total time:
	user time   =      82.96 seconds =       1.38 minutes
	system time =       0.58 seconds =       0.01 minutes
	total time  =         83 seconds =       1.38 minutes
   => Loading Basis Set <=

    Name: (JUN-CC-PVDZ AUX)
    Role: JKFIT
    Keyword: DF_BASIS_SCF
    atoms 1, 4, 8, 11, 15, 19, 23-28      entry C          line   145 file /home/junteng/Softwares/psi4conda/share/psi4/basis/jun-cc-pvdz-jkfit.gbs 
    atoms 2-3, 9-10                       entry O          line   257 file /home/junteng/Softwares/psi4conda/share/psi4/basis/jun-cc-pvdz-jkfit.gbs 
    atoms 5-7, 12-14, 16-18, 20-22, 29-30 entry H          line    69 file /home/junteng/Softwares/psi4conda/share/psi4/basis/jun-cc-pvdz-jkfit.gbs 

   => Loading Basis Set <=

    Name: (JUN-CC-PVDZ AUX)
    Role: RIFIT
    Keyword: DF_BASIS_SAPT
    atoms 1, 4, 8, 11, 15, 19, 23-28      entry C          line    99 file /home/junteng/Softwares/psi4conda/share/psi4/basis/jun-cc-pvdz-ri.gbs 
    atoms 2-3, 9-10                       entry O          line   187 file /home/junteng/Softwares/psi4conda/share/psi4/basis/jun-cc-pvdz-ri.gbs 
    atoms 5-7, 12-14, 16-18, 20-22, 29-30 entry H          line    29 file /home/junteng/Softwares/psi4conda/share/psi4/basis/jun-cc-pvdz-ri.gbs 

   => Loading Basis Set <=

    Name: CC-PVTZ-MINAO
    Role: ORBITAL
    Keyword: BASIS
    atoms 1, 4, 8, 11, 15, 19, 23-28      entry C          line   130 file /home/junteng/Softwares/psi4conda/share/psi4/basis/cc-pvtz-minao.gbs 
    atoms 2-3, 9-10                       entry O          line   190 file /home/junteng/Softwares/psi4conda/share/psi4/basis/cc-pvtz-minao.gbs 
    atoms 5-7, 12-14, 16-18, 20-22, 29-30 entry H          line    19 file /home/junteng/Softwares/psi4conda/share/psi4/basis/cc-pvtz-minao.gbs 


*** tstart() called on ThinkPad-P50
*** at Mon Jan 15 18:47:10 2018

	 --------------------------------------------
	                    FISAPT0                  
	                  Rob Parrish                
	 --------------------------------------------

    Do F-SAPT =         Yes
    Do Plot   =          No
    Memory    =      78.580 [GD]

  ==> Localization (IBO) <==

  ==> IBO Localizer 2 <==

    MinAO Basis = CC-PVTZ-MINAO
    Use Ghosts  =       FALSE
    Use Stars   =       FALSE
    Condition   =   1.000E-07
    Power       =           4
    Convergence =   1.000E-12
    Maxiter     =        1000

    @IBO Iter:                   Metric       Gradient
    @IBO    1:   1.9644537160908682E+00   2.904445E+00
    @IBO    2:   2.2137839842065090E+00   1.898289E+00
    @IBO    3:   2.2819839916648506E+00   9.708624E-01
    @IBO    4:   2.2886572100322486E+00   3.883311E-02
    @IBO    5:   2.2886697218746144E+00   6.064371E-04
    @IBO    6:   2.2886697255765909E+00   3.101267E-05
    @IBO    7:   2.2886697256135924E+00   6.018178E-06
    @IBO    8:   2.2886697256152453E+00   1.335060E-06
    @IBO    9:   2.2886697256153310E+00   3.045296E-07
    @IBO   10:   2.2886697256153350E+00   7.021516E-08
    @IBO   11:   2.2886697256153354E+00   1.626644E-08
    @IBO   12:   2.2886697256153354E+00   3.776101E-09
    @IBO   13:   2.2886697256153354E+00   8.771937E-10
    @IBO   14:   2.2886697256153354E+00   2.037735E-10
    @IBO   15:   2.2886697256153345E+00   4.732117E-11
    @IBO   16:   2.2886697256153350E+00   1.098397E-11
    @IBO   17:   2.2886697256153350E+00   2.548268E-12
    @IBO   18:   2.2886697256153350E+00   5.909070E-13

    IBO Localizer 2 converged.

  ==> Partitioning <==

   => Atomic Partitioning <= 

    Monomer A:   7 atoms
    Monomer B:   7 atoms
    Monomer C:  16 atoms

   => Link Bond Identification <=

    Link Bond Selection = AUTOMATIC

    Charge Completeness = 0.800

    Total Link Bonds = 2

    --------------------------
    N     Orb Type Aind1 Aind2
    --------------------------
    1      18   BC     8    23
    2      19   AC     1    24
    --------------------------

   => Link Bond Assignment <=

    Link Bond Assignment      = C

   => Partition Summary <=

    Monomer A:  0 charge,  30 protons,  30 electrons,  15 docc
    Monomer B:  0 charge,  30 protons,  30 electrons,  15 docc
    Monomer C:  0 charge,  58 protons,  58 electrons,  29 docc

  ==> Overlap Integrals <==

  ==> Kinetic Integrals <==

  ==> Nuclear Integrals <==

    Nuclear Repulsion Tot:   1.1433919777624637E+03 [Eh]

  ==> Coulomb Integrals <==

  ==> DFJK: Density-Fitted J/K Matrices <==

    J tasked:                  Yes
    K tasked:                  Yes
    wK tasked:                  No
    OpenMP threads:              1
    Integrals threads:           1
    Memory (MB):            643730
    Algorithm:                Core
    Integral Cache:           NONE
    Schwarz Cutoff:          1E-12
    Fitting Condition:       1E-12

   => Auxiliary Basis Set <=

  Basis Set: (JUN-CC-PVDZ AUX)
    Blend: JUN-CC-PVDZ-JKFIT
    Number of shells: 558
    Number of basis function: 1586
    Number of Cartesian functions: 1806
    Spherical Harmonics?: true
    Max angular momentum: 3

  ==> Relaxed SCF Equations <==

  ==> SCF A: <==

    Maxiter =          50
    E Tol   =   1.000E-06
    D Tol   =   1.000E-08

    Max DIIS Vectors = 5

    Iter   N:                        E          dE         |D|
    Iter   1:  -2.2425520984087294E+02  -2.243E+02   8.048E-04 
    Iter   2:  -2.2426747722413168E+02  -1.227E-02   4.723E-05 DIIS
    Iter   3:  -2.2426769838531334E+02  -2.212E-04   1.319E-05 DIIS
    Iter   4:  -2.2426771408676544E+02  -1.570E-05   6.541E-06 DIIS
    Iter   5:  -2.2426771715294842E+02  -3.066E-06   2.210E-06 DIIS
    Iter   6:  -2.2426771762165862E+02  -4.687E-07   7.457E-07 DIIS
    Iter   7:  -2.2426771769225064E+02  -7.059E-08   3.100E-07 DIIS
    Iter   8:  -2.2426771770309293E+02  -1.084E-08   1.029E-07 DIIS
    Iter   9:  -2.2426771770432475E+02  -1.232E-09   4.487E-08 DIIS
    Iter  10:  -2.2426771770459180E+02  -2.671E-10   1.541E-08 DIIS
    Iter  11:  -2.2426771770462059E+02  -2.879E-11   9.838E-09 DIIS

    FISAPTSCF Converged.

    Final SCF Energy:  -2.2426771770462059E+02 [Eh]

   => Occupied Orbital Energies <=

       1  -20.608957     2  -20.552801     3  -11.391775  
       4  -11.294060     5   -1.440017     6   -1.360196  
       7   -0.962233     8   -0.767699     9   -0.672271  
      10   -0.664519    11   -0.621356    12   -0.544380  
      13   -0.536287    14   -0.475672    15   -0.460941  

   => Virtual Orbital Energies <=

      16    0.033230    17    0.051518    18    0.056879  
      19    0.066537    20    0.073031    21    0.079295  
      22    0.085863    23    0.093978    24    0.100098  
      25    0.101231    26    0.103670    27    0.108319  
      28    0.115853    29    0.118464    30    0.126395  
      31    0.129403    32    0.134262    33    0.140976  
      34    0.146236    35    0.148676    36    0.154494  
      37    0.158268    38    0.160458    39    0.166092  
      40    0.168572    41    0.176376    42    0.181526  
      43    0.190110    44    0.200050    45    0.200977  
      46    0.206945    47    0.212517    48    0.218828  
      49    0.221769    50    0.229394    51    0.233783  
      52    0.238468    53    0.242019    54    0.250886  
      55    0.253836    56    0.261735    57    0.268952  
      58    0.272633    59    0.277666    60    0.279474  
      61    0.283829    62    0.287977    63    0.288907  
      64    0.300945    65    0.305350    66    0.307254  
      67    0.315405    68    0.321896    69    0.329479  
      70    0.335083    71    0.335787    72    0.344865  
      73    0.350502    74    0.352178    75    0.359283  
      76    0.368209    77    0.375023    78    0.378564  
      79    0.385086    80    0.387797    81    0.394024  
      82    0.400277    83    0.404428    84    0.414635  
      85    0.420756    86    0.431719    87    0.436373  
      88    0.443293    89    0.451211    90    0.459766  
      91    0.462901    92    0.469978    93    0.483620  
      94    0.487197    95    0.496610    96    0.500061  
      97    0.503051    98    0.517461    99    0.524680  
     100    0.533406   101    0.554502   102    0.564434  
     103    0.586805   104    0.590389   105    0.603152  
     106    0.610163   107    0.632623   108    0.634228  
     109    0.636025   110    0.651559   111    0.663485  
     112    0.691871   113    0.713395   114    0.740698  
     115    0.757582   116    0.760678   117    0.769029  
     118    0.784450   119    0.806758   120    0.812507  
     121    0.830251   122    0.838129   123    0.851131  
     124    0.863690   125    0.869230   126    0.891037  
     127    0.908275   128    0.915707   129    0.920848  
     130    0.926173   131    0.927461   132    0.930528  
     133    0.935845   134    0.940241   135    0.948389  
     136    0.951613   137    0.953269   138    0.966620  
     139    0.978947   140    0.982012   141    0.984752  
     142    0.993194   143    1.001788   144    1.004388  
     145    1.011539   146    1.024501   147    1.040993  
     148    1.045054   149    1.051976   150    1.068493  
     151    1.083947   152    1.105180   153    1.109207  
     154    1.131108   155    1.147037   156    1.158112  
     157    1.164622   158    1.170906   159    1.191274  
     160    1.205329   161    1.209812   162    1.241799  
     163    1.260405   164    1.265478   165    1.276026  
     166    1.296881   167    1.311677   168    1.326311  
     169    1.339562   170    1.350441   171    1.364095  
     172    1.392244   173    1.411843   174    1.420888  
     175    1.453042   176    1.470335   177    1.479774  
     178    1.494509   179    1.507758   180    1.532081  
     181    1.559223   182    1.568144   183    1.572825  
     184    1.582685   185    1.587921   186    1.598880  
     187    1.621729   188    1.637963   189    1.648687  
     190    1.667972   191    1.675421   192    1.684849  
     193    1.693764   194    1.700961   195    1.714543  
     196    1.744171   197    1.754327   198    1.764672  
     199    1.781588   200    1.783934   201    1.813230  
     202    1.816980   203    1.830298   204    1.836432  
     205    1.855248   206    1.882973   207    1.890705  
     208    1.898384   209    1.927369   210    1.933353  
     211    1.939668   212    1.947486   213    1.956747  
     214    1.966099   215    1.976601   216    1.986350  
     217    1.992206   218    2.003669   219    2.016103  
     220    2.026902   221    2.031133   222    2.040352  
     223    2.048452   224    2.060025   225    2.062569  
     226    2.065031   227    2.074432   228    2.076290  
     229    2.090111   230    2.126610   231    2.136016  
     232    2.147865   233    2.159398   234    2.166673  
     235    2.176805   236    2.182606   237    2.197351  
     238    2.199836   239    2.244774   240    2.271335  
     241    2.274449   242    2.280031   243    2.295099  
     244    2.311061   245    2.327653   246    2.338572  
     247    2.344139   248    2.358328   249    2.382480  
     250    2.391884   251    2.402730   252    2.411285  
     253    2.428389   254    2.431434   255    2.446972  
     256    2.474550   257    2.513215   258    2.524341  
     259    2.532472   260    2.563945   261    2.576057  
     262    2.595941   263    2.602996   264    2.635479  
     265    2.649810   266    2.678498   267    2.689552  
     268    2.706565   269    2.712287   270    2.729432  
     271    2.764029   272    2.781499   273    2.808746  
     274    2.820561   275    2.836061   276    2.857639  
     277    2.865960   278    2.873487   279    2.879030  
     280    2.887066   281    2.888593   282    2.912994  
     283    2.915994   284    2.923458   285    2.946383  
     286    2.967418   287    2.992288   288    3.064034  
     289    3.082286   290    3.102072   291    3.112717  
     292    3.149058   293    3.194204   294    3.252873  
     295    3.291574   296    3.344070   297    3.379693  
     298    3.445286   299    3.580688   300    3.656231  
     301    3.674160   302    3.776844   303    3.803208  
     304    3.875621   305    3.948477   306    4.007122  
     307    4.092681   308    4.124109   309    4.249710  
     310    4.433226   311    4.513653   312    4.566174  
     313    4.739278   314    4.968974   315    5.041252  
     316    5.068320   317    5.221786   318    5.346395  
     319    5.543386   320    5.552626   321    5.644211  
     322    5.874100   323    6.263978   324    6.388141  
     325    6.741647   326   13.412479   327   18.436899  
     328   33.423107   329   33.480980  

  ==> SCF B: <==

    Maxiter =          50
    E Tol   =   1.000E-06
    D Tol   =   1.000E-08

    Max DIIS Vectors = 5

    Iter   N:                        E          dE         |D|
    Iter   1:  -2.2386698084818522E+02  -2.239E+02   1.155E-03 
    Iter   2:  -2.2389157832582418E+02  -2.460E-02   7.238E-05 DIIS
    Iter   3:  -2.2389195314515257E+02  -3.748E-04   2.813E-05 DIIS
    Iter   4:  -2.2389199332408003E+02  -4.018E-05   1.184E-05 DIIS
    Iter   5:  -2.2389200158387450E+02  -8.260E-06   2.019E-06 DIIS
    Iter   6:  -2.2389200200564852E+02  -4.218E-07   7.309E-07 DIIS
    Iter   7:  -2.2389200206606674E+02  -6.042E-08   2.269E-07 DIIS
    Iter   8:  -2.2389200207073864E+02  -4.672E-09   9.246E-08 DIIS
    Iter   9:  -2.2389200207143406E+02  -6.954E-10   3.564E-08 DIIS
    Iter  10:  -2.2389200207156972E+02  -1.357E-10   1.349E-08 DIIS
    Iter  11:  -2.2389200207158558E+02  -1.586E-11   6.163E-09 DIIS

    FISAPTSCF Converged.

    Final SCF Energy:  -2.2389200207158558E+02 [Eh]

   => Occupied Orbital Energies <=

       1  -20.598614     2  -20.540256     3  -11.383712  
       4  -11.289472     5   -1.431913     6   -1.348602  
       7   -0.956515     8   -0.760242     9   -0.662571  
      10   -0.653872    11   -0.616664    12   -0.531622  
      13   -0.529619    14   -0.467497    15   -0.453728  

   => Virtual Orbital Energies <=

      16    0.032666    17    0.053067    18    0.061338  
      19    0.064695    20    0.066911    21    0.078414  
      22    0.082086    23    0.092297    24    0.096273  
      25    0.099612    26    0.103345    27    0.108257  
      28    0.112478    29    0.115267    30    0.117143  
      31    0.128290    32    0.135953    33    0.136871  
      34    0.140760    35    0.147251    36    0.152422  
      37    0.154848    38    0.163416    39    0.167364  
      40    0.171528    41    0.177676    42    0.180119  
      43    0.185025    44    0.198862    45    0.201317  
      46    0.210489    47    0.217813    48    0.223281  
      49    0.226462    50    0.228945    51    0.239963  
      52    0.247748    53    0.248155    54    0.250229  
      55    0.255223    56    0.258153    57    0.262885  
      58    0.267848    59    0.276906    60    0.281373  
      61    0.287998    62    0.293625    63    0.296029  
      64    0.300487    65    0.307139    66    0.314284  
      67    0.318363    68    0.323325    69    0.325130  
      70    0.328142    71    0.336183    72    0.343473  
      73    0.349061    74    0.353358    75    0.357053  
      76    0.367430    77    0.375573    78    0.382958  
      79    0.384593    80    0.393464    81    0.395128  
      82    0.406557    83    0.408535    84    0.411362  
      85    0.417320    86    0.425072    87    0.429519  
      88    0.437950    89    0.450143    90    0.457260  
      91    0.466123    92    0.473347    93    0.481488  
      94    0.486009    95    0.493019    96    0.497004  
      97    0.503220    98    0.518070    99    0.520724  
     100    0.529756   101    0.539409   102    0.546146  
     103    0.567122   104    0.574250   105    0.599206  
     106    0.606783   107    0.620852   108    0.633391  
     109    0.650064   110    0.659052   111    0.687976  
     112    0.693224   113    0.700567   114    0.746431  
     115    0.758111   116    0.763915   117    0.789856  
     118    0.797137   119    0.816448   120    0.824388  
     121    0.844923   122    0.855854   123    0.864850  
     124    0.878374   125    0.889566   126    0.901172  
     127    0.910550   128    0.915164   129    0.926098  
     130    0.928564   131    0.930272   132    0.945413  
     133    0.947050   134    0.952394   135    0.955763  
     136    0.965070   137    0.972059   138    0.974185  
     139    0.978561   140    0.988992   141    0.993260  
     142    0.996521   143    1.004587   144    1.014282  
     145    1.020926   146    1.023161   147    1.048831  
     148    1.055985   149    1.074796   150    1.083831  
     151    1.098514   152    1.106094   153    1.127071  
     154    1.148050   155    1.156181   156    1.163805  
     157    1.165556   158    1.176234   159    1.184387  
     160    1.193587   161    1.215060   162    1.225365  
     163    1.247295   164    1.249537   165    1.263538  
     166    1.272240   167    1.285239   168    1.303890  
     169    1.317925   170    1.325236   171    1.344423  
     172    1.351920   173    1.375019   174    1.385497  
     175    1.409637   176    1.449684   177    1.468175  
     178    1.477417   179    1.516164   180    1.539129  
     181    1.540942   182    1.562574   183    1.567532  
     184    1.581276   185    1.594070   186    1.599821  
     187    1.607968   188    1.618185   189    1.636019  
     190    1.641461   191    1.659941   192    1.677645  
     193    1.704382   194    1.712918   195    1.732000  
     196    1.735038   197    1.744807   198    1.788997  
     199    1.796653   200    1.803106   201    1.814172  
     202    1.828150   203    1.834687   204    1.843458  
     205    1.846644   206    1.871845   207    1.878235  
     208    1.901852   209    1.928409   210    1.935230  
     211    1.946074   212    1.949532   213    1.968436  
     214    1.971222   215    1.980266   216    1.988851  
     217    1.995299   218    2.007529   219    2.021031  
     220    2.032041   221    2.036661   222    2.047851  
     223    2.060726   224    2.065263   225    2.067207  
     226    2.080222   227    2.085821   228    2.091470  
     229    2.109895   230    2.116022   231    2.123315  
     232    2.146035   233    2.159521   234    2.161373  
     235    2.170995   236    2.187150   237    2.201668  
     238    2.210120   239    2.243328   240    2.259214  
     241    2.271637   242    2.279833   243    2.305723  
     244    2.315266   245    2.335832   246    2.340650  
     247    2.358874   248    2.374861   249    2.383185  
     250    2.395260   251    2.404828   252    2.424062  
     253    2.435480   254    2.446356   255    2.464509  
     256    2.494624   257    2.494755   258    2.541714  
     259    2.550249   260    2.568528   261    2.580965  
     262    2.610797   263    2.619086   264    2.636680  
     265    2.644438   266    2.664553   267    2.688034  
     268    2.715726   269    2.734653   270    2.782893  
     271    2.786468   272    2.796455   273    2.827632  
     274    2.849361   275    2.857510   276    2.859513  
     277    2.873886   278    2.877415   279    2.888732  
     280    2.893586   281    2.906865   282    2.919216  
     283    2.933845   284    2.954985   285    2.970615  
     286    2.996348   287    3.006418   288    3.033897  
     289    3.085759   290    3.108108   291    3.123241  
     292    3.162895   293    3.196037   294    3.260989  
     295    3.270759   296    3.310098   297    3.433655  
     298    3.469874   299    3.564101   300    3.634829  
     301    3.703249   302    3.783778   303    3.832802  
     304    3.870372   305    3.953627   306    4.013146  
     307    4.105928   308    4.144867   309    4.200760  
     310    4.448210   311    4.531608   312    4.536852  
     313    4.757426   314    4.934153   315    5.041036  
     316    5.067546   317    5.246303   318    5.325003  
     319    5.497952   320    5.584497   321    5.790427  
     322    5.850643   323    6.090960   324    6.372501  
     325    6.676237   326   13.391734   327   18.427763  
     328   33.425656   329   33.473891  

  ==> Frozen Core <==


    ------------------
    Range      A     B
    ------------------
    nbf      358   358
    nmo      329   329
    nocc      15    15
    nvir     314   314
    nfocc      4     4
    naocc     11    11
    navir    314   314
    nfvir      0     0
    ------------------

  ==> Unification <==

  ==> dHF <==

    E ABC(HF) =  -7.6211810534669257E+02 [Eh]
    E AC(0)   =  -5.3407393433890809E+02 [Eh]
    E BC(0)   =  -5.3413674366122871E+02 [Eh]
    E A(0)    =  -2.1266493049112111E+02 [Eh]
    E B(0)    =  -2.1262611413931975E+02 [Eh]
    E AC(HF)  =  -5.3406142647516083E+02 [Eh]
    E BC(HF)  =  -5.3411172243782823E+02 [Eh]
    E AB(HF)  =  -4.2525233005590053E+02 [Eh]
    E A(HF)   =  -2.1264458516230567E+02 [Eh]
    E B(HF)   =  -2.1258967733601284E+02 [Eh]
    E C       =  -3.0607311112386867E+02 [Eh]
    E HF      =   1.9461529575551140E-02 [Eh]

  ==> Electrostatics <==

    Elst10,r            =     0.010743347983 [Eh]

  ==> Exchange <==

    Exch10(S^2)         =     0.011944649329 [Eh]
    Exch10              =     0.012012727995 [Eh]

  ==> Induction <==

    Ind20,u (A<-B)      =    -0.001834426872 [Eh]
    Ind20,u (B<-A)      =    -0.002864758168 [Eh]
    Ind20,u             =    -0.004699185040 [Eh]
    Exch-Ind20,u (A<-B) =     0.001357842758 [Eh]
    Exch-Ind20,u (B<-A) =     0.001353341765 [Eh]
    Exch-Ind20,u        =     0.002711184523 [Eh]

  ==> CPHF Iterations <==

    Maxiter     =          50
    Convergence =   1.000E-08

    -----------------------------------------
    Iter   Monomer A    Monomer B    Time [s]
    -----------------------------------------
    1      1.462E-01    2.285E-01          10
    2      5.240E-02    8.588E-02          20
    3      1.027E-02    2.262E-02          29
    4      4.219E-03    7.614E-03          39
    5      1.385E-03    2.269E-03          49
    6      5.545E-04    9.069E-04          58
    7      1.663E-04    2.595E-04          68
    8      7.951E-05    1.062E-04          77
    9      1.806E-05    2.558E-05          87
    10     4.203E-06    7.716E-06          97
    11     2.037E-06    1.997E-06         106
    12     6.153E-07    4.826E-07         116
    13     1.337E-07    1.863E-07         126
    14     4.269E-08    5.347E-08         135
    15     7.242E-09*   9.184E-09*        145
    -----------------------------------------

    Ind20,r (A<-B)      =    -0.002096837769 [Eh]
    Ind20,r (B<-A)      =    -0.003414618542 [Eh]
    Ind20,r             =    -0.005511456312 [Eh]
    Exch-Ind20,r (A<-B) =     0.001605777766 [Eh]
    Exch-Ind20,r (B<-A) =     0.001761795166 [Eh]
    Exch-Ind20,r        =     0.003367572932 [Eh]

  ==> F-SAPT Localization (IBO) <==

  Local Orbitals for Monomer A:

  ==> IBO Localizer 2 <==

    MinAO Basis = CC-PVTZ-MINAO
    Use Ghosts  =       FALSE
    Use Stars   =       FALSE
    Condition   =   1.000E-07
    Power       =           4
    Convergence =   1.000E-12
    Maxiter     =        1000

    @IBO Iter:                   Metric       Gradient
    @IBO    1:   1.4819957622958959E+00   1.687623E+00
    @IBO    2:   1.6775286656153425E+00   9.392307E-01
    @IBO    3:   1.7089477127986286E+00   3.254875E-01
    @IBO    4:   1.7102498967353938E+00   2.699839E-03
    @IBO    5:   1.7102501411847528E+00   1.166005E-04
    @IBO    6:   1.7102501413562239E+00   2.238104E-06
    @IBO    7:   1.7102501413563309E+00   8.162255E-08
    @IBO    8:   1.7102501413563311E+00   2.902553E-09
    @IBO    9:   1.7102501413563311E+00   1.173512E-10
    @IBO   10:   1.7102501413563311E+00   4.990713E-12
    @IBO   11:   1.7102501413563311E+00   2.157723E-13

    IBO Localizer 2 converged.

  Local Orbitals for Monomer B:

  ==> IBO Localizer 2 <==

    MinAO Basis = CC-PVTZ-MINAO
    Use Ghosts  =       FALSE
    Use Stars   =       FALSE
    Condition   =   1.000E-07
    Power       =           4
    Convergence =   1.000E-12
    Maxiter     =        1000

    @IBO Iter:                   Metric       Gradient
    @IBO    1:   1.4797782136391751E+00   1.652842E+00
    @IBO    2:   1.6781185510613947E+00   9.285263E-01
    @IBO    3:   1.7095031010155874E+00   2.838643E-01
    @IBO    4:   1.7105549155756670E+00   3.168988E-03
    @IBO    5:   1.7105552241662005E+00   9.206128E-05
    @IBO    6:   1.7105552242914470E+00   1.571468E-06
    @IBO    7:   1.7105552242914965E+00   4.795210E-08
    @IBO    8:   1.7105552242914965E+00   1.014277E-09
    @IBO    9:   1.7105552242914963E+00   2.141232E-11
    @IBO   10:   1.7105552242914965E+00   4.452625E-13

    IBO Localizer 2 converged.

  ==> F-SAPT Electrostatics <==

  ==> DFERI: Density Fitted 3-Index Tensors <==

    Schwarz cutoff =   0.000E+00
    J cutoff       =   1.000E-12
    Mem (GB)       =         628

   => Auxiliary Basis <=

  Basis Set: (JUN-CC-PVDZ AUX)
    Blend: JUN-CC-PVDZ-JKFIT
    Number of shells: 558
    Number of basis function: 1586
    Number of Cartesian functions: 1806
    Spherical Harmonics?: true
    Max angular momentum: 3

    Elst10,r            =     0.010743356726 [Eh]

  ==> F-SAPT Exchange <==

  ==> DFERI: Density Fitted 3-Index Tensors <==

    Schwarz cutoff =   0.000E+00
    J cutoff       =   1.000E-12
    Mem (GB)       =         628

   => Auxiliary Basis <=

  Basis Set: (JUN-CC-PVDZ AUX)
    Blend: JUN-CC-PVDZ-JKFIT
    Number of shells: 558
    Number of basis function: 1586
    Number of Cartesian functions: 1806
    Spherical Harmonics?: true
    Max angular momentum: 3

    Exch10(S^2)         =     0.011944634603 [Eh]

    Scaling F-SAPT Exch10(S^2) by   1.006E+00 to match Exch10

  ==> F-SAPT Induction <==

  ==> DFERI: Density Fitted 3-Index Tensors <==

    Schwarz cutoff =   0.000E+00
    J cutoff       =   1.000E-12
    Mem (GB)       =         628

   => Auxiliary Basis <=

  Basis Set: (JUN-CC-PVDZ AUX)
    Blend: JUN-CC-PVDZ-JKFIT
    Number of shells: 558
    Number of basis function: 1586
    Number of Cartesian functions: 1806
    Spherical Harmonics?: true
    Max angular momentum: 3

    Ind20,u (A<-B)      =    -0.001834426927 [Eh]
    Ind20,u (B<-A)      =    -0.002864758374 [Eh]
    Ind20,u             =    -0.004699185301 [Eh]
    Exch-Ind20,u (A<-B) =     0.001357842765 [Eh]
    Exch-Ind20,u (B<-A) =     0.001353341735 [Eh]
    Exch-Ind20,u        =     0.002711184500 [Eh]

    Scaling for delta HF        =   1.537E+00
    Scaling for response (A<-B) =   1.030E+00
    Scaling for response (B<-A) =   1.094E+00
    Scaling for total (A<-B)    =   1.583E+00
    Scaling for total (B<-A)    =   1.680E+00

  ==> F-SAPT Dispersion <==

  ==> DFERI: Density Fitted 3-Index Tensors <==

    Schwarz cutoff =   0.000E+00
    J cutoff       =   1.000E-12
    Mem (GB)       =         628

   => Auxiliary Basis <=

  Basis Set: (JUN-CC-PVDZ AUX)
    Blend: JUN-CC-PVDZ-RI
    Number of shells: 420
    Number of basis function: 1236
    Number of Cartesian functions: 1426
    Spherical Harmonics?: true
    Max angular momentum: 3

    Disp20              =    -0.005570120396 [Eh]
    Exch-Disp20         =     0.000823399102 [Eh]

  ==> F-SAPT Output <==

    F-SAPT Data Filepath = fsapt/

  ==> Results <==


    SAPT Results  
  --------------------------------------------------------------------------------------------------------
    Electrostatics                 10.74334798 [mEh]       6.74155292 [kcal/mol]      28.20666013 [kJ/mol]
      Elst10,r                     10.74334798 [mEh]       6.74155292 [kcal/mol]      28.20666013 [kJ/mol]

    Exchange                       12.01272800 [mEh]       7.53810094 [kcal/mol]      31.53941735 [kJ/mol]
      Exch10                       12.01272800 [mEh]       7.53810094 [kcal/mol]      31.53941735 [kJ/mol]
      Exch10(S^2)                  11.94464933 [mEh]       7.49538093 [kcal/mol]      31.36067681 [kJ/mol]

    Induction                      -3.29454640 [mEh]      -2.06735917 [kcal/mol]      -8.64983158 [kJ/mol]
      Ind20,r                      -5.51145631 [mEh]      -3.45849119 [kcal/mol]     -14.47032855 [kJ/mol]
      Exch-Ind20,r                  3.36757293 [mEh]       2.11318401 [kcal/mol]       8.84156273 [kJ/mol]
      delta HF,r (2)               -1.15066302 [mEh]      -0.72205198 [kcal/mol]      -3.02106577 [kJ/mol]
      Induction (A<-B)             -0.75462126 [mEh]      -0.47353201 [kcal/mol]      -1.98125811 [kJ/mol]
      Induction (B<-A)             -2.53992515 [mEh]      -1.59382716 [kcal/mol]      -6.66857347 [kJ/mol]

    Dispersion                     -4.74672129 [mEh]      -2.97861271 [kcal/mol]     -12.46251676 [kJ/mol]
      Disp20                       -5.57012040 [mEh]      -3.49530346 [kcal/mol]     -14.62435110 [kJ/mol]
      Exch-Disp20                   0.82339910 [mEh]       0.51669076 [kcal/mol]       2.16183434 [kJ/mol]

  Total HF                         19.46152958 [mEh]      12.21229469 [kcal/mol]      51.09624590 [kJ/mol]
  Total SAPT0                      14.71480828 [mEh]       9.23368199 [kcal/mol]      38.63372914 [kJ/mol]

  --------------------------------------------------------------------------------------------------------
    Han Solo: This is *not* gonna work.
    Luke Skywalker: Why didn't you say so before?
    Han Solo: I *did* say so before.

*** tstop() called on ThinkPad-P50 at Mon Jan 15 18:52:52 2018
Module time:
	user time   =     340.27 seconds =       5.67 minutes
	system time =       2.14 seconds =       0.04 minutes
	total time  =        342 seconds =       5.70 minutes
Total time:
	user time   =     423.81 seconds =       7.06 minutes
	system time =       2.72 seconds =       0.05 minutes
	total time  =        426 seconds =       7.10 minutes

*** Psi4 exiting successfully. Buy a developer a beer!
