
    -----------------------------------------------------------------------
          Psi4: An Open-Source Ab Initio Electronic Structure Package
                               Psi4 1.1 release

                         Git: Rev {HEAD} add49b9 


    R. M. Parrish, L. A. Burns, D. G. A. Smith, A. C. Simmonett,
    A. E. DePrince III, E. G. Hohenstein, U. Bozkaya, A. Yu. Sokolov,
    R. Di Remigio, R. M. Richard, J. F. Gonthier, A. M. James,
    H. R. McAlexander, A. Kumar, M. Saitow, X. Wang, B. P. Pritchard,
    P. Verma, H. F. Schaefer III, K. Patkowski, R. A. King, E. F. Valeev,
    F. A. Evangelista, J. M. Turney, T. D. Crawford, and C. D. Sherrill,
    J. Chem. Theory Comput. in press (2017).
    (doi: 10.1021/acs.jctc.7b00174)

    -----------------------------------------------------------------------


    Psi4 started on: Monday, 15 January 2018 06:52PM

    Process ID:  21427
    PSIDATADIR: /home/junteng/Softwares/psi4conda/share/psi4
    Memory:     500.0 MiB
    Threads:    1
    
  ==> Input File <==

--------------------------------------------------------------------------
memory 750000 mb

molecule mol {
0 1
C         -0.04267        3.27951       -0.18928
H         -0.80730        3.33033        0.59133
H         -0.55603        3.33728       -1.15274
H          0.59875        4.15632       -0.09009
--
0 1
C         -1.34499        0.77476       -0.28278
O         -1.91200        0.87864       -1.34136
O         -1.96720        0.79415        0.91201
C         -3.40514        0.82382        0.86832
H         -3.75713        1.71250        0.34215
H         -3.72708        0.83869        1.90724
H         -3.78435       -0.06548        0.36178
--
0 1
C          3.21173       -1.58756        0.18748
H          3.11565       -2.22848       -0.69038
H          2.96526       -2.21459        1.04621
H          4.25051       -1.26355        0.27556
C          0.23682       -1.78307       -0.07144
O          0.80387       -2.85160       -0.02158
O         -1.10553       -1.69654       -0.17947
C         -1.82703       -2.93588       -0.26102
H         -2.86734       -2.65355       -0.40732
H         -1.70802       -3.50704        0.66122
H         -1.46982       -3.53099       -1.10214
C          0.90114       -0.44258       -0.02801
C          0.15263        0.75062       -0.11404
C          2.31053       -0.37923        0.09634
C          2.90211        0.88499        0.13631
C          2.15416        2.05120        0.05067
C          0.76738        2.00921       -0.08102
H          2.65523        3.01281        0.08588
H          3.97960        0.95241        0.23649

symmetry c1
no_reorient
no_com
}

set {
basis jun-cc-pvdz
scf_type df
guess sad
freeze_core true
}

energy('fisapt0')
--------------------------------------------------------------------------

  Memory set to 698.492 GiB by Python driver.

*** tstart() called on ThinkPad-P50
*** at Mon Jan 15 18:52:52 2018

   => Loading Basis Set <=

    Name: JUN-CC-PVDZ
    Role: ORBITAL
    Keyword: BASIS
    atoms 1, 5, 8, 12, 16, 19, 23-28     entry C          line   157 file /home/junteng/Softwares/psi4conda/share/psi4/basis/jun-cc-pvdz.gbs 
    atoms 2-4, 9-11, 13-15, 20-22, 29-30 entry H          line    35 file /home/junteng/Softwares/psi4conda/share/psi4/basis/jun-cc-pvdz.gbs 
    atoms 6-7, 17-18                     entry O          line   225 file /home/junteng/Softwares/psi4conda/share/psi4/basis/jun-cc-pvdz.gbs 


         ---------------------------------------------------------
                                   SCF
            by Justin Turney, Rob Parrish, and Andy Simmonett
                              RHF Reference
                        1 Threads, 715255 MiB Core
         ---------------------------------------------------------

  ==> Geometry <==

    Molecular point group: c1
    Full point group: C1

    Geometry (in Angstrom), charge = 0, multiplicity = 1:

       Center              X                  Y                   Z               Mass       
    ------------   -----------------  -----------------  -----------------  -----------------
           C         -0.042670000000     3.279510000000    -0.189280000000    12.000000000000
           H         -0.807300000000     3.330330000000     0.591330000000     1.007825032070
           H         -0.556030000000     3.337280000000    -1.152740000000     1.007825032070
           H          0.598750000000     4.156320000000    -0.090090000000     1.007825032070
           C         -1.344990000000     0.774760000000    -0.282780000000    12.000000000000
           O         -1.912000000000     0.878640000000    -1.341360000000    15.994914619560
           O         -1.967200000000     0.794150000000     0.912010000000    15.994914619560
           C         -3.405140000000     0.823820000000     0.868320000000    12.000000000000
           H         -3.757130000000     1.712500000000     0.342150000000     1.007825032070
           H         -3.727080000000     0.838690000000     1.907240000000     1.007825032070
           H         -3.784350000000    -0.065480000000     0.361780000000     1.007825032070
           C          3.211730000000    -1.587560000000     0.187480000000    12.000000000000
           H          3.115650000000    -2.228480000000    -0.690380000000     1.007825032070
           H          2.965260000000    -2.214590000000     1.046210000000     1.007825032070
           H          4.250510000000    -1.263550000000     0.275560000000     1.007825032070
           C          0.236820000000    -1.783070000000    -0.071440000000    12.000000000000
           O          0.803870000000    -2.851600000000    -0.021580000000    15.994914619560
           O         -1.105530000000    -1.696540000000    -0.179470000000    15.994914619560
           C         -1.827030000000    -2.935880000000    -0.261020000000    12.000000000000
           H         -2.867340000000    -2.653550000000    -0.407320000000     1.007825032070
           H         -1.708020000000    -3.507040000000     0.661220000000     1.007825032070
           H         -1.469820000000    -3.530990000000    -1.102140000000     1.007825032070
           C          0.901140000000    -0.442580000000    -0.028010000000    12.000000000000
           C          0.152630000000     0.750620000000    -0.114040000000    12.000000000000
           C          2.310530000000    -0.379230000000     0.096340000000    12.000000000000
           C          2.902110000000     0.884990000000     0.136310000000    12.000000000000
           C          2.154160000000     2.051200000000     0.050670000000    12.000000000000
           C          0.767380000000     2.009210000000    -0.081020000000    12.000000000000
           H          2.655230000000     3.012810000000     0.085880000000     1.007825032070
           H          3.979600000000     0.952410000000     0.236490000000     1.007825032070

  Running in c1 symmetry.

  Rotational constants: A =      0.02130  B =      0.01876  C =      0.01079 [cm^-1]
  Rotational constants: A =    638.47031  B =    562.39929  C =    323.54509 [MHz]
  Nuclear repulsion = 1143.391977762463512

  Charge       = 0
  Multiplicity = 1
  Electrons    = 118
  Nalpha       = 59
  Nbeta        = 59

  ==> Algorithm <==

  SCF Algorithm Type is DF.
  DIIS enabled.
  MOM disabled.
  Fractional occupation disabled.
  Guess Type is SAD.
  Energy threshold   = 1.00e-08
  Density threshold  = 1.00e-08
  Integral threshold = 0.00e+00

  ==> Primary Basis <==

  Basis Set: JUN-CC-PVDZ
    Blend: JUN-CC-PVDZ
    Number of shells: 170
    Number of basis function: 358
    Number of Cartesian functions: 374
    Spherical Harmonics?: true
    Max angular momentum: 2

   => Loading Basis Set <=

    Name: (JUN-CC-PVDZ AUX)
    Role: JKFIT
    Keyword: DF_BASIS_SCF
    atoms 1, 5, 8, 12, 16, 19, 23-28     entry C          line   145 file /home/junteng/Softwares/psi4conda/share/psi4/basis/jun-cc-pvdz-jkfit.gbs 
    atoms 2-4, 9-11, 13-15, 20-22, 29-30 entry H          line    69 file /home/junteng/Softwares/psi4conda/share/psi4/basis/jun-cc-pvdz-jkfit.gbs 
    atoms 6-7, 17-18                     entry O          line   257 file /home/junteng/Softwares/psi4conda/share/psi4/basis/jun-cc-pvdz-jkfit.gbs 

  ==> Pre-Iterations <==

   -------------------------------------------------------
    Irrep   Nso     Nmo     Nalpha   Nbeta   Ndocc  Nsocc
   -------------------------------------------------------
     A        358     358       0       0       0       0
   -------------------------------------------------------
    Total     358     358      59      59      59       0
   -------------------------------------------------------

  ==> Integral Setup <==

  ==> DFJK: Density-Fitted J/K Matrices <==

    J tasked:                  Yes
    K tasked:                  Yes
    wK tasked:                  No
    OpenMP threads:              1
    Integrals threads:           1
    Memory (MB):            536441
    Algorithm:                Core
    Integral Cache:           NONE
    Schwarz Cutoff:          1E-12
    Fitting Condition:       1E-12

   => Auxiliary Basis Set <=

  Basis Set: (JUN-CC-PVDZ AUX)
    Blend: JUN-CC-PVDZ-JKFIT
    Number of shells: 558
    Number of basis function: 1586
    Number of Cartesian functions: 1806
    Spherical Harmonics?: true
    Max angular momentum: 3

  Minimum eigenvalue in the overlap matrix is 2.6911722841E-06.
  Using Symmetric Orthogonalization.

  SCF Guess: Superposition of Atomic Densities via on-the-fly atomic UHF.

  ==> Iterations <==

                           Total Energy        Delta E     RMS |[F,P]|

   @DF-RHF iter   0:  -768.19313842267752   -7.68193e+02   2.05245e-02 
   @DF-RHF iter   1:  -761.62037761026261    6.57276e+00   2.32349e-03 
   @DF-RHF iter   2:  -762.00250610210901   -3.82128e-01   1.33562e-03 DIIS
   @DF-RHF iter   3:  -762.09596593077038   -9.34598e-02   4.69008e-04 DIIS
   @DF-RHF iter   4:  -762.11538565787464   -1.94197e-02   1.53149e-04 DIIS
   @DF-RHF iter   5:  -762.11760464853796   -2.21899e-03   5.13370e-05 DIIS
   @DF-RHF iter   6:  -762.11802466431777   -4.20016e-04   2.06526e-05 DIIS
   @DF-RHF iter   7:  -762.11809374536506   -6.90810e-05   8.30039e-06 DIIS
   @DF-RHF iter   8:  -762.11810366931184   -9.92395e-06   2.63697e-06 DIIS
   @DF-RHF iter   9:  -762.11810494881331   -1.27950e-06   1.37468e-06 DIIS
   @DF-RHF iter  10:  -762.11810528514377   -3.36330e-07   4.74606e-07 DIIS
   @DF-RHF iter  11:  -762.11810534401297   -5.88692e-08   1.93015e-07 DIIS
   @DF-RHF iter  12:  -762.11810535506618   -1.10532e-08   9.50823e-08 DIIS
   @DF-RHF iter  13:  -762.11810535757581   -2.50964e-09   4.45749e-08 DIIS
   @DF-RHF iter  14:  -762.11810535819654   -6.20730e-10   1.84832e-08 DIIS
   @DF-RHF iter  15:  -762.11810535827635   -7.98082e-11   6.28217e-09 DIIS

  ==> Post-Iterations <==

    Orbital Energies (a.u.)
    -----------------------

    Doubly Occupied:                                                      

       1A    -20.612443     2A    -20.610507     3A    -20.555282  
       4A    -20.553806     5A    -11.397816     6A    -11.396556  
       7A    -11.298293     8A    -11.296954     9A    -11.275861  
      10A    -11.270843    11A    -11.269123    12A    -11.261907  
      13A    -11.258041    14A    -11.248050    15A    -11.238452  
      16A    -11.227317    17A     -1.473384    18A     -1.464245  
      19A     -1.367074    20A     -1.365517    21A     -1.183750  
      22A     -1.085776    23A     -1.064426    24A     -0.993411  
      25A     -0.985458    26A     -0.970305    27A     -0.914941  
      28A     -0.879368    29A     -0.833315    30A     -0.785096  
      31A     -0.770237    32A     -0.726533    33A     -0.708370  
      34A     -0.696585    35A     -0.679983    36A     -0.673242  
      37A     -0.668187    38A     -0.655208    39A     -0.640941  
      40A     -0.607070    41A     -0.592211    42A     -0.583359  
      43A     -0.575008    44A     -0.567390    45A     -0.562269  
      46A     -0.551686    47A     -0.547737    48A     -0.537776  
      49A     -0.534522    50A     -0.528180    51A     -0.515106  
      52A     -0.503816    53A     -0.489052    54A     -0.472244  
      55A     -0.456531    56A     -0.452869    57A     -0.444157  
      58A     -0.355301    59A     -0.330799  

    Virtual:                                                              

      60A      0.053367    61A      0.054921    62A      0.058534  
      63A      0.067060    64A      0.071366    65A      0.076335  
      66A      0.084496    67A      0.092720    68A      0.095849  
      69A      0.101242    70A      0.103520    71A      0.109051  
      72A      0.114529    73A      0.117155    74A      0.119157  
      75A      0.126357    76A      0.134781    77A      0.137155  
      78A      0.142805    79A      0.149831    80A      0.152155  
      81A      0.160470    82A      0.164381    83A      0.170499  
      84A      0.172971    85A      0.182124    86A      0.188979  
      87A      0.191564    88A      0.200910    89A      0.203668  
      90A      0.211831    91A      0.220807    92A      0.224324  
      93A      0.229198    94A      0.230517    95A      0.234333  
      96A      0.235463    97A      0.243507    98A      0.249120  
      99A      0.254913   100A      0.262707   101A      0.266158  
     102A      0.271157   103A      0.273556   104A      0.276895  
     105A      0.292682   106A      0.294862   107A      0.297073  
     108A      0.301653   109A      0.303113   110A      0.314769  
     111A      0.320492   112A      0.324703   113A      0.332091  
     114A      0.333959   115A      0.338937   116A      0.342207  
     117A      0.347607   118A      0.353138   119A      0.359890  
     120A      0.372987   121A      0.374911   122A      0.375457  
     123A      0.382237   124A      0.394199   125A      0.399617  
     126A      0.400675   127A      0.413886   128A      0.414427  
     129A      0.418279   130A      0.421115   131A      0.432089  
     132A      0.434472   133A      0.441092   134A      0.450091  
     135A      0.456373   136A      0.465145   137A      0.466942  
     138A      0.475338   139A      0.478022   140A      0.485597  
     141A      0.494843   142A      0.499745   143A      0.509538  
     144A      0.514866   145A      0.524199   146A      0.533700  
     147A      0.539991   148A      0.552538   149A      0.583307  
     150A      0.586547   151A      0.611428   152A      0.624829  
     153A      0.641315   154A      0.676768   155A      0.699324  
     156A      0.728888   157A      0.747414   158A      0.757213  
     159A      0.769306   160A      0.785072   161A      0.788924  
     162A      0.795184   163A      0.806225   164A      0.826253  
     165A      0.837413   166A      0.843897   167A      0.855884  
     168A      0.870962   169A      0.880618   170A      0.892014  
     171A      0.895000   172A      0.907972   173A      0.912975  
     174A      0.915517   175A      0.923337   176A      0.926466  
     177A      0.932241   178A      0.935709   179A      0.942517  
     180A      0.943797   181A      0.950073   182A      0.959194  
     183A      0.963009   184A      0.965382   185A      0.970533  
     186A      0.976681   187A      0.987412   188A      0.990980  
     189A      0.994090   190A      1.004299   191A      1.024052  
     192A      1.027857   193A      1.043031   194A      1.058967  
     195A      1.059527   196A      1.069126   197A      1.076387  
     198A      1.097970   199A      1.119026   200A      1.132847  
     201A      1.140213   202A      1.143733   203A      1.163486  
     204A      1.172149   205A      1.174902   206A      1.210144  
     207A      1.216102   208A      1.228358   209A      1.232427  
     210A      1.245742   211A      1.258306   212A      1.262915  
     213A      1.281656   214A      1.308353   215A      1.322768  
     216A      1.325630   217A      1.332871   218A      1.360101  
     219A      1.373760   220A      1.385995   221A      1.396434  
     222A      1.406689   223A      1.428643   224A      1.453872  
     225A      1.489414   226A      1.492260   227A      1.509438  
     228A      1.520143   229A      1.542312   230A      1.556683  
     231A      1.563822   232A      1.579162   233A      1.591862  
     234A      1.601201   235A      1.608831   236A      1.611822  
     237A      1.628092   238A      1.646166   239A      1.658635  
     240A      1.668778   241A      1.673587   242A      1.680994  
     243A      1.695272   244A      1.698287   245A      1.713183  
     246A      1.718687   247A      1.733295   248A      1.758782  
     249A      1.774496   250A      1.796798   251A      1.804690  
     252A      1.814533   253A      1.829866   254A      1.836536  
     255A      1.857112   256A      1.873454   257A      1.878912  
     258A      1.905224   259A      1.909159   260A      1.922641  
     261A      1.933241   262A      1.940284   263A      1.952100  
     264A      1.960705   265A      1.969717   266A      1.970409  
     267A      1.980402   268A      1.987228   269A      1.999682  
     270A      2.011083   271A      2.018495   272A      2.023386  
     273A      2.036286   274A      2.046076   275A      2.049354  
     276A      2.056999   277A      2.064828   278A      2.076174  
     279A      2.083369   280A      2.096507   281A      2.110135  
     282A      2.115599   283A      2.134938   284A      2.145521  
     285A      2.166782   286A      2.173526   287A      2.183722  
     288A      2.186326   289A      2.196743   290A      2.217752  
     291A      2.250202   292A      2.266473   293A      2.283909  
     294A      2.295815   295A      2.313306   296A      2.333181  
     297A      2.359170   298A      2.366035   299A      2.388875  
     300A      2.399471   301A      2.402907   302A      2.421073  
     303A      2.434118   304A      2.436746   305A      2.449804  
     306A      2.472137   307A      2.515825   308A      2.519323  
     309A      2.525386   310A      2.558935   311A      2.594784  
     312A      2.601936   313A      2.607032   314A      2.655573  
     315A      2.684268   316A      2.716770   317A      2.760675  
     318A      2.774276   319A      2.779560   320A      2.790267  
     321A      2.816472   322A      2.839024   323A      2.853237  
     324A      2.858083   325A      2.867231   326A      2.874460  
     327A      2.879145   328A      2.894320   329A      2.903768  
     330A      2.915522   331A      2.939779   332A      2.957065  
     333A      2.995532   334A      3.027794   335A      3.038096  
     336A      3.063547   337A      3.088443   338A      3.114680  
     339A      3.137599   340A      3.156285   341A      3.236789  
     342A      3.248176   343A      3.284679   344A      3.293398  
     345A      3.340808   346A      3.375844   347A      3.439624  
     348A      3.548669   349A      3.575337   350A      3.645953  
     351A      3.680994   352A      3.731998   353A      3.775457  
     354A      3.832277   355A      3.939909   356A      3.991135  
     357A      4.086625   358A      4.094562  

    Final Occupation by Irrep:
              A 
    DOCC [    59 ]

  Energy converged.

  @DF-RHF Final Energy:  -762.11810535827635

   => Energetics <=

    Nuclear Repulsion Energy =           1143.3919777624635117
    One-Electron Energy =               -3311.8927954485325245
    Two-Electron Energy =                1406.3827123277928877
    DFT Exchange-Correlation Energy =       0.0000000000000000
    Empirical Dispersion Energy =           0.0000000000000000
    PCM Polarization Energy =               0.0000000000000000
    EFP Energy =                            0.0000000000000000
    Total Energy =                       -762.1181053582763525



Properties will be evaluated at   0.000000,   0.000000,   0.000000 Bohr

Properties computed using the SCF density matrix

  Nuclear Dipole Moment: (a.u.)
     X:     2.9122      Y:    -0.8530      Z:    -2.0954

  Electronic Dipole Moment: (a.u.)
     X:    -3.1718      Y:     1.4006      Z:     2.7731

  Dipole Moment: (a.u.)
     X:    -0.2596      Y:     0.5476      Z:     0.6777     Total:     0.9091

  Dipole Moment: (Debye)
     X:    -0.6599      Y:     1.3919      Z:     1.7225     Total:     2.3108


*** tstop() called on ThinkPad-P50 at Mon Jan 15 18:54:15 2018
Module time:
	user time   =      81.93 seconds =       1.37 minutes
	system time =       0.55 seconds =       0.01 minutes
	total time  =         83 seconds =       1.38 minutes
Total time:
	user time   =      81.93 seconds =       1.37 minutes
	system time =       0.55 seconds =       0.01 minutes
	total time  =         83 seconds =       1.38 minutes
   => Loading Basis Set <=

    Name: (JUN-CC-PVDZ AUX)
    Role: JKFIT
    Keyword: DF_BASIS_SCF
    atoms 1, 5, 8, 12, 16, 19, 23-28     entry C          line   145 file /home/junteng/Softwares/psi4conda/share/psi4/basis/jun-cc-pvdz-jkfit.gbs 
    atoms 2-4, 9-11, 13-15, 20-22, 29-30 entry H          line    69 file /home/junteng/Softwares/psi4conda/share/psi4/basis/jun-cc-pvdz-jkfit.gbs 
    atoms 6-7, 17-18                     entry O          line   257 file /home/junteng/Softwares/psi4conda/share/psi4/basis/jun-cc-pvdz-jkfit.gbs 

   => Loading Basis Set <=

    Name: (JUN-CC-PVDZ AUX)
    Role: RIFIT
    Keyword: DF_BASIS_SAPT
    atoms 1, 5, 8, 12, 16, 19, 23-28     entry C          line    99 file /home/junteng/Softwares/psi4conda/share/psi4/basis/jun-cc-pvdz-ri.gbs 
    atoms 2-4, 9-11, 13-15, 20-22, 29-30 entry H          line    29 file /home/junteng/Softwares/psi4conda/share/psi4/basis/jun-cc-pvdz-ri.gbs 
    atoms 6-7, 17-18                     entry O          line   187 file /home/junteng/Softwares/psi4conda/share/psi4/basis/jun-cc-pvdz-ri.gbs 

   => Loading Basis Set <=

    Name: CC-PVTZ-MINAO
    Role: ORBITAL
    Keyword: BASIS
    atoms 1, 5, 8, 12, 16, 19, 23-28     entry C          line   130 file /home/junteng/Softwares/psi4conda/share/psi4/basis/cc-pvtz-minao.gbs 
    atoms 2-4, 9-11, 13-15, 20-22, 29-30 entry H          line    19 file /home/junteng/Softwares/psi4conda/share/psi4/basis/cc-pvtz-minao.gbs 
    atoms 6-7, 17-18                     entry O          line   190 file /home/junteng/Softwares/psi4conda/share/psi4/basis/cc-pvtz-minao.gbs 


*** tstart() called on ThinkPad-P50
*** at Mon Jan 15 18:54:15 2018

	 --------------------------------------------
	                    FISAPT0                  
	                  Rob Parrish                
	 --------------------------------------------

    Do F-SAPT =         Yes
    Do Plot   =          No
    Memory    =      78.580 [GD]

  ==> Localization (IBO) <==

  ==> IBO Localizer 2 <==

    MinAO Basis = CC-PVTZ-MINAO
    Use Ghosts  =       FALSE
    Use Stars   =       FALSE
    Condition   =   1.000E-07
    Power       =           4
    Convergence =   1.000E-12
    Maxiter     =        1000

    @IBO Iter:                   Metric       Gradient
    @IBO    1:   1.9644542129931515E+00   2.904469E+00
    @IBO    2:   2.2137838644386183E+00   1.898290E+00
    @IBO    3:   2.2819839711807508E+00   9.708633E-01
    @IBO    4:   2.2886572151177837E+00   3.883290E-02
    @IBO    5:   2.2886697269820071E+00   6.064341E-04
    @IBO    6:   2.2886697306839774E+00   3.101219E-05
    @IBO    7:   2.2886697307209789E+00   6.018055E-06
    @IBO    8:   2.2886697307226318E+00   1.335027E-06
    @IBO    9:   2.2886697307227171E+00   3.045209E-07
    @IBO   10:   2.2886697307227215E+00   7.021291E-08
    @IBO   11:   2.2886697307227220E+00   1.626587E-08
    @IBO   12:   2.2886697307227215E+00   3.775959E-09
    @IBO   13:   2.2886697307227215E+00   8.771586E-10
    @IBO   14:   2.2886697307227211E+00   2.037649E-10
    @IBO   15:   2.2886697307227215E+00   4.731908E-11
    @IBO   16:   2.2886697307227211E+00   1.098347E-11
    @IBO   17:   2.2886697307227215E+00   2.548150E-12
    @IBO   18:   2.2886697307227215E+00   5.908787E-13

    IBO Localizer 2 converged.

  ==> Partitioning <==

   => Atomic Partitioning <= 

    Monomer A:   4 atoms
    Monomer B:   7 atoms
    Monomer C:  19 atoms

   => Link Bond Identification <=

    Link Bond Selection = AUTOMATIC

    Charge Completeness = 0.800

    Total Link Bonds = 2

    --------------------------
    N     Orb Type Aind1 Aind2
    --------------------------
    1      19   BC     5    24
    2      43   AC     1    28
    --------------------------

   => Link Bond Assignment <=

    Link Bond Assignment      = C

   => Partition Summary <=

    Monomer A:  0 charge,   8 protons,   8 electrons,   4 docc
    Monomer B:  0 charge,  30 protons,  30 electrons,  15 docc
    Monomer C:  0 charge,  80 protons,  80 electrons,  40 docc

  ==> Overlap Integrals <==

  ==> Kinetic Integrals <==

  ==> Nuclear Integrals <==

    Nuclear Repulsion Tot:   1.1433919777624637E+03 [Eh]

  ==> Coulomb Integrals <==

  ==> DFJK: Density-Fitted J/K Matrices <==

    J tasked:                  Yes
    K tasked:                  Yes
    wK tasked:                  No
    OpenMP threads:              1
    Integrals threads:           1
    Memory (MB):            643730
    Algorithm:                Core
    Integral Cache:           NONE
    Schwarz Cutoff:          1E-12
    Fitting Condition:       1E-12

   => Auxiliary Basis Set <=

  Basis Set: (JUN-CC-PVDZ AUX)
    Blend: JUN-CC-PVDZ-JKFIT
    Number of shells: 558
    Number of basis function: 1586
    Number of Cartesian functions: 1806
    Spherical Harmonics?: true
    Max angular momentum: 3

  ==> Relaxed SCF Equations <==

  ==> SCF A: <==

    Maxiter =          50
    E Tol   =   1.000E-06
    D Tol   =   1.000E-08

    Max DIIS Vectors = 5

    Iter   N:                        E          dE         |D|
    Iter   1:  -3.6289211830937958E+01  -3.629E+01   2.361E-04 
    Iter   2:  -3.6291327493561660E+01  -2.116E-03   2.389E-05 DIIS
    Iter   3:  -3.6291379103725362E+01  -5.161E-05   4.557E-06 DIIS
    Iter   4:  -3.6291382032995138E+01  -2.929E-06   1.303E-06 DIIS
    Iter   5:  -3.6291382233953655E+01  -2.010E-07   2.183E-07 DIIS
    Iter   6:  -3.6291382241272444E+01  -7.319E-09   3.363E-08 DIIS
    Iter   7:  -3.6291382241450520E+01  -1.781E-10   4.717E-09 DIIS

    FISAPTSCF Converged.

    Final SCF Energy:  -3.6291382241450520E+01 [Eh]

   => Occupied Orbital Energies <=

       1  -11.233923     2   -0.848822     3   -0.555777  
       4   -0.550247  

   => Virtual Orbital Energies <=

       5    0.033288     6    0.053382     7    0.060867  
       8    0.064694     9    0.067123    10    0.078615  
      11    0.082493    12    0.093301    13    0.096531  
      14    0.099414    15    0.103827    16    0.108212  
      17    0.112659    18    0.115591    19    0.117281  
      20    0.129109    21    0.135763    22    0.136962  
      23    0.140690    24    0.147446    25    0.152851  
      26    0.155196    27    0.163309    28    0.167699  
      29    0.171675    30    0.178119    31    0.180564  
      32    0.185218    33    0.199311    34    0.201334  
      35    0.210397    36    0.218169    37    0.223149  
      38    0.227013    39    0.228982    40    0.240423  
      41    0.248142    42    0.248958    43    0.251215  
      44    0.255554    45    0.258095    46    0.263588  
      47    0.268220    48    0.277613    49    0.281547  
      50    0.288346    51    0.293896    52    0.296525  
      53    0.300671    54    0.307406    55    0.314502  
      56    0.318438    57    0.322565    58    0.325652  
      59    0.328764    60    0.336368    61    0.343592  
      62    0.348987    63    0.352837    64    0.357022  
      65    0.367521    66    0.376178    67    0.382546  
      68    0.385429    69    0.393713    70    0.395728  
      71    0.406874    72    0.408820    73    0.411352  
      74    0.417193    75    0.425964    76    0.428904  
      77    0.438187    78    0.450479    79    0.458321  
      80    0.466161    81    0.474799    82    0.481306  
      83    0.486881    84    0.493521    85    0.496938  
      86    0.503019    87    0.518939    88    0.522476  
      89    0.530320    90    0.540585    91    0.547184  
      92    0.567731    93    0.575142    94    0.600488  
      95    0.607167    96    0.621443    97    0.634697  
      98    0.650565    99    0.661033   100    0.689070  
     101    0.694846   102    0.701443   103    0.747567  
     104    0.758386   105    0.764035   106    0.790159  
     107    0.796369   108    0.816204   109    0.825244  
     110    0.845580   111    0.856185   112    0.864332  
     113    0.877871   114    0.889096   115    0.899825  
     116    0.911437   117    0.915061   118    0.925910  
     119    0.928454   120    0.930851   121    0.945081  
     122    0.946706   123    0.952215   124    0.955877  
     125    0.964751   126    0.971895   127    0.974425  
     128    0.980389   129    0.989712   130    0.992752  
     131    0.997798   132    1.005406   133    1.015877  
     134    1.021740   135    1.024302   136    1.049781  
     137    1.056781   138    1.074889   139    1.085009  
     140    1.098700   141    1.105801   142    1.126278  
     143    1.148826   144    1.157113   145    1.164896  
     146    1.166285   147    1.177049   148    1.184779  
     149    1.193949   150    1.215256   151    1.226008  
     152    1.247618   153    1.249893   154    1.264446  
     155    1.273565   156    1.286407   157    1.304480  
     158    1.319433   159    1.325825   160    1.346060  
     161    1.352398   162    1.376508   163    1.387528  
     164    1.409784   165    1.453581   166    1.468921  
     167    1.478550   168    1.516434   169    1.540106  
     170    1.542305   171    1.563015   172    1.568135  
     173    1.581543   174    1.594483   175    1.600488  
     176    1.608943   177    1.619887   178    1.636302  
     179    1.641798   180    1.659186   181    1.675906  
     182    1.705978   183    1.713425   184    1.732802  
     185    1.735815   186    1.745587   187    1.789126  
     188    1.796872   189    1.803496   190    1.814136  
     191    1.828793   192    1.835244   193    1.843110  
     194    1.846604   195    1.872194   196    1.880149  
     197    1.902173   198    1.928529   199    1.935515  
     200    1.945830   201    1.949944   202    1.968141  
     203    1.971088   204    1.980609   205    1.989106  
     206    1.995326   207    2.006461   208    2.021221  
     209    2.032449   210    2.036904   211    2.048097  
     212    2.061065   213    2.064534   214    2.068029  
     215    2.080686   216    2.086590   217    2.092215  
     218    2.110635   219    2.116365   220    2.124071  
     221    2.146150   222    2.159766   223    2.162190  
     224    2.170936   225    2.187299   226    2.201786  
     227    2.211229   228    2.243949   229    2.260317  
     230    2.273275   231    2.280948   232    2.306718  
     233    2.315775   234    2.336366   235    2.341302  
     236    2.359876   237    2.374877   238    2.383939  
     239    2.392730   240    2.405400   241    2.424803  
     242    2.435273   243    2.445823   244    2.465251  
     245    2.495497   246    2.495855   247    2.541973  
     248    2.551291   249    2.568795   250    2.581912  
     251    2.611678   252    2.619764   253    2.638291  
     254    2.645160   255    2.665166   256    2.688637  
     257    2.716251   258    2.734531   259    2.782793  
     260    2.783555   261    2.796865   262    2.829075  
     263    2.849256   264    2.857339   265    2.859035  
     266    2.873093   267    2.876745   268    2.888211  
     269    2.893143   270    2.906604   271    2.919729  
     272    2.934299   273    2.956332   274    2.970676  
     275    2.997729   276    3.006030   277    3.035114  
     278    3.085698   279    3.108928   280    3.123661  
     281    3.163250   282    3.196750   283    3.265131  
     284    3.271009   285    3.313583   286    3.435599  
     287    3.473670   288    3.566087   289    3.637177  
     290    3.707234   291    3.786222   292    3.834984  
     293    3.875050   294    3.954489   295    4.015818  
     296    4.106842   297    4.147275   298    4.203198  
     299    4.449923   300    4.533647   301    4.538842  
     302    4.759674   303    4.936297   304    5.041572  
     305    5.068212   306    5.248077   307    5.326540  
     308    5.500466   309    5.586014   310    5.789109  
     311    5.852761   312    6.092765   313    6.374345  
     314    6.679029   315   13.394232   316   18.428381  
     317   33.428947   318   33.476048  

  ==> SCF B: <==

    Maxiter =          50
    E Tol   =   1.000E-06
    D Tol   =   1.000E-08

    Max DIIS Vectors = 5

    Iter   N:                        E          dE         |D|
    Iter   1:  -2.2419964950744884E+02  -2.242E+02   5.133E-04 
    Iter   2:  -2.2420851413678844E+02  -8.865E-03   4.618E-05 DIIS
    Iter   3:  -2.2420875617537209E+02  -2.420E-04   1.505E-05 DIIS
    Iter   4:  -2.2420877095549997E+02  -1.478E-05   7.655E-06 DIIS
    Iter   5:  -2.2420877429622081E+02  -3.341E-06   1.089E-06 DIIS
    Iter   6:  -2.2420877441287868E+02  -1.167E-07   4.763E-07 DIIS
    Iter   7:  -2.2420877443027754E+02  -1.740E-08   1.315E-07 DIIS
    Iter   8:  -2.2420877443227354E+02  -1.996E-09   4.735E-08 DIIS
    Iter   9:  -2.2420877443252456E+02  -2.510E-10   2.025E-08 DIIS
    Iter  10:  -2.2420877443258772E+02  -6.315E-11   8.799E-09 DIIS

    FISAPTSCF Converged.

    Final SCF Energy:  -2.2420877443258772E+02 [Eh]

   => Occupied Orbital Energies <=

       1  -20.606837     2  -20.548510     3  -11.392080  
       4  -11.295345     5   -1.438273     6   -1.357939  
       7   -0.962771     8   -0.766857     9   -0.670510  
      10   -0.663761    11   -0.621275    12   -0.543484  
      13   -0.536445    14   -0.473107    15   -0.460645  

   => Virtual Orbital Energies <=

      16    0.006252    17    0.055818    18    0.060551  
      19    0.066915    20    0.072655    21    0.080806  
      22    0.087204    23    0.089411    24    0.092552  
      25    0.098306    26    0.099520    27    0.106371  
      28    0.110659    29    0.115408    30    0.117633  
      31    0.119857    32    0.132204    33    0.139836  
      34    0.141004    35    0.148410    36    0.151647  
      37    0.154189    38    0.162453    39    0.167727  
      40    0.174351    41    0.176942    42    0.186816  
      43    0.192617    44    0.194849    45    0.204003  
      46    0.208865    47    0.214183    48    0.225578  
      49    0.226762    50    0.228469    51    0.238520  
      52    0.241363    53    0.246125    54    0.248765  
      55    0.255066    56    0.257756    57    0.265853  
      58    0.274868    59    0.277505    60    0.283007  
      61    0.287668    62    0.288564    63    0.300512  
      64    0.305349    65    0.307229    66    0.311719  
      67    0.319708    68    0.326477    69    0.331591  
      70    0.339399    71    0.343853    72    0.349077  
      73    0.351786    74    0.355892    75    0.361207  
      76    0.370161    77    0.375836    78    0.380831  
      79    0.387644    80    0.390111    81    0.392201  
      82    0.402835    83    0.412847    84    0.418753  
      85    0.420713    86    0.427573    87    0.429960  
      88    0.438223    89    0.440813    90    0.452151  
      91    0.457561    92    0.462474    93    0.468891  
      94    0.474755    95    0.480911    96    0.485073  
      97    0.496849    98    0.508443    99    0.514197  
     100    0.525121   101    0.527901   102    0.534680  
     103    0.559386   104    0.564863   105    0.583047  
     106    0.588842   107    0.596421   108    0.612361  
     109    0.633241   110    0.641566   111    0.655759  
     112    0.682218   113    0.692429   114    0.726116  
     115    0.752708   116    0.769290   117    0.788797  
     118    0.791183   119    0.803321   120    0.809264  
     121    0.826233   122    0.843412   123    0.853726  
     124    0.869752   125    0.883252   126    0.886699  
     127    0.901781   128    0.905808   129    0.908099  
     130    0.924916   131    0.926679   132    0.937911  
     133    0.942786   134    0.945996   135    0.953195  
     136    0.957083   137    0.962979   138    0.972074  
     139    0.982095   140    0.987402   141    0.993465  
     142    1.006498   143    1.007533   144    1.014514  
     145    1.027504   146    1.033970   147    1.055351  
     148    1.060304   149    1.073053   150    1.085420  
     151    1.092342   152    1.096436   153    1.138370  
     154    1.144087   155    1.149280   156    1.171087  
     157    1.176626   158    1.205263   159    1.219755  
     160    1.238482   161    1.240000   162    1.248851  
     163    1.265007   164    1.266797   165    1.279929  
     166    1.305582   167    1.313345   168    1.326269  
     169    1.332352   170    1.352220   171    1.368525  
     172    1.393909   173    1.399503   174    1.412006  
     175    1.414956   176    1.427571   177    1.452333  
     178    1.477547   179    1.487807   180    1.503031  
     181    1.510995   182    1.526615   183    1.545845  
     184    1.551656   185    1.574842   186    1.591987  
     187    1.594928   188    1.601493   189    1.612435  
     190    1.624096   191    1.640124   192    1.650557  
     193    1.655073   194    1.668605   195    1.673598  
     196    1.685617   197    1.704738   198    1.707271  
     199    1.724395   200    1.741713   201    1.771938  
     202    1.778630   203    1.782818   204    1.791890  
     205    1.808654   206    1.811016   207    1.835013  
     208    1.841374   209    1.865871   210    1.877476  
     211    1.883694   212    1.892360   213    1.907588  
     214    1.922500   215    1.930129   216    1.940582  
     217    1.959242   218    1.962852   219    1.964758  
     220    1.977650   221    1.994182   222    2.000740  
     223    2.003456   224    2.012939   225    2.018880  
     226    2.023868   227    2.032594   228    2.037795  
     229    2.060284   230    2.070419   231    2.074606  
     232    2.079666   233    2.104432   234    2.114345  
     235    2.121230   236    2.123555   237    2.134685  
     238    2.160935   239    2.163177   240    2.171314  
     241    2.183605   242    2.194550   243    2.219137  
     244    2.233959   245    2.263620   246    2.269560  
     247    2.285557   248    2.298950   249    2.319559  
     250    2.343539   251    2.364914   252    2.385920  
     253    2.389061   254    2.396979   255    2.402074  
     256    2.410119   257    2.432300   258    2.437095  
     259    2.440778   260    2.465494   261    2.478552  
     262    2.490290   263    2.537794   264    2.557293  
     265    2.593645   266    2.596530   267    2.608274  
     268    2.642112   269    2.674379   270    2.707701  
     271    2.718749   272    2.744816   273    2.771134  
     274    2.779270   275    2.786986   276    2.797817  
     277    2.818441   278    2.826728   279    2.846758  
     280    2.865460   281    2.873974   282    2.883601  
     283    2.889703   284    2.893311   285    2.917094  
     286    2.939796   287    2.959804   288    2.992314  
     289    2.999611   290    3.042880   291    3.075090  
     292    3.102133   293    3.124094   294    3.151923  
     295    3.167418   296    3.230080   297    3.250826  
     298    3.259531   299    3.297358   300    3.302811  
     301    3.348482   302    3.382894   303    3.445446  
     304    3.552798   305    3.580060   306    3.598089  
     307    3.676357   308    3.702428   309    3.779551  
     310    3.835045   311    3.932909   312    3.967224  
     313    4.081030   314    4.091763   315    4.104111  
     316    4.487628   317    4.537379   318   13.279117  

  ==> Frozen Core <==


    ------------------
    Range      A     B
    ------------------
    nbf      358   358
    nmo      318   318
    nocc       4    15
    nvir     314   303
    nfocc      1     4
    naocc      3    11
    navir    314   303
    nfvir      0     0
    ------------------

  ==> Unification <==

  ==> dHF <==

    E ABC(HF) =  -7.6211810535827635E+02 [Eh]
    E AC(0)   =  -5.3411389276852719E+02 [Eh]
    E BC(0)   =  -7.2198861155507348E+02 [Eh]
    E A(0)    =  -2.5020637628702065E+01 [Eh]
    E B(0)    =  -2.1266126345859632E+02 [Eh]
    E AC(HF)  =  -5.3411172235801473E+02 [Eh]
    E BC(HF)  =  -7.2197948662993326E+02 [Eh]
    E AB(HF)  =  -2.3764799455525019E+02 [Eh]
    E A(HF)   =  -2.5004125705614211E+01 [Eh]
    E B(HF)   =  -2.1264458511274725E+02 [Eh]
    E C       =  -4.9397238736654992E+02 [Eh]
    E HF      =   1.2011598774392951E-02 [Eh]

  ==> Electrostatics <==

    Elst10,r            =     0.009553252669 [Eh]

  ==> Exchange <==

    Exch10(S^2)         =     0.003791932922 [Eh]
    Exch10              =     0.003798732804 [Eh]

  ==> Induction <==

    Ind20,u (A<-B)      =    -0.001185735879 [Eh]
    Ind20,u (B<-A)      =    -0.000459442491 [Eh]
    Ind20,u             =    -0.001645178371 [Eh]
    Exch-Ind20,u (A<-B) =     0.000471392065 [Eh]
    Exch-Ind20,u (B<-A) =     0.000180199191 [Eh]
    Exch-Ind20,u        =     0.000651591256 [Eh]

  ==> CPHF Iterations <==

    Maxiter     =          50
    Convergence =   1.000E-08

    -----------------------------------------
    Iter   Monomer A    Monomer B    Time [s]
    -----------------------------------------
    1      1.681E-01    2.607E-01           9
    2      3.206E-02    8.320E-02          18
    3      6.306E-03    2.447E-02          28
    4      8.851E-04    9.571E-03          37
    5      1.157E-04    3.488E-03          47
    6      1.719E-05    1.264E-03          56
    7      2.444E-06    4.137E-04          66
    8      2.977E-07    1.474E-04          75
    9      3.580E-08    3.986E-05          85
    10     4.126E-09*   1.440E-05          94
    11     4.126E-09*   4.669E-06          99
    12     4.126E-09*   1.147E-06         104
    13     4.126E-09*   2.485E-07         109
    14     4.126E-09*   6.117E-08         114
    15     4.126E-09*   1.287E-08         118
    16     4.126E-09*   3.604E-09*        123
    -----------------------------------------

    Ind20,r (A<-B)      =    -0.001385444856 [Eh]
    Ind20,r (B<-A)      =    -0.000521812328 [Eh]
    Ind20,r             =    -0.001907257183 [Eh]
    Exch-Ind20,r (A<-B) =     0.000584365611 [Eh]
    Exch-Ind20,r (B<-A) =     0.000231338299 [Eh]
    Exch-Ind20,r        =     0.000815703910 [Eh]

  ==> F-SAPT Localization (IBO) <==

  Local Orbitals for Monomer A:

  ==> IBO Localizer 2 <==

    MinAO Basis = CC-PVTZ-MINAO
    Use Ghosts  =       FALSE
    Use Stars   =       FALSE
    Condition   =   1.000E-07
    Power       =           4
    Convergence =   1.000E-12
    Maxiter     =        1000

    @IBO Iter:                   Metric       Gradient
    @IBO    1:   1.0648776562223885E+00   2.908573E-02
    @IBO    2:   1.0836034404409154E+00   1.114559E-02
    @IBO    3:   1.0836906691828985E+00   3.646624E-05
    @IBO    4:   1.0836906701085081E+00   3.175624E-09
    @IBO    5:   1.0836906701085081E+00   1.635987E-12
    @IBO    6:   1.0836906701085081E+00   1.852682E-16

    IBO Localizer 2 converged.

  Local Orbitals for Monomer B:

  ==> IBO Localizer 2 <==

    MinAO Basis = CC-PVTZ-MINAO
    Use Ghosts  =       FALSE
    Use Stars   =       FALSE
    Condition   =   1.000E-07
    Power       =           4
    Convergence =   1.000E-12
    Maxiter     =        1000

    @IBO Iter:                   Metric       Gradient
    @IBO    1:   1.4829299192578578E+00   1.688569E+00
    @IBO    2:   1.6779276185317673E+00   9.353390E-01
    @IBO    3:   1.7093076474172462E+00   3.242855E-01
    @IBO    4:   1.7106112212171338E+00   2.907251E-03
    @IBO    5:   1.7106114956103371E+00   1.209445E-04
    @IBO    6:   1.7106114958038912E+00   2.337717E-06
    @IBO    7:   1.7106114958040153E+00   8.615566E-08
    @IBO    8:   1.7106114958040155E+00   3.132604E-09
    @IBO    9:   1.7106114958040153E+00   1.269008E-10
    @IBO   10:   1.7106114958040153E+00   5.332319E-12
    @IBO   11:   1.7106114958040153E+00   2.260587E-13

    IBO Localizer 2 converged.

  ==> F-SAPT Electrostatics <==

  ==> DFERI: Density Fitted 3-Index Tensors <==

    Schwarz cutoff =   0.000E+00
    J cutoff       =   1.000E-12
    Mem (GB)       =         628

   => Auxiliary Basis <=

  Basis Set: (JUN-CC-PVDZ AUX)
    Blend: JUN-CC-PVDZ-JKFIT
    Number of shells: 558
    Number of basis function: 1586
    Number of Cartesian functions: 1806
    Spherical Harmonics?: true
    Max angular momentum: 3

    Elst10,r            =     0.009553262446 [Eh]

  ==> F-SAPT Exchange <==

  ==> DFERI: Density Fitted 3-Index Tensors <==

    Schwarz cutoff =   0.000E+00
    J cutoff       =   1.000E-12
    Mem (GB)       =         628

   => Auxiliary Basis <=

  Basis Set: (JUN-CC-PVDZ AUX)
    Blend: JUN-CC-PVDZ-JKFIT
    Number of shells: 558
    Number of basis function: 1586
    Number of Cartesian functions: 1806
    Spherical Harmonics?: true
    Max angular momentum: 3

    Exch10(S^2)         =     0.003791926646 [Eh]

    Scaling F-SAPT Exch10(S^2) by   1.002E+00 to match Exch10

  ==> F-SAPT Induction <==

  ==> DFERI: Density Fitted 3-Index Tensors <==

    Schwarz cutoff =   0.000E+00
    J cutoff       =   1.000E-12
    Mem (GB)       =         628

   => Auxiliary Basis <=

  Basis Set: (JUN-CC-PVDZ AUX)
    Blend: JUN-CC-PVDZ-JKFIT
    Number of shells: 558
    Number of basis function: 1586
    Number of Cartesian functions: 1806
    Spherical Harmonics?: true
    Max angular momentum: 3

    Ind20,u (A<-B)      =    -0.001185735999 [Eh]
    Ind20,u (B<-A)      =    -0.000459442492 [Eh]
    Ind20,u             =    -0.001645178491 [Eh]
    Exch-Ind20,u (A<-B) =     0.000471392105 [Eh]
    Exch-Ind20,u (B<-A) =     0.000180198970 [Eh]
    Exch-Ind20,u        =     0.000651591075 [Eh]

    Scaling for delta HF        =   1.228E+00
    Scaling for response (A<-B) =   1.121E+00
    Scaling for response (B<-A) =   1.040E+00
    Scaling for total (A<-B)    =   1.377E+00
    Scaling for total (B<-A)    =   1.277E+00

  ==> F-SAPT Dispersion <==

  ==> DFERI: Density Fitted 3-Index Tensors <==

    Schwarz cutoff =   0.000E+00
    J cutoff       =   1.000E-12
    Mem (GB)       =         628

   => Auxiliary Basis <=

  Basis Set: (JUN-CC-PVDZ AUX)
    Blend: JUN-CC-PVDZ-RI
    Number of shells: 420
    Number of basis function: 1236
    Number of Cartesian functions: 1426
    Spherical Harmonics?: true
    Max angular momentum: 3

    Disp20              =    -0.002767054661 [Eh]
    Exch-Disp20         =     0.000274970996 [Eh]

  ==> F-SAPT Output <==

    F-SAPT Data Filepath = fsapt/

  ==> Results <==


    SAPT Results  
  --------------------------------------------------------------------------------------------------------
    Electrostatics                  9.55325267 [mEh]       5.99475681 [kcal/mol]      25.08206488 [kJ/mol]
      Elst10,r                      9.55325267 [mEh]       5.99475681 [kcal/mol]      25.08206488 [kJ/mol]

    Exchange                        3.79873280 [mEh]       2.38374092 [kcal/mol]       9.97357298 [kJ/mol]
      Exch10                        3.79873280 [mEh]       2.38374092 [kcal/mol]       9.97357298 [kJ/mol]
      Exch10(S^2)                   3.79193292 [mEh]       2.37947393 [kcal/mol]       9.95571989 [kJ/mol]

    Induction                      -1.34038670 [mEh]      -0.84110539 [kcal/mol]      -3.51918528 [kJ/mol]
      Ind20,r                      -1.90725718 [mEh]      -1.19682200 [kcal/mol]      -5.00750373 [kJ/mol]
      Exch-Ind20,r                  0.81570391 [mEh]       0.51186195 [kcal/mol]       2.14163062 [kJ/mol]
      delta HF,r (2)               -0.24883343 [mEh]      -0.15614534 [kcal/mol]      -0.65331216 [kJ/mol]
      Induction (A<-B)             -0.98369543 [mEh]      -0.61727823 [kcal/mol]      -2.58269235 [kJ/mol]
      Induction (B<-A)             -0.35669127 [mEh]      -0.22382716 [kcal/mol]      -0.93649293 [kJ/mol]

    Dispersion                     -2.49208366 [mEh]      -1.56380617 [kcal/mol]      -6.54296566 [kJ/mol]
      Disp20                       -2.76705466 [mEh]      -1.73635309 [kcal/mol]      -7.26490201 [kJ/mol]
      Exch-Disp20                   0.27497100 [mEh]       0.17254691 [kcal/mol]       0.72193635 [kJ/mol]

  Total HF                         12.01159877 [mEh]       7.53739234 [kcal/mol]      31.53645258 [kJ/mol]
  Total SAPT0                       9.51951511 [mEh]       5.97358617 [kcal/mol]      24.99348692 [kJ/mol]

  --------------------------------------------------------------------------------------------------------
    Han Solo: This is *not* gonna work.
    Luke Skywalker: Why didn't you say so before?
    Han Solo: I *did* say so before.

*** tstop() called on ThinkPad-P50 at Mon Jan 15 18:59:05 2018
Module time:
	user time   =     288.04 seconds =       4.80 minutes
	system time =       1.68 seconds =       0.03 minutes
	total time  =        290 seconds =       4.83 minutes
Total time:
	user time   =     370.56 seconds =       6.18 minutes
	system time =       2.23 seconds =       0.04 minutes
	total time  =        373 seconds =       6.22 minutes

*** Psi4 exiting successfully. Buy a developer a beer!
