
    -----------------------------------------------------------------------
          Psi4: An Open-Source Ab Initio Electronic Structure Package
                               Psi4 1.1 release

                         Git: Rev {HEAD} add49b9 


    R. M. Parrish, L. A. Burns, D. G. A. Smith, A. C. Simmonett,
    A. E. DePrince III, E. G. Hohenstein, U. Bozkaya, A. Yu. Sokolov,
    R. Di Remigio, R. M. Richard, J. F. Gonthier, A. M. James,
    H. R. McAlexander, A. Kumar, M. Saitow, X. Wang, B. P. Pritchard,
    P. Verma, H. F. Schaefer III, K. Patkowski, R. A. King, E. F. Valeev,
    F. A. Evangelista, J. M. Turney, T. D. Crawford, and C. D. Sherrill,
    J. Chem. Theory Comput. in press (2017).
    (doi: 10.1021/acs.jctc.7b00174)

    -----------------------------------------------------------------------


    Psi4 started on: Monday, 15 January 2018 06:59PM

    Process ID:  21529
    PSIDATADIR: /home/junteng/Softwares/psi4conda/share/psi4
    Memory:     500.0 MiB
    Threads:    1
    
  ==> Input File <==

--------------------------------------------------------------------------
memory 750000 mb

molecule mol {
0 1
C          3.21173       -1.58756        0.18748
H          3.11565       -2.22848       -0.69038
H          2.96526       -2.21459        1.04621
H          4.25051       -1.26355        0.27556
--
0 1
C          0.23682       -1.78307       -0.07144
O          0.80387       -2.85160       -0.02158
O         -1.10553       -1.69654       -0.17947
C         -1.82703       -2.93588       -0.26102
H         -2.86734       -2.65355       -0.40732
H         -1.70802       -3.50704        0.66122
H         -1.46982       -3.53099       -1.10214
--
0 1
C         -0.04267        3.27951       -0.18928
H         -0.80730        3.33033        0.59133
H         -0.55603        3.33728       -1.15274
H          0.59875        4.15632       -0.09009
C         -1.34499        0.77476       -0.28278
O         -1.91200        0.87864       -1.34136
O         -1.96720        0.79415        0.91201
C         -3.40514        0.82382        0.86832
H         -3.75713        1.71250        0.34215
H         -3.72708        0.83869        1.90724
H         -3.78435       -0.06548        0.36178
C          0.90114       -0.44258       -0.02801
C          0.15263        0.75062       -0.11404
C          2.31053       -0.37923        0.09634
C          2.90211        0.88499        0.13631
C          2.15416        2.05120        0.05067
C          0.76738        2.00921       -0.08102
H          2.65523        3.01281        0.08588
H          3.97960        0.95241        0.23649

symmetry c1
no_reorient
no_com
}

set {
basis jun-cc-pvdz
scf_type df
guess sad
freeze_core true
}

energy('fisapt0')
--------------------------------------------------------------------------

  Memory set to 698.492 GiB by Python driver.

*** tstart() called on ThinkPad-P50
*** at Mon Jan 15 18:59:05 2018

   => Loading Basis Set <=

    Name: JUN-CC-PVDZ
    Role: ORBITAL
    Keyword: BASIS
    atoms 1, 5, 8, 12, 16, 19, 23-28     entry C          line   157 file /home/junteng/Softwares/psi4conda/share/psi4/basis/jun-cc-pvdz.gbs 
    atoms 2-4, 9-11, 13-15, 20-22, 29-30 entry H          line    35 file /home/junteng/Softwares/psi4conda/share/psi4/basis/jun-cc-pvdz.gbs 
    atoms 6-7, 17-18                     entry O          line   225 file /home/junteng/Softwares/psi4conda/share/psi4/basis/jun-cc-pvdz.gbs 


         ---------------------------------------------------------
                                   SCF
            by Justin Turney, Rob Parrish, and Andy Simmonett
                              RHF Reference
                        1 Threads, 715255 MiB Core
         ---------------------------------------------------------

  ==> Geometry <==

    Molecular point group: c1
    Full point group: C1

    Geometry (in Angstrom), charge = 0, multiplicity = 1:

       Center              X                  Y                   Z               Mass       
    ------------   -----------------  -----------------  -----------------  -----------------
           C          3.211730000000    -1.587560000000     0.187480000000    12.000000000000
           H          3.115650000000    -2.228480000000    -0.690380000000     1.007825032070
           H          2.965260000000    -2.214590000000     1.046210000000     1.007825032070
           H          4.250510000000    -1.263550000000     0.275560000000     1.007825032070
           C          0.236820000000    -1.783070000000    -0.071440000000    12.000000000000
           O          0.803870000000    -2.851600000000    -0.021580000000    15.994914619560
           O         -1.105530000000    -1.696540000000    -0.179470000000    15.994914619560
           C         -1.827030000000    -2.935880000000    -0.261020000000    12.000000000000
           H         -2.867340000000    -2.653550000000    -0.407320000000     1.007825032070
           H         -1.708020000000    -3.507040000000     0.661220000000     1.007825032070
           H         -1.469820000000    -3.530990000000    -1.102140000000     1.007825032070
           C         -0.042670000000     3.279510000000    -0.189280000000    12.000000000000
           H         -0.807300000000     3.330330000000     0.591330000000     1.007825032070
           H         -0.556030000000     3.337280000000    -1.152740000000     1.007825032070
           H          0.598750000000     4.156320000000    -0.090090000000     1.007825032070
           C         -1.344990000000     0.774760000000    -0.282780000000    12.000000000000
           O         -1.912000000000     0.878640000000    -1.341360000000    15.994914619560
           O         -1.967200000000     0.794150000000     0.912010000000    15.994914619560
           C         -3.405140000000     0.823820000000     0.868320000000    12.000000000000
           H         -3.757130000000     1.712500000000     0.342150000000     1.007825032070
           H         -3.727080000000     0.838690000000     1.907240000000     1.007825032070
           H         -3.784350000000    -0.065480000000     0.361780000000     1.007825032070
           C          0.901140000000    -0.442580000000    -0.028010000000    12.000000000000
           C          0.152630000000     0.750620000000    -0.114040000000    12.000000000000
           C          2.310530000000    -0.379230000000     0.096340000000    12.000000000000
           C          2.902110000000     0.884990000000     0.136310000000    12.000000000000
           C          2.154160000000     2.051200000000     0.050670000000    12.000000000000
           C          0.767380000000     2.009210000000    -0.081020000000    12.000000000000
           H          2.655230000000     3.012810000000     0.085880000000     1.007825032070
           H          3.979600000000     0.952410000000     0.236490000000     1.007825032070

  Running in c1 symmetry.

  Rotational constants: A =      0.02130  B =      0.01876  C =      0.01079 [cm^-1]
  Rotational constants: A =    638.47031  B =    562.39929  C =    323.54509 [MHz]
  Nuclear repulsion = 1143.391977762463739

  Charge       = 0
  Multiplicity = 1
  Electrons    = 118
  Nalpha       = 59
  Nbeta        = 59

  ==> Algorithm <==

  SCF Algorithm Type is DF.
  DIIS enabled.
  MOM disabled.
  Fractional occupation disabled.
  Guess Type is SAD.
  Energy threshold   = 1.00e-08
  Density threshold  = 1.00e-08
  Integral threshold = 0.00e+00

  ==> Primary Basis <==

  Basis Set: JUN-CC-PVDZ
    Blend: JUN-CC-PVDZ
    Number of shells: 170
    Number of basis function: 358
    Number of Cartesian functions: 374
    Spherical Harmonics?: true
    Max angular momentum: 2

   => Loading Basis Set <=

    Name: (JUN-CC-PVDZ AUX)
    Role: JKFIT
    Keyword: DF_BASIS_SCF
    atoms 1, 5, 8, 12, 16, 19, 23-28     entry C          line   145 file /home/junteng/Softwares/psi4conda/share/psi4/basis/jun-cc-pvdz-jkfit.gbs 
    atoms 2-4, 9-11, 13-15, 20-22, 29-30 entry H          line    69 file /home/junteng/Softwares/psi4conda/share/psi4/basis/jun-cc-pvdz-jkfit.gbs 
    atoms 6-7, 17-18                     entry O          line   257 file /home/junteng/Softwares/psi4conda/share/psi4/basis/jun-cc-pvdz-jkfit.gbs 

  ==> Pre-Iterations <==

   -------------------------------------------------------
    Irrep   Nso     Nmo     Nalpha   Nbeta   Ndocc  Nsocc
   -------------------------------------------------------
     A        358     358       0       0       0       0
   -------------------------------------------------------
    Total     358     358      59      59      59       0
   -------------------------------------------------------

  ==> Integral Setup <==

  ==> DFJK: Density-Fitted J/K Matrices <==

    J tasked:                  Yes
    K tasked:                  Yes
    wK tasked:                  No
    OpenMP threads:              1
    Integrals threads:           1
    Memory (MB):            536441
    Algorithm:                Core
    Integral Cache:           NONE
    Schwarz Cutoff:          1E-12
    Fitting Condition:       1E-12

   => Auxiliary Basis Set <=

  Basis Set: (JUN-CC-PVDZ AUX)
    Blend: JUN-CC-PVDZ-JKFIT
    Number of shells: 558
    Number of basis function: 1586
    Number of Cartesian functions: 1806
    Spherical Harmonics?: true
    Max angular momentum: 3

  Minimum eigenvalue in the overlap matrix is 2.6911722843E-06.
  Using Symmetric Orthogonalization.

  SCF Guess: Superposition of Atomic Densities via on-the-fly atomic UHF.

  ==> Iterations <==

                           Total Energy        Delta E     RMS |[F,P]|

   @DF-RHF iter   0:  -769.71738873251900   -7.69717e+02   2.11868e-02 
   @DF-RHF iter   1:  -761.63168306497869    8.08571e+00   2.30586e-03 
   @DF-RHF iter   2:  -761.99184646689741   -3.60163e-01   1.39402e-03 DIIS
   @DF-RHF iter   3:  -762.09598862957910   -1.04142e-01   4.31349e-04 DIIS
   @DF-RHF iter   4:  -762.11520676380030   -1.92181e-02   1.57589e-04 DIIS
   @DF-RHF iter   5:  -762.11761304170602   -2.40628e-03   5.21892e-05 DIIS
   @DF-RHF iter   6:  -762.11803513366988   -4.22092e-04   1.97580e-05 DIIS
   @DF-RHF iter   7:  -762.11809772600463   -6.25923e-05   6.07094e-06 DIIS
   @DF-RHF iter   8:  -762.11810393503538   -6.20903e-06   3.11199e-06 DIIS
   @DF-RHF iter   9:  -762.11810506501592   -1.12998e-06   1.03235e-06 DIIS
   @DF-RHF iter  10:  -762.11810529023865   -2.25223e-07   4.03511e-07 DIIS
   @DF-RHF iter  11:  -762.11810533402536   -4.37867e-08   1.76078e-07 DIIS
   @DF-RHF iter  12:  -762.11810534071992   -6.69456e-09   7.77157e-08 DIIS
   @DF-RHF iter  13:  -762.11810534234155   -1.62163e-09   3.36008e-08 DIIS
   @DF-RHF iter  14:  -762.11810534273695   -3.95403e-10   1.65776e-08 DIIS
   @DF-RHF iter  15:  -762.11810534281290   -7.59428e-11   5.83995e-09 DIIS

  ==> Post-Iterations <==

    Orbital Energies (a.u.)
    -----------------------

    Doubly Occupied:                                                      

       1A    -20.612443     2A    -20.610507     3A    -20.555282  
       4A    -20.553807     5A    -11.397816     6A    -11.396556  
       7A    -11.298293     8A    -11.296954     9A    -11.275861  
      10A    -11.270843    11A    -11.269123    12A    -11.261908  
      13A    -11.258042    14A    -11.248050    15A    -11.238452  
      16A    -11.227317    17A     -1.473384    18A     -1.464245  
      19A     -1.367074    20A     -1.365517    21A     -1.183751  
      22A     -1.085776    23A     -1.064426    24A     -0.993411  
      25A     -0.985458    26A     -0.970305    27A     -0.914941  
      28A     -0.879368    29A     -0.833315    30A     -0.785096  
      31A     -0.770237    32A     -0.726533    33A     -0.708370  
      34A     -0.696585    35A     -0.679983    36A     -0.673242  
      37A     -0.668187    38A     -0.655208    39A     -0.640941  
      40A     -0.607070    41A     -0.592211    42A     -0.583359  
      43A     -0.575008    44A     -0.567390    45A     -0.562269  
      46A     -0.551686    47A     -0.547737    48A     -0.537776  
      49A     -0.534522    50A     -0.528180    51A     -0.515106  
      52A     -0.503816    53A     -0.489052    54A     -0.472244  
      55A     -0.456531    56A     -0.452869    57A     -0.444157  
      58A     -0.355301    59A     -0.330799  

    Virtual:                                                              

      60A      0.053367    61A      0.054921    62A      0.058534  
      63A      0.067060    64A      0.071366    65A      0.076335  
      66A      0.084496    67A      0.092720    68A      0.095849  
      69A      0.101242    70A      0.103520    71A      0.109051  
      72A      0.114529    73A      0.117155    74A      0.119157  
      75A      0.126357    76A      0.134781    77A      0.137155  
      78A      0.142805    79A      0.149831    80A      0.152155  
      81A      0.160470    82A      0.164381    83A      0.170499  
      84A      0.172971    85A      0.182124    86A      0.188979  
      87A      0.191564    88A      0.200910    89A      0.203668  
      90A      0.211831    91A      0.220807    92A      0.224324  
      93A      0.229198    94A      0.230517    95A      0.234333  
      96A      0.235463    97A      0.243507    98A      0.249120  
      99A      0.254913   100A      0.262706   101A      0.266158  
     102A      0.271157   103A      0.273556   104A      0.276895  
     105A      0.292681   106A      0.294861   107A      0.297073  
     108A      0.301654   109A      0.303113   110A      0.314769  
     111A      0.320492   112A      0.324702   113A      0.332091  
     114A      0.333959   115A      0.338937   116A      0.342207  
     117A      0.347607   118A      0.353138   119A      0.359890  
     120A      0.372987   121A      0.374911   122A      0.375457  
     123A      0.382237   124A      0.394199   125A      0.399617  
     126A      0.400675   127A      0.413886   128A      0.414427  
     129A      0.418279   130A      0.421115   131A      0.432088  
     132A      0.434472   133A      0.441093   134A      0.450091  
     135A      0.456373   136A      0.465144   137A      0.466942  
     138A      0.475337   139A      0.478022   140A      0.485597  
     141A      0.494844   142A      0.499745   143A      0.509538  
     144A      0.514866   145A      0.524200   146A      0.533700  
     147A      0.539991   148A      0.552538   149A      0.583307  
     150A      0.586547   151A      0.611428   152A      0.624829  
     153A      0.641315   154A      0.676769   155A      0.699324  
     156A      0.728888   157A      0.747414   158A      0.757213  
     159A      0.769307   160A      0.785072   161A      0.788924  
     162A      0.795184   163A      0.806225   164A      0.826253  
     165A      0.837413   166A      0.843897   167A      0.855884  
     168A      0.870962   169A      0.880618   170A      0.892014  
     171A      0.895000   172A      0.907972   173A      0.912975  
     174A      0.915517   175A      0.923337   176A      0.926466  
     177A      0.932241   178A      0.935709   179A      0.942517  
     180A      0.943797   181A      0.950073   182A      0.959194  
     183A      0.963009   184A      0.965382   185A      0.970533  
     186A      0.976681   187A      0.987412   188A      0.990980  
     189A      0.994090   190A      1.004299   191A      1.024052  
     192A      1.027857   193A      1.043031   194A      1.058967  
     195A      1.059527   196A      1.069126   197A      1.076387  
     198A      1.097970   199A      1.119026   200A      1.132847  
     201A      1.140213   202A      1.143733   203A      1.163486  
     204A      1.172148   205A      1.174902   206A      1.210144  
     207A      1.216102   208A      1.228358   209A      1.232427  
     210A      1.245742   211A      1.258306   212A      1.262915  
     213A      1.281656   214A      1.308353   215A      1.322768  
     216A      1.325630   217A      1.332871   218A      1.360101  
     219A      1.373760   220A      1.385995   221A      1.396434  
     222A      1.406689   223A      1.428643   224A      1.453872  
     225A      1.489414   226A      1.492260   227A      1.509438  
     228A      1.520143   229A      1.542312   230A      1.556683  
     231A      1.563822   232A      1.579162   233A      1.591862  
     234A      1.601201   235A      1.608831   236A      1.611822  
     237A      1.628092   238A      1.646166   239A      1.658635  
     240A      1.668778   241A      1.673587   242A      1.680994  
     243A      1.695272   244A      1.698287   245A      1.713183  
     246A      1.718687   247A      1.733295   248A      1.758782  
     249A      1.774496   250A      1.796798   251A      1.804690  
     252A      1.814533   253A      1.829866   254A      1.836536  
     255A      1.857112   256A      1.873454   257A      1.878912  
     258A      1.905224   259A      1.909159   260A      1.922641  
     261A      1.933241   262A      1.940284   263A      1.952100  
     264A      1.960705   265A      1.969717   266A      1.970409  
     267A      1.980402   268A      1.987228   269A      1.999681  
     270A      2.011083   271A      2.018495   272A      2.023386  
     273A      2.036286   274A      2.046076   275A      2.049354  
     276A      2.056999   277A      2.064827   278A      2.076174  
     279A      2.083369   280A      2.096507   281A      2.110135  
     282A      2.115599   283A      2.134938   284A      2.145521  
     285A      2.166782   286A      2.173526   287A      2.183722  
     288A      2.186326   289A      2.196743   290A      2.217752  
     291A      2.250202   292A      2.266473   293A      2.283909  
     294A      2.295815   295A      2.313306   296A      2.333181  
     297A      2.359170   298A      2.366035   299A      2.388875  
     300A      2.399471   301A      2.402907   302A      2.421073  
     303A      2.434118   304A      2.436746   305A      2.449804  
     306A      2.472137   307A      2.515825   308A      2.519323  
     309A      2.525386   310A      2.558935   311A      2.594784  
     312A      2.601936   313A      2.607032   314A      2.655573  
     315A      2.684268   316A      2.716770   317A      2.760675  
     318A      2.774276   319A      2.779560   320A      2.790267  
     321A      2.816472   322A      2.839024   323A      2.853237  
     324A      2.858083   325A      2.867231   326A      2.874460  
     327A      2.879144   328A      2.894320   329A      2.903768  
     330A      2.915522   331A      2.939779   332A      2.957065  
     333A      2.995532   334A      3.027794   335A      3.038096  
     336A      3.063547   337A      3.088443   338A      3.114680  
     339A      3.137599   340A      3.156285   341A      3.236789  
     342A      3.248176   343A      3.284679   344A      3.293399  
     345A      3.340808   346A      3.375844   347A      3.439624  
     348A      3.548669   349A      3.575337   350A      3.645952  
     351A      3.680994   352A      3.731998   353A      3.775457  
     354A      3.832277   355A      3.939909   356A      3.991135  
     357A      4.086625   358A      4.094562  

    Final Occupation by Irrep:
              A 
    DOCC [    59 ]

  Energy converged.

  @DF-RHF Final Energy:  -762.11810534281290

   => Energetics <=

    Nuclear Repulsion Energy =           1143.3919777624637391
    One-Electron Energy =               -3311.8927972032115576
    Two-Electron Energy =                1406.3827140979349224
    DFT Exchange-Correlation Energy =       0.0000000000000000
    Empirical Dispersion Energy =           0.0000000000000000
    PCM Polarization Energy =               0.0000000000000000
    EFP Energy =                            0.0000000000000000
    Total Energy =                       -762.1181053428128962



Properties will be evaluated at   0.000000,   0.000000,   0.000000 Bohr

Properties computed using the SCF density matrix

  Nuclear Dipole Moment: (a.u.)
     X:     2.9122      Y:    -0.8530      Z:    -2.0954

  Electronic Dipole Moment: (a.u.)
     X:    -3.1718      Y:     1.4006      Z:     2.7731

  Dipole Moment: (a.u.)
     X:    -0.2596      Y:     0.5476      Z:     0.6777     Total:     0.9091

  Dipole Moment: (Debye)
     X:    -0.6599      Y:     1.3919      Z:     1.7225     Total:     2.3108


*** tstop() called on ThinkPad-P50 at Mon Jan 15 19:00:28 2018
Module time:
	user time   =      82.46 seconds =       1.37 minutes
	system time =       0.54 seconds =       0.01 minutes
	total time  =         83 seconds =       1.38 minutes
Total time:
	user time   =      82.46 seconds =       1.37 minutes
	system time =       0.54 seconds =       0.01 minutes
	total time  =         83 seconds =       1.38 minutes
   => Loading Basis Set <=

    Name: (JUN-CC-PVDZ AUX)
    Role: JKFIT
    Keyword: DF_BASIS_SCF
    atoms 1, 5, 8, 12, 16, 19, 23-28     entry C          line   145 file /home/junteng/Softwares/psi4conda/share/psi4/basis/jun-cc-pvdz-jkfit.gbs 
    atoms 2-4, 9-11, 13-15, 20-22, 29-30 entry H          line    69 file /home/junteng/Softwares/psi4conda/share/psi4/basis/jun-cc-pvdz-jkfit.gbs 
    atoms 6-7, 17-18                     entry O          line   257 file /home/junteng/Softwares/psi4conda/share/psi4/basis/jun-cc-pvdz-jkfit.gbs 

   => Loading Basis Set <=

    Name: (JUN-CC-PVDZ AUX)
    Role: RIFIT
    Keyword: DF_BASIS_SAPT
    atoms 1, 5, 8, 12, 16, 19, 23-28     entry C          line    99 file /home/junteng/Softwares/psi4conda/share/psi4/basis/jun-cc-pvdz-ri.gbs 
    atoms 2-4, 9-11, 13-15, 20-22, 29-30 entry H          line    29 file /home/junteng/Softwares/psi4conda/share/psi4/basis/jun-cc-pvdz-ri.gbs 
    atoms 6-7, 17-18                     entry O          line   187 file /home/junteng/Softwares/psi4conda/share/psi4/basis/jun-cc-pvdz-ri.gbs 

   => Loading Basis Set <=

    Name: CC-PVTZ-MINAO
    Role: ORBITAL
    Keyword: BASIS
    atoms 1, 5, 8, 12, 16, 19, 23-28     entry C          line   130 file /home/junteng/Softwares/psi4conda/share/psi4/basis/cc-pvtz-minao.gbs 
    atoms 2-4, 9-11, 13-15, 20-22, 29-30 entry H          line    19 file /home/junteng/Softwares/psi4conda/share/psi4/basis/cc-pvtz-minao.gbs 
    atoms 6-7, 17-18                     entry O          line   190 file /home/junteng/Softwares/psi4conda/share/psi4/basis/cc-pvtz-minao.gbs 


*** tstart() called on ThinkPad-P50
*** at Mon Jan 15 19:00:29 2018

	 --------------------------------------------
	                    FISAPT0                  
	                  Rob Parrish                
	 --------------------------------------------

    Do F-SAPT =         Yes
    Do Plot   =          No
    Memory    =      78.580 [GD]

  ==> Localization (IBO) <==

  ==> IBO Localizer 2 <==

    MinAO Basis = CC-PVTZ-MINAO
    Use Ghosts  =       FALSE
    Use Stars   =       FALSE
    Condition   =   1.000E-07
    Power       =           4
    Convergence =   1.000E-12
    Maxiter     =        1000

    @IBO Iter:                   Metric       Gradient
    @IBO    1:   1.9644517783134114E+00   2.904448E+00
    @IBO    2:   2.2137840376280327E+00   1.898290E+00
    @IBO    3:   2.2819840158477489E+00   9.708613E-01
    @IBO    4:   2.2886572165544918E+00   3.883344E-02
    @IBO    5:   2.2886697284974549E+00   6.064432E-04
    @IBO    6:   2.2886697321994407E+00   3.101301E-05
    @IBO    7:   2.2886697322364418E+00   6.018365E-06
    @IBO    8:   2.2886697322380942E+00   1.335124E-06
    @IBO    9:   2.2886697322381795E+00   3.045474E-07
    @IBO   10:   2.2886697322381844E+00   7.021965E-08
    @IBO   11:   2.2886697322381844E+00   1.626752E-08
    @IBO   12:   2.2886697322381839E+00   3.776353E-09
    @IBO   13:   2.2886697322381844E+00   8.772515E-10
    @IBO   14:   2.2886697322381839E+00   2.037866E-10
    @IBO   15:   2.2886697322381839E+00   4.732414E-11
    @IBO   16:   2.2886697322381835E+00   1.098464E-11
    @IBO   17:   2.2886697322381839E+00   2.548426E-12
    @IBO   18:   2.2886697322381839E+00   5.909444E-13

    IBO Localizer 2 converged.

  ==> Partitioning <==

   => Atomic Partitioning <= 

    Monomer A:   4 atoms
    Monomer B:   7 atoms
    Monomer C:  19 atoms

   => Link Bond Identification <=

    Link Bond Selection = AUTOMATIC

    Charge Completeness = 0.800

    Total Link Bonds = 2

    --------------------------
    N     Orb Type Aind1 Aind2
    --------------------------
    1      18   BC     5    23
    2      26   AC     1    25
    --------------------------

   => Link Bond Assignment <=

    Link Bond Assignment      = C

   => Partition Summary <=

    Monomer A:  0 charge,   8 protons,   8 electrons,   4 docc
    Monomer B:  0 charge,  30 protons,  30 electrons,  15 docc
    Monomer C:  0 charge,  80 protons,  80 electrons,  40 docc

  ==> Overlap Integrals <==

  ==> Kinetic Integrals <==

  ==> Nuclear Integrals <==

    Nuclear Repulsion Tot:   1.1433919777624637E+03 [Eh]

  ==> Coulomb Integrals <==

  ==> DFJK: Density-Fitted J/K Matrices <==

    J tasked:                  Yes
    K tasked:                  Yes
    wK tasked:                  No
    OpenMP threads:              1
    Integrals threads:           1
    Memory (MB):            643730
    Algorithm:                Core
    Integral Cache:           NONE
    Schwarz Cutoff:          1E-12
    Fitting Condition:       1E-12

   => Auxiliary Basis Set <=

  Basis Set: (JUN-CC-PVDZ AUX)
    Blend: JUN-CC-PVDZ-JKFIT
    Number of shells: 558
    Number of basis function: 1586
    Number of Cartesian functions: 1806
    Spherical Harmonics?: true
    Max angular momentum: 3

  ==> Relaxed SCF Equations <==

  ==> SCF A: <==

    Maxiter =          50
    E Tol   =   1.000E-06
    D Tol   =   1.000E-08

    Max DIIS Vectors = 5

    Iter   N:                        E          dE         |D|
    Iter   1:  -3.6355101289174044E+01  -3.636E+01   3.328E-04 
    Iter   2:  -3.6359239498000484E+01  -4.138E-03   3.277E-05 DIIS
    Iter   3:  -3.6359353235750355E+01  -1.137E-04   6.654E-06 DIIS
    Iter   4:  -3.6359359649880894E+01  -6.414E-06   1.332E-06 DIIS
    Iter   5:  -3.6359359875908368E+01  -2.260E-07   2.807E-07 DIIS
    Iter   6:  -3.6359359885381977E+01  -9.474E-09   4.264E-08 DIIS
    Iter   7:  -3.6359359885645816E+01  -2.638E-10   5.926E-09 DIIS

    FISAPTSCF Converged.

    Final SCF Energy:  -3.6359359885645816E+01 [Eh]

   => Occupied Orbital Energies <=

       1  -11.237716     2   -0.852212     3   -0.561095  
       4   -0.557158  

   => Virtual Orbital Energies <=

       5    0.033535     6    0.051721     7    0.056808  
       8    0.066278     9    0.072955    10    0.079198  
      11    0.085942    12    0.093819    13    0.099909  
      14    0.101088    15    0.103244    16    0.107815  
      17    0.115514    18    0.118410    19    0.126462  
      20    0.129119    21    0.134430    22    0.140932  
      23    0.145876    24    0.147974    25    0.154379  
      26    0.158567    27    0.160245    28    0.165736  
      29    0.168364    30    0.176161    31    0.181512  
      32    0.189892    33    0.199861    34    0.200778  
      35    0.206617    36    0.212207    37    0.218334  
      38    0.222108    39    0.229490    40    0.233702  
      41    0.238457    42    0.241966    43    0.251008  
      44    0.253838    45    0.261676    46    0.268172  
      47    0.272513    48    0.277467    49    0.279381  
      50    0.283581    51    0.287869    52    0.288694  
      53    0.300860    54    0.304857    55    0.307055  
      56    0.315232    57    0.321761    58    0.329113  
      59    0.334515    60    0.335406    61    0.344867  
      62    0.350280    63    0.351535    64    0.358740  
      65    0.368157    66    0.374594    67    0.378394  
      68    0.384807    69    0.387452    70    0.393579  
      71    0.400093    72    0.404011    73    0.414452  
      74    0.420234    75    0.431132    76    0.435963  
      77    0.442771    78    0.450687    79    0.459546  
      80    0.462701    81    0.469531    82    0.483004  
      83    0.486401    84    0.496118    85    0.499055  
      86    0.502444    87    0.517447    88    0.524231  
      89    0.532430    90    0.553806    91    0.563815  
      92    0.586261    93    0.589916    94    0.602463  
      95    0.609470    96    0.632257    97    0.633728  
      98    0.635398    99    0.651223   100    0.663183  
     101    0.691412   102    0.713123   103    0.739922  
     104    0.756769   105    0.760737   106    0.769012  
     107    0.783851   108    0.805795   109    0.811376  
     110    0.829766   111    0.837250   112    0.849937  
     113    0.862712   114    0.868515   115    0.891280  
     116    0.908025   117    0.914509   118    0.919418  
     119    0.925427   120    0.926104   121    0.929605  
     122    0.934483   123    0.938780   124    0.947836  
     125    0.951081   126    0.953248   127    0.965949  
     128    0.977750   129    0.980897   130    0.983459  
     131    0.993056   132    1.001495   133    1.004291  
     134    1.010491   135    1.023498   136    1.039896  
     137    1.044645   138    1.051322   139    1.067965  
     140    1.082508   141    1.104324   142    1.107948  
     143    1.130805   144    1.147127   145    1.156885  
     146    1.163954   147    1.170914   148    1.191087  
     149    1.204080   150    1.209502   151    1.240247  
     152    1.259379   153    1.264327   154    1.274869  
     155    1.296114   156    1.309772   157    1.325716  
     158    1.339233   159    1.349965   160    1.363185  
     161    1.391205   162    1.411007   163    1.419805  
     164    1.451921   165    1.469437   166    1.478235  
     167    1.493785   168    1.507000   169    1.531615  
     170    1.558733   171    1.567681   172    1.572305  
     173    1.582105   174    1.587624   175    1.598102  
     176    1.621185   177    1.637221   178    1.648111  
     179    1.666995   180    1.674530   181    1.684460  
     182    1.694740   183    1.701535   184    1.713587  
     185    1.743297   186    1.754066   187    1.763907  
     188    1.780187   189    1.782490   190    1.812197  
     191    1.815821   192    1.829272   193    1.835496  
     194    1.854463   195    1.882538   196    1.890202  
     197    1.897014   198    1.926785   199    1.933291  
     200    1.938723   201    1.946658   202    1.955648  
     203    1.966376   204    1.975611   205    1.985678  
     206    1.990854   207    2.002766   208    2.015366  
     209    2.026103   210    2.030307   211    2.038874  
     212    2.047818   213    2.058779   214    2.061817  
     215    2.064256   216    2.073350   217    2.075248  
     218    2.089151   219    2.126064   220    2.135131  
     221    2.146640   222    2.158392   223    2.165843  
     224    2.176206   225    2.182096   226    2.196195  
     227    2.198837   228    2.243953   229    2.270789  
     230    2.274382   231    2.279404   232    2.294065  
     233    2.310382   234    2.327140   235    2.337712  
     236    2.343525   237    2.357660   238    2.382371  
     239    2.390920   240    2.402316   241    2.410714  
     242    2.427106   243    2.431313   244    2.446237  
     245    2.473390   246    2.512458   247    2.523323  
     248    2.531839   249    2.563182   250    2.575646  
     251    2.595292   252    2.602249   253    2.634993  
     254    2.649179   255    2.677654   256    2.688643  
     257    2.705973   258    2.711204   259    2.728484  
     260    2.762796   261    2.780478   262    2.807401  
     263    2.819492   264    2.834768   265    2.857693  
     266    2.865231   267    2.873215   268    2.878286  
     269    2.885943   270    2.887899   271    2.912327  
     272    2.915373   273    2.922921   274    2.945446  
     275    2.966942   276    2.991229   277    3.063370  
     278    3.081007   279    3.101283   280    3.112219  
     281    3.147684   282    3.192945   283    3.251828  
     284    3.291200   285    3.343583   286    3.379491  
     287    3.444302   288    3.580568   289    3.655979  
     290    3.674114   291    3.776777   292    3.802564  
     293    3.874989   294    3.948297   295    4.005801  
     296    4.092691   297    4.126750   298    4.252787  
     299    4.430813   300    4.513000   301    4.565505  
     302    4.740106   303    4.969746   304    5.040454  
     305    5.067257   306    5.220462   307    5.343961  
     308    5.545231   309    5.554489   310    5.641834  
     311    5.877368   312    6.260593   313    6.385526  
     314    6.743117   315   13.412153   316   18.435931  
     317   33.425037   318   33.479392  

  ==> SCF B: <==

    Maxiter =          50
    E Tol   =   1.000E-06
    D Tol   =   1.000E-08

    Max DIIS Vectors = 5

    Iter   N:                        E          dE         |D|
    Iter   1:  -2.2414468333474542E+02  -2.241E+02   7.681E-04 
    Iter   2:  -2.2416363256167568E+02  -1.895E-02   7.809E-05 DIIS
    Iter   3:  -2.2416446565702185E+02  -8.331E-04   2.667E-05 DIIS
    Iter   4:  -2.2416454267670363E+02  -7.702E-05   1.575E-05 DIIS
    Iter   5:  -2.2416455946199471E+02  -1.679E-05   2.776E-06 DIIS
    Iter   6:  -2.2416456074239233E+02  -1.280E-06   1.348E-06 DIIS
    Iter   7:  -2.2416456087962638E+02  -1.372E-07   5.388E-07 DIIS
    Iter   8:  -2.2416456091443868E+02  -3.481E-08   1.690E-07 DIIS
    Iter   9:  -2.2416456091875236E+02  -4.314E-09   5.450E-08 DIIS
    Iter  10:  -2.2416456091914171E+02  -3.893E-10   1.790E-08 DIIS
    Iter  11:  -2.2416456091918289E+02  -4.118E-11   4.489E-09 DIIS

    FISAPTSCF Converged.

    Final SCF Energy:  -2.2416456091918289E+02 [Eh]

   => Occupied Orbital Energies <=

       1  -20.608405     2  -20.550695     3  -11.393241  
       4  -11.295176     5   -1.442489     6   -1.357409  
       7   -0.964085     8   -0.769056     9   -0.672700  
      10   -0.661903    11   -0.626527    12   -0.538729  
      13   -0.537454    14   -0.476151    15   -0.462408  

   => Virtual Orbital Energies <=

      16    0.018059    17    0.055617    18    0.057471  
      19    0.066881    20    0.073724    21    0.080264  
      22    0.085135    23    0.091763    24    0.095894  
      25    0.102162    26    0.103099    27    0.105220  
      28    0.113362    29    0.117238    30    0.118573  
      31    0.122266    32    0.129490    33    0.134413  
      34    0.140489    35    0.145827    36    0.152345  
      37    0.155033    38    0.163318    39    0.167532  
      40    0.174613    41    0.175615    42    0.184813  
      43    0.193179    44    0.195503    45    0.203977  
      46    0.208789    47    0.215936    48    0.224490  
      49    0.226210    50    0.232393    51    0.236800  
      52    0.238042    53    0.243473    54    0.251450  
      55    0.254775    56    0.258433    57    0.268892  
      58    0.274401    59    0.278951    60    0.281314  
      61    0.290083    62    0.295663    63    0.298584  
      64    0.304245    65    0.307308    66    0.319027  
      67    0.321087    68    0.327284    69    0.331197  
      70    0.334637    71    0.343662    72    0.346538  
      73    0.347153    74    0.359013    75    0.361182  
      76    0.362004    77    0.375301    78    0.378676  
      79    0.381988    80    0.385850    81    0.395280  
      82    0.404500    83    0.409666    84    0.419238  
      85    0.421760    86    0.427174    87    0.429829  
      88    0.441028    89    0.445539    90    0.453737  
      91    0.458644    92    0.462960    93    0.471840  
      94    0.478532    95    0.479249    96    0.490748  
      97    0.493525    98    0.505238    99    0.513415  
     100    0.516252   101    0.528478   102    0.545861  
     103    0.557307   104    0.564937   105    0.569960  
     106    0.584855   107    0.602694   108    0.608835  
     109    0.632454   110    0.647637   111    0.664907  
     112    0.678254   113    0.699007   114    0.713098  
     115    0.741678   116    0.762155   117    0.783683  
     118    0.790808   119    0.806722   120    0.811995  
     121    0.833482   122    0.848194   123    0.851628  
     124    0.866715   125    0.869997   126    0.889456  
     127    0.897409   128    0.913334   129    0.919379  
     130    0.921911   131    0.923703   132    0.929095  
     133    0.935301   134    0.945507   135    0.956335  
     136    0.957985   137    0.962700   138    0.970729  
     139    0.973234   140    0.978387   141    0.986404  
     142    0.996131   143    1.014731   144    1.017850  
     145    1.023716   146    1.038665   147    1.048631  
     148    1.069997   149    1.072492   150    1.081682  
     151    1.083562   152    1.112427   153    1.136462  
     154    1.140498   155    1.150776   156    1.170760  
     157    1.181293   158    1.217783   159    1.221511  
     160    1.223667   161    1.233184   162    1.239075  
     163    1.273635   164    1.277634   165    1.280495  
     166    1.302853   167    1.330100   168    1.333486  
     169    1.334489   170    1.358692   171    1.375375  
     172    1.385834   173    1.395820   174    1.403093  
     175    1.419619   176    1.437739   177    1.448753  
     178    1.475435   179    1.485285   180    1.507343  
     181    1.518018   182    1.518797   183    1.530978  
     184    1.568075   185    1.572511   186    1.585612  
     187    1.602327   188    1.605624   189    1.612112  
     190    1.627275   191    1.648097   192    1.650813  
     193    1.659933   194    1.673669   195    1.675961  
     196    1.696537   197    1.702765   198    1.704524  
     199    1.724280   200    1.729957   201    1.749890  
     202    1.761987   203    1.766123   204    1.801610  
     205    1.803313   206    1.820385   207    1.828255  
     208    1.836614   209    1.876488   210    1.879060  
     211    1.882976   212    1.886345   213    1.910143  
     214    1.917648   215    1.931290   216    1.949632  
     217    1.951692   218    1.963392   219    1.975169  
     220    1.982444   221    1.988710   222    1.995798  
     223    2.002181   224    2.015455   225    2.025086  
     226    2.027918   227    2.033334   228    2.037737  
     229    2.056629   230    2.073748   231    2.075448  
     232    2.080587   233    2.096374   234    2.099904  
     235    2.107437   236    2.133318   237    2.144273  
     238    2.152620   239    2.160189   240    2.174479  
     241    2.193448   242    2.220926   243    2.223612  
     244    2.237529   245    2.247150   246    2.272242  
     247    2.290704   248    2.311030   249    2.316230  
     250    2.350896   251    2.363383   252    2.379240  
     253    2.384012   254    2.393233   255    2.402458  
     256    2.408105   257    2.429175   258    2.435401  
     259    2.439711   260    2.454300   261    2.468715  
     262    2.483082   263    2.514047   264    2.549551  
     265    2.565257   266    2.606629   267    2.630119  
     268    2.632079   269    2.699190   270    2.712587  
     271    2.717400   272    2.766326   273    2.772390  
     274    2.781242   275    2.795842   276    2.800342  
     277    2.809614   278    2.826323   279    2.856835  
     280    2.864017   281    2.872463   282    2.880435  
     283    2.885809   284    2.895171   285    2.900598  
     286    2.922848   287    2.932033   288    2.987911  
     289    3.003784   290    3.035546   291    3.060841  
     292    3.115309   293    3.119411   294    3.126093  
     295    3.188571   296    3.223852   297    3.251924  
     298    3.267379   299    3.291440   300    3.298668  
     301    3.345337   302    3.381179   303    3.451946  
     304    3.554528   305    3.577931   306    3.606907  
     307    3.673600   308    3.695723   309    3.778459  
     310    3.840187   311    3.940748   312    3.951754  
     313    4.079453   314    4.098341   315    4.114237  
     316    4.499963   317    4.566263   318   13.289044  

  ==> Frozen Core <==


    ------------------
    Range      A     B
    ------------------
    nbf      358   358
    nmo      318   318
    nocc       4    15
    nvir     314   303
    nfocc      1     4
    naocc      3    11
    navir    314   303
    nfvir      0     0
    ------------------

  ==> Unification <==

  ==> dHF <==

    E ABC(HF) =  -7.6211810534281290E+02 [Eh]
    E AC(0)   =  -5.3406568489361894E+02 [Eh]
    E BC(0)   =  -7.2199993192614204E+02 [Eh]
    E A(0)    =  -2.5020978739207216E+01 [Eh]
    E B(0)    =  -2.1261878106095278E+02 [Eh]
    E AC(HF)  =  -5.3406142629714725E+02 [Eh]
    E BC(HF)  =  -7.2198005434170420E+02 [Eh]
    E AB(HF)  =  -2.3759968641183286E+02 [Eh]
    E A(HF)   =  -2.5002213126871176E+01 [Eh]
    E B(HF)   =  -2.1258967733836144E+02 [Eh]
    E C       =  -4.9393117124263131E+02 [Eh]
    E HF      =   1.6340234316771785E-02 [Eh]

  ==> Electrostatics <==

    Elst10,r            =     0.007359011297 [Eh]

  ==> Exchange <==

    Exch10(S^2)         =     0.011183490397 [Eh]
    Exch10              =     0.011271745301 [Eh]

  ==> Induction <==

    Ind20,u (A<-B)      =    -0.001984458522 [Eh]
    Ind20,u (B<-A)      =    -0.001650670096 [Eh]
    Ind20,u             =    -0.003635128618 [Eh]
    Exch-Ind20,u (A<-B) =     0.001069698190 [Eh]
    Exch-Ind20,u (B<-A) =     0.001312493191 [Eh]
    Exch-Ind20,u        =     0.002382191380 [Eh]

  ==> CPHF Iterations <==

    Maxiter     =          50
    Convergence =   1.000E-08

    -----------------------------------------
    Iter   Monomer A    Monomer B    Time [s]
    -----------------------------------------
    1      1.246E-01    2.573E-01           9
    2      1.540E-02    1.033E-01          18
    3      3.837E-03    1.899E-02          28
    4      5.829E-04    7.553E-03          37
    5      7.664E-05    1.820E-03          47
    6      1.290E-05    6.366E-04          56
    7      1.835E-06    1.634E-04          65
    8      2.789E-07    7.739E-05          75
    9      3.007E-08    1.859E-05          84
    10     2.379E-09*   4.589E-06          93
    11     2.379E-09*   1.259E-06          98
    12     2.379E-09*   2.562E-07         103
    13     2.379E-09*   7.458E-08         108
    14     2.379E-09*   1.950E-08         113
    15     2.379E-09*   5.130E-09*        117
    -----------------------------------------

    Ind20,r (A<-B)      =    -0.002284694649 [Eh]
    Ind20,r (B<-A)      =    -0.002074631606 [Eh]
    Ind20,r             =    -0.004359326255 [Eh]
    Exch-Ind20,r (A<-B) =     0.001272102607 [Eh]
    Exch-Ind20,r (B<-A) =     0.001783406835 [Eh]
    Exch-Ind20,r        =     0.003055509442 [Eh]

  ==> F-SAPT Localization (IBO) <==

  Local Orbitals for Monomer A:

  ==> IBO Localizer 2 <==

    MinAO Basis = CC-PVTZ-MINAO
    Use Ghosts  =       FALSE
    Use Stars   =       FALSE
    Condition   =   1.000E-07
    Power       =           4
    Convergence =   1.000E-12
    Maxiter     =        1000

    @IBO Iter:                   Metric       Gradient
    @IBO    1:   1.0664245677255155E+00   1.887672E-02
    @IBO    2:   1.0842538674253324E+00   4.462610E-04
    @IBO    3:   1.0842540110151608E+00   2.429779E-08
    @IBO    4:   1.0842540110151611E+00   6.623180E-11
    @IBO    5:   1.0842540110151611E+00   2.719047E-15

    IBO Localizer 2 converged.

  Local Orbitals for Monomer B:

  ==> IBO Localizer 2 <==

    MinAO Basis = CC-PVTZ-MINAO
    Use Ghosts  =       FALSE
    Use Stars   =       FALSE
    Condition   =   1.000E-07
    Power       =           4
    Convergence =   1.000E-12
    Maxiter     =        1000

    @IBO Iter:                   Metric       Gradient
    @IBO    1:   1.4794879897528388E+00   1.560061E+00
    @IBO    2:   1.6738259658537633E+00   1.078962E+00
    @IBO    3:   1.7085985426193016E+00   2.835031E-01
    @IBO    4:   1.7098086219193698E+00   1.301504E-02
    @IBO    5:   1.7098131599899069E+00   4.161825E-04
    @IBO    6:   1.7098131624799424E+00   6.038801E-06
    @IBO    7:   1.7098131624806676E+00   1.532380E-07
    @IBO    8:   1.7098131624806683E+00   3.699206E-09
    @IBO    9:   1.7098131624806683E+00   1.092273E-10
    @IBO   10:   1.7098131624806681E+00   3.865328E-12
    @IBO   11:   1.7098131624806681E+00   1.481983E-13

    IBO Localizer 2 converged.

  ==> F-SAPT Electrostatics <==

  ==> DFERI: Density Fitted 3-Index Tensors <==

    Schwarz cutoff =   0.000E+00
    J cutoff       =   1.000E-12
    Mem (GB)       =         628

   => Auxiliary Basis <=

  Basis Set: (JUN-CC-PVDZ AUX)
    Blend: JUN-CC-PVDZ-JKFIT
    Number of shells: 558
    Number of basis function: 1586
    Number of Cartesian functions: 1806
    Spherical Harmonics?: true
    Max angular momentum: 3

    Elst10,r            =     0.007358982783 [Eh]

  ==> F-SAPT Exchange <==

  ==> DFERI: Density Fitted 3-Index Tensors <==

    Schwarz cutoff =   0.000E+00
    J cutoff       =   1.000E-12
    Mem (GB)       =         628

   => Auxiliary Basis <=

  Basis Set: (JUN-CC-PVDZ AUX)
    Blend: JUN-CC-PVDZ-JKFIT
    Number of shells: 558
    Number of basis function: 1586
    Number of Cartesian functions: 1806
    Spherical Harmonics?: true
    Max angular momentum: 3

    Exch10(S^2)         =     0.011183483962 [Eh]

    Scaling F-SAPT Exch10(S^2) by   1.008E+00 to match Exch10

  ==> F-SAPT Induction <==

  ==> DFERI: Density Fitted 3-Index Tensors <==

    Schwarz cutoff =   0.000E+00
    J cutoff       =   1.000E-12
    Mem (GB)       =         628

   => Auxiliary Basis <=

  Basis Set: (JUN-CC-PVDZ AUX)
    Blend: JUN-CC-PVDZ-JKFIT
    Number of shells: 558
    Number of basis function: 1586
    Number of Cartesian functions: 1806
    Spherical Harmonics?: true
    Max angular momentum: 3

    Ind20,u (A<-B)      =    -0.001984458317 [Eh]
    Ind20,u (B<-A)      =    -0.001650670862 [Eh]
    Ind20,u             =    -0.003635129179 [Eh]
    Exch-Ind20,u (A<-B) =     0.001069698072 [Eh]
    Exch-Ind20,u (B<-A) =     0.001312493364 [Eh]
    Exch-Ind20,u        =     0.002382191435 [Eh]

    Scaling for delta HF        =   1.757E+00
    Scaling for response (A<-B) =   1.107E+00
    Scaling for response (B<-A) =   8.612E-01
    Scaling for total (A<-B)    =   1.945E+00
    Scaling for total (B<-A)    =   1.513E+00

  ==> F-SAPT Dispersion <==

  ==> DFERI: Density Fitted 3-Index Tensors <==

    Schwarz cutoff =   0.000E+00
    J cutoff       =   1.000E-12
    Mem (GB)       =         628

   => Auxiliary Basis <=

  Basis Set: (JUN-CC-PVDZ AUX)
    Blend: JUN-CC-PVDZ-RI
    Number of shells: 420
    Number of basis function: 1236
    Number of Cartesian functions: 1426
    Spherical Harmonics?: true
    Max angular momentum: 3

    Disp20              =    -0.003647201802 [Eh]
    Exch-Disp20         =     0.000737116470 [Eh]

  ==> F-SAPT Output <==

    F-SAPT Data Filepath = fsapt/

  ==> Results <==


    SAPT Results  
  --------------------------------------------------------------------------------------------------------
    Electrostatics                  7.35901130 [mEh]       4.61784950 [kcal/mol]      19.32108416 [kJ/mol]
      Elst10,r                      7.35901130 [mEh]       4.61784950 [kcal/mol]      19.32108416 [kJ/mol]

    Exchange                       11.27174530 [mEh]       7.07312726 [kcal/mol]      29.59396729 [kJ/mol]
      Exch10                       11.27174530 [mEh]       7.07312726 [kcal/mol]      29.59396729 [kJ/mol]
      Exch10(S^2)                  11.18349040 [mEh]       7.01774647 [kcal/mol]      29.36225404 [kJ/mol]

    Induction                      -2.29052228 [mEh]      -1.43732449 [kcal/mol]      -6.01376625 [kJ/mol]
      Ind20,r                      -4.35932626 [mEh]      -2.73551864 [kcal/mol]     -11.44541108 [kJ/mol]
      Exch-Ind20,r                  3.05550944 [mEh]       1.91736120 [kcal/mol]       8.02224004 [kJ/mol]
      delta HF,r (2)               -0.98670547 [mEh]      -0.61916706 [kcal/mol]      -2.59059521 [kJ/mol]
      Induction (A<-B)             -1.77890376 [mEh]      -1.11627901 [kcal/mol]      -4.67051183 [kJ/mol]
      Induction (B<-A)             -0.51161852 [mEh]      -0.32104548 [kcal/mol]      -1.34325442 [kJ/mol]

    Dispersion                     -2.91008533 [mEh]      -1.82610619 [kcal/mol]      -7.64042904 [kJ/mol]
      Disp20                       -3.64720180 [mEh]      -2.28865378 [kcal/mol]      -9.57572833 [kJ/mol]
      Exch-Disp20                   0.73711647 [mEh]       0.46254759 [kcal/mol]       1.93529929 [kJ/mol]

  Total HF                         16.34023432 [mEh]      10.25365227 [kcal/mol]      42.90128520 [kJ/mol]
  Total SAPT0                      13.43014898 [mEh]       8.42754607 [kcal/mol]      35.26085616 [kJ/mol]

  --------------------------------------------------------------------------------------------------------
    Han Solo: This is *not* gonna work.
    Luke Skywalker: Why didn't you say so before?
    Han Solo: I *did* say so before.

*** tstop() called on ThinkPad-P50 at Mon Jan 15 19:05:15 2018
Module time:
	user time   =     284.22 seconds =       4.74 minutes
	system time =       1.68 seconds =       0.03 minutes
	total time  =        286 seconds =       4.77 minutes
Total time:
	user time   =     367.27 seconds =       6.12 minutes
	system time =       2.22 seconds =       0.04 minutes
	total time  =        370 seconds =       6.17 minutes

*** Psi4 exiting successfully. Buy a developer a beer!
