mFile = /opt/software/qchem/qchem-5.0.1//bin/mpi/machines
Process 0 of 1 is on vega03.cac.cornell.edu - thread support 0
initial socket setup ...start
initial socket setup ...done 
now start server 0 ... 
vega03 10.84.3
Q-Chem Developer Version! Running on 10.84.3.*
                  Welcome to Q-Chem
     A Quantum Leap Into The Future Of Chemistry


 Q-Chem 5.0, Q-Chem, Inc., Pleasanton, CA (2017)

 Yihan Shao,  Zhengting Gan,  E. Epifanovsky,  A. T. B. Gilbert,  M. Wormit,  
 J. Kussmann,  A. W. Lange,  A. Behn,  Jia Deng,  Xintian Feng,  D. Ghosh,  
 M. Goldey,  P. R. Horn,  L. D. Jacobson,  I. Kaliman,  T. Kus,  A. Landau,  
 Jie Liu,  E. I. Proynov,  R. M. Richard,  R. P. Steele,  E. J. Sundstrom,  
 H. L. Woodcock III,  P. M. Zimmerman,  D. Zuev,  B. Albrecht,  E. Alguire,  
 S. A. Baeppler,  Z. Benda,  Y. A. Bernard,  E. J. Berquist,  K. B. Bravaya,  
 D. Casanova,  Chun-Min Chang,  Yunqing Chen,  A. Chien,  K. D. Closser,  
 M. P. Coons,  S. Dasgupta,  M. Diedenhofen,  Hainam Do,  R. G. Edgar,  
 Po-Tung Fang,  S. Fatehi,  Qingguo Feng,  Qinghui Ge,  A. Ghysels,  
 J. Gomes,  J. Gonthier,  A. Gunina,  M. W. D. Hanson-Heine,  
 P. H. P. Harbach,  A. W. Hauser,  J. E. Herr,  E. G. Hohenstein,  
 Z. C. Holden,  Kerwin Hui,  T.-C. Jagau,  Hyunjun Ji,  B. Kaduk,  
 K. Khistyaev,  Jaehoon Kim,  P. Klunzinger,  K. Koh,  D. Kosenkov,  
 T. Kowalczyk,  C. M. Krauter,  A. Kunitsa,  Ka Un Lao,  A. Laurent,  
 K. V. Lawler,  Joonho Lee,  D. Lefrancois,  S. Lehtola,  D. S. Levine,  
 Yi-Pei Li,  You-Sheng Lin,  Fenglai Liu,  E. Livshits,  A. Luenser,  
 P. Manohar,  E. Mansoor,  S. F. Manzer,  Shan-Ping Mao,  Yuezhi Mao,  
 N. Mardirossian,  A. V. Marenich,  L. A. Martinez-Martinez,  S. A. Maurer,  
 N. J. Mayhall,  S. C. McKenzie,  J.-M. Mewes,  A. F. Morrison,  K. Nanda,  
 T. S. Nguyen-Beck,  R. Olivares-Amaya,  J. A. Parkhill,  T. M. Perrine,  
 F. Plasser,  S. Prager,  A. Prociuk,  D. R. Rehn,  F. Rob,  M. Schneider,  
 N. Sergueev,  S. M. Sharada,  S. Sharma,  D. W. Small,  T. Stauch,  
 T. Stein,  Yu-Chuan Su,  A. J. W. Thom,  T. Tsuchimochi,  L. Vogt,  
 O. Vydrov,  M. A. Watson,  J. Wenzel,  M. de Wergifosse,  T. A. Wesolowski,  
 A. White,  J. Witte,  A. Yamada,  Jun Yang,  K. Yao,  S. Yeganeh,  
 S. R. Yost,  Zhi-Qiang You,  A. Zech,  Igor Ying Zhang,  Xing Zhang,  
 Yan Zhao,  Ying Zhu,  B. R. Brooks,  G. K. L. Chan,  C. J. Cramer,  
 M. S. Gordon,  W. J. Hehre,  A. Klamt,  M. W. Schmidt,  C. D. Sherrill,  
 D. G. Truhlar,  A. Aspuru-Guzik,  R. Baer,  A. T. Bell,  N. A. Besley,  
 Jeng-Da Chai,  A. Dreuw,  B. D. Dunietz,  T. R. Furlani,  Chao-Ping Hsu,  
 Yousung Jung,  Jing Kong,  D. S. Lambrecht,  WanZhen Liang,  C. Ochsenfeld,  
 V. A. Rassolov,  L. V. Slipchenko,  J. E. Subotnik,  T. Van Voorhis,  
 J. M. Herbert,  A. I. Krylov,  P. M. W. Gill,  M. Head-Gordon

 Contributors to earlier versions of Q-Chem not listed above: 
 R. D. Adamson,  B. Austin,  J. Baker,  G. J. O. Beran,  K. Brandhorst,  
 S. T. Brown,  E. F. C. Byrd,  A. K. Chakraborty,  C.-L. Cheng,  
 Siu Hung Chien,  D. M. Chipman,  D. L. Crittenden,  H. Dachsel,  
 R. A. DiStasio Jr.,  R. J. Doerksen,  A. D. Dutoi,  L. Fusti-Molnar,  
 W. A. Goddard III,  A. Golubeva-Zadorozhnaya,  S. R. Gwaltney,  G. Hawkins,  
 A. Heyden,  S. Hirata,  G. Kedziora,  F. J. Keil,  C. Kelley,  Jihan Kim,  
 R. A. King,  R. Z. Khaliullin,  P. P. Korambath,  W. Kurlancheek,  
 A. M. Lee,  M. S. Lee,  S. V. Levchenko,  Ching Yeh Lin,  D. Liotard,  
 R. C. Lochan,  I. Lotan,  P. E. Maslen,  N. Nair,  D. P. O'Neill,  
 D. Neuhauser,  E. Neuscamman,  C. M. Oana,  R. Olson,  B. Peters,  
 R. Peverati,  P. A. Pieniazek,  Y. M. Rhee,  J. Ritchie,  M. A. Rohrdanz,  
 E. Rosta,  N. J. Russ,  H. F. Schaefer III,  N. E. Schultz,  N. Shenvi,  
 A. C. Simmonett,  A. Sodt,  D. Stuck,  K. S. Thanthiriwatte,  V. Vanovschi,  
 Tao Wang,  A. Warshel,  C. F. Williams,  Q. Wu,  X. Xu,  W. Zhang

 Please cite Q-Chem as follows:
 Y. Shao et al., Mol. Phys. 113, 184-215 (2015)
 DOI: 10.1080/00268976.2014.952696

 Q-Chem 5.0.1 for Intel X86 EM64T Linux

 Parts of Q-Chem use Armadillo 5.200.1 (Boston Tea Smuggler).
 http://arma.sourceforge.net/

 Q-Chem begins on Tue Apr 17 00:23:00 2018  

Host: vega03.cac.cornell.edu
0

     Scratch files written to /scratch/jj585/vdw/0110_distance_4.800_10.save//
 Parallel job on  1  processors

Checking the input file for inconsistencies... 	...done.

--------------------------------------------------------------
User input:
--------------------------------------------------------------
$molecule
0  1
C        +0.22270000        +1.04488000        +0.58595000
C        +0.62626000        -0.41353000        +0.99871000
C        +1.33008000        +1.39974000        -0.43491000
C        +2.63070000        +1.71700000        +0.32855000
C        +3.04336000        +0.29351000        +0.80300000
C        +1.94423000        -0.59299000        +0.15262000
O        +1.62840000        +0.13663000        -1.04376000
H        +3.37234000        +2.13782000        -0.35195000
H        +2.48236000        +2.42488000        +1.14651000
H        +4.02182000        +0.00994000        +0.41161000
H        +3.07359000        +0.18738000        +1.88928000
C        +0.90028000        +2.39077000        -1.49430000
C        +2.35450000        -2.01267000        -0.16812000
H        +3.26311000        -2.00678000        -0.77366000
H        +2.54990000        -2.57059000        +0.75079000
H        +1.57335000        -2.52896000        -0.72872000
H        +1.71845000        +2.58186000        -2.15686000
H        +0.59919000        +3.30478000        -1.02650000
H        +0.07925000        +1.98653000        -2.04874000
H        +0.81693000        -0.48905000        +2.04887000
H        -0.12524000        -1.15356000        +0.81843000
H        -0.74673000        +1.06811000        +0.13365000
H        +0.15552000        +1.72617000        +1.40828000
@C        +3.82545000        +2.97053000        +3.10628000
@C        +4.22901000        +1.51212000        +3.51904000
@C        +4.93283000        +3.32539000        +2.08542000
@C        +6.23345000        +3.64265000        +2.84888000
@C        +6.64611000        +2.21916000        +3.32333000
@C        +5.54698000        +1.33266000        +2.67295000
@O        +5.23115000        +2.06228000        +1.47657000
@H        +6.97509000        +4.06347000        +2.16838000
@H        +6.08511000        +4.35053000        +3.66684000
@H        +7.62457000        +1.93559000        +2.93194000
@H        +6.67634000        +2.11303000        +4.40961000
@C        +4.50303000        +4.31642000        +1.02603000
@C        +5.95725000        -0.08702000        +2.35221000
@H        +6.86586000        -0.08113000        +1.74667000
@H        +6.15265000        -0.64494000        +3.27112000
@H        +5.17610000        -0.60331000        +1.79161000
@H        +5.32120000        +4.50751000        +0.36347000
@H        +4.20194000        +5.23043000        +1.49383000
@H        +3.68200000        +3.91218000        +0.47159000
@H        +4.41968000        +1.43660000        +4.56920000
@H        +3.47751000        +0.77209000        +3.33876000
@H        +2.85602000        +2.99376000        +2.65398000
@H        +3.75827000        +3.65182000        +3.92861000
$end

$rem
JOBTYPE                   SP
METHOD                    B3LYP
DFT_D                     d3_op
BASIS                     6-311++G(d,p)
SYMMETRY                  False
THRESH                    12
SCF_CONVERGENCE           8
MAX_SUB_FILE_NUM          128
MEM_STATIC                400
MEM_TOTAL                 4000
$end
--------------------------------------------------------------
 Adding empirical dispersion correction 
 ----------------------------------------------------------------
 Doing -D3(op) with
 s6 =   1.00000
 s8 =   0.78311
 a1 =   0.30000
 a2 =   4.25000
 n  =  10.00000
 -D3 energy without 3body term =     -0.0216033054 hartrees
 ----------------------------------------------------------------
             Standard Nuclear Orientation (Angstroms)
    I     Atom           X                Y                Z
 ----------------------------------------------------------------
    1      C       0.2227000000     1.0448800000     0.5859500000
    2      C       0.6262600000    -0.4135300000     0.9987100000
    3      C       1.3300800000     1.3997400000    -0.4349100000
    4      C       2.6307000000     1.7170000000     0.3285500000
    5      C       3.0433600000     0.2935100000     0.8030000000
    6      C       1.9442300000    -0.5929900000     0.1526200000
    7      O       1.6284000000     0.1366300000    -1.0437600000
    8      H       3.3723400000     2.1378200000    -0.3519500000
    9      H       2.4823600000     2.4248800000     1.1465100000
   10      H       4.0218200000     0.0099400000     0.4116100000
   11      H       3.0735900000     0.1873800000     1.8892800000
   12      C       0.9002800000     2.3907700000    -1.4943000000
   13      C       2.3545000000    -2.0126700000    -0.1681200000
   14      H       3.2631100000    -2.0067800000    -0.7736600000
   15      H       2.5499000000    -2.5705900000     0.7507900000
   16      H       1.5733500000    -2.5289600000    -0.7287200000
   17      H       1.7184500000     2.5818600000    -2.1568600000
   18      H       0.5991900000     3.3047800000    -1.0265000000
   19      H       0.0792500000     1.9865300000    -2.0487400000
   20      H       0.8169300000    -0.4890500000     2.0488700000
   21      H      -0.1252400000    -1.1535600000     0.8184300000
   22      H      -0.7467300000     1.0681100000     0.1336500000
   23      H       0.1555200000     1.7261700000     1.4082800000
   24      GH      3.8254500000     2.9705300000     3.1062800000
   25      GH      4.2290100000     1.5121200000     3.5190400000
   26      GH      4.9328300000     3.3253900000     2.0854200000
   27      GH      6.2334500000     3.6426500000     2.8488800000
   28      GH      6.6461100000     2.2191600000     3.3233300000
   29      GH      5.5469800000     1.3326600000     2.6729500000
   30      GH      5.2311500000     2.0622800000     1.4765700000
   31      GH      6.9750900000     4.0634700000     2.1683800000
   32      GH      6.0851100000     4.3505300000     3.6668400000
   33      GH      7.6245700000     1.9355900000     2.9319400000
   34      GH      6.6763400000     2.1130300000     4.4096100000
   35      GH      4.5030300000     4.3164200000     1.0260300000
   36      GH      5.9572500000    -0.0870200000     2.3522100000
   37      GH      6.8658600000    -0.0811300000     1.7466700000
   38      GH      6.1526500000    -0.6449400000     3.2711200000
   39      GH      5.1761000000    -0.6033100000     1.7916100000
   40      GH      5.3212000000     4.5075100000     0.3634700000
   41      GH      4.2019400000     5.2304300000     1.4938300000
   42      GH      3.6820000000     3.9121800000     0.4715900000
   43      GH      4.4196800000     1.4366000000     4.5692000000
   44      GH      3.4775100000     0.7720900000     3.3387600000
   45      GH      2.8560200000     2.9937600000     2.6539800000
   46      GH      3.7582700000     3.6518200000     3.9286100000
 ----------------------------------------------------------------
 Nuclear Repulsion Energy =   506.2703564319 hartrees
 There are       35 alpha and       35 beta electrons
 Requested basis set is 6-311++G(d,p)
 There are 248 shells and 592 basis functions

 Total QAlloc Memory Limit   4000 MB
 Mega-Array Size       392 MB
 MEM_STATIC part       400 MB
 A cutoff of  1.0D-12 yielded  25534 shell pairs
 There are    144148 function pairs (    152453 Cartesian)
 
 -------------------------------------------------------
 OpenMP Integral Computing Module                       
 Release: version 1.0, May 2013, Q-Chem Inc. Pittsburgh 
 -------------------------------------------------------
 Integral Job Info:
 Integral job number is                      11
 Integral operator is                         1
 short-range coefficients                     0
 long-range coefficients              100000000
 Omega coefficients                           0
 if combine SR and LR in K                    0
 Integral screening is                        0
 Integral computing path is                   2
 max size of driver memory is            800000
 size of driver memory is                593474
 size of scratch memory is              2361544
 max col of scratch BK array               1296
 max len of scratch array in speh3          155
 max len of scratch index in speh4           18
 max int batch size is                      520
 min int batch size is                       52
 fixed nKL is                                52
 max L of basis functions is                  2
 order of int derivative is                   0
 number of shells is                        248
 number of basis is                         610
 number of cartesian basis is               610
 number of contracted shell pairs         25534
 number of primitive shell pairs          53084
 maxK2 (contraction) of shell pair           36
 max number of K2 of shell pair               1
 max number of CS2 of shell pair           4650
 max number of PS2 of shell pair           7968
 mem total for path MDJ                  197982
 -------------------------------------------------------
 Smallest overlap matrix eigenvalue = 2.74E-07
 Linear dependence detected in AO basis
 Number of orthogonalized atomic orbitals = 590
 Maximum deviation from orthogonality = 9.904E-11

 Scale SEOQF with 1.000000e-02/1.000000e-02/1.000000e-01

 Standard Electronic Orientation quadrupole field applied
 Nucleus-field energy     =    -0.0000000044 hartrees
 Guess from superposition of atomic densities
 Warning:  Energy on first SCF cycle will be non-variational

 Q-Chem warning in module /opt/software/qchem/qchem-5.0.1/libgen/Atomic_PolEc.C, line 58:

 No atomic polarizability available.


 Q-Chem warning in module /opt/software/qchem/qchem-5.0.1/libgen/Atomic_PolEc.C, line 73:

 No atomic polarizability available.


 Q-Chem warning in module /opt/software/qchem/qchem-5.0.1/libgen/Atomic_PolEc.C, line 58:

 No atomic polarizability available.


 Q-Chem warning in module /opt/software/qchem/qchem-5.0.1/libgen/Atomic_PolEc.C, line 73:

 No atomic polarizability available.


 Q-Chem warning in module /opt/software/qchem/qchem-5.0.1/libgen/Atomic_PolEc.C, line 58:

 No atomic polarizability available.


 Q-Chem warning in module /opt/software/qchem/qchem-5.0.1/libgen/Atomic_PolEc.C, line 73:

 No atomic polarizability available.


 Q-Chem warning in module /opt/software/qchem/qchem-5.0.1/libgen/Atomic_PolEc.C, line 58:

 No atomic polarizability available.


 Q-Chem warning in module /opt/software/qchem/qchem-5.0.1/libgen/Atomic_PolEc.C, line 73:

 No atomic polarizability available.


 Q-Chem warning in module /opt/software/qchem/qchem-5.0.1/libgen/Atomic_PolEc.C, line 58:

 No atomic polarizability available.


 Q-Chem warning in module /opt/software/qchem/qchem-5.0.1/libgen/Atomic_PolEc.C, line 73:

 No atomic polarizability available.


 Q-Chem warning in module /opt/software/qchem/qchem-5.0.1/libgen/Atomic_PolEc.C, line 58:

 No atomic polarizability available.


 Q-Chem warning in module /opt/software/qchem/qchem-5.0.1/libgen/Atomic_PolEc.C, line 73:

 No atomic polarizability available.


 Q-Chem warning in module /opt/software/qchem/qchem-5.0.1/libgen/Atomic_PolEc.C, line 58:

 No atomic polarizability available.


 Q-Chem warning in module /opt/software/qchem/qchem-5.0.1/libgen/Atomic_PolEc.C, line 73:

 No atomic polarizability available.


 Q-Chem warning in module /opt/software/qchem/qchem-5.0.1/libgen/Atomic_PolEc.C, line 58:

 No atomic polarizability available.


 Q-Chem warning in module /opt/software/qchem/qchem-5.0.1/libgen/Atomic_PolEc.C, line 73:

 No atomic polarizability available.


 Q-Chem warning in module /opt/software/qchem/qchem-5.0.1/libgen/Atomic_PolEc.C, line 58:

 No atomic polarizability available.


 Q-Chem warning in module /opt/software/qchem/qchem-5.0.1/libgen/Atomic_PolEc.C, line 73:

 No atomic polarizability available.


 Q-Chem warning in module /opt/software/qchem/qchem-5.0.1/libgen/Atomic_PolEc.C, line 58:

 No atomic polarizability available.


 Q-Chem warning in module /opt/software/qchem/qchem-5.0.1/libgen/Atomic_PolEc.C, line 73:

 No atomic polarizability available.


 Q-Chem warning in module /opt/software/qchem/qchem-5.0.1/libgen/Atomic_PolEc.C, line 58:

 No atomic polarizability available.


 Q-Chem warning in module /opt/software/qchem/qchem-5.0.1/libgen/Atomic_PolEc.C, line 73:

 No atomic polarizability available.


 Q-Chem warning in module /opt/software/qchem/qchem-5.0.1/libgen/Atomic_PolEc.C, line 58:

 No atomic polarizability available.


 Q-Chem warning in module /opt/software/qchem/qchem-5.0.1/libgen/Atomic_PolEc.C, line 73:

 No atomic polarizability available.


 Q-Chem warning in module /opt/software/qchem/qchem-5.0.1/libgen/Atomic_PolEc.C, line 58:

 No atomic polarizability available.


 Q-Chem warning in module /opt/software/qchem/qchem-5.0.1/libgen/Atomic_PolEc.C, line 73:

 No atomic polarizability available.


 Q-Chem warning in module /opt/software/qchem/qchem-5.0.1/libgen/Atomic_PolEc.C, line 58:

 No atomic polarizability available.


 Q-Chem warning in module /opt/software/qchem/qchem-5.0.1/libgen/Atomic_PolEc.C, line 73:

 No atomic polarizability available.


 Q-Chem warning in module /opt/software/qchem/qchem-5.0.1/libgen/Atomic_PolEc.C, line 58:

 No atomic polarizability available.


 Q-Chem warning in module /opt/software/qchem/qchem-5.0.1/libgen/Atomic_PolEc.C, line 73:

 No atomic polarizability available.


 Q-Chem warning in module /opt/software/qchem/qchem-5.0.1/libgen/Atomic_PolEc.C, line 58:

 No atomic polarizability available.


 Q-Chem warning in module /opt/software/qchem/qchem-5.0.1/libgen/Atomic_PolEc.C, line 73:

 No atomic polarizability available.


 Q-Chem warning in module /opt/software/qchem/qchem-5.0.1/libgen/Atomic_PolEc.C, line 58:

 No atomic polarizability available.


 Q-Chem warning in module /opt/software/qchem/qchem-5.0.1/libgen/Atomic_PolEc.C, line 73:

 No atomic polarizability available.


 Q-Chem warning in module /opt/software/qchem/qchem-5.0.1/libgen/Atomic_PolEc.C, line 58:

 No atomic polarizability available.


 Q-Chem warning in module /opt/software/qchem/qchem-5.0.1/libgen/Atomic_PolEc.C, line 73:

 No atomic polarizability available.


 Q-Chem warning in module /opt/software/qchem/qchem-5.0.1/libgen/Atomic_PolEc.C, line 58:

 No atomic polarizability available.


 Q-Chem warning in module /opt/software/qchem/qchem-5.0.1/libgen/Atomic_PolEc.C, line 73:

 No atomic polarizability available.


 Q-Chem warning in module /opt/software/qchem/qchem-5.0.1/libgen/Atomic_PolEc.C, line 58:

 No atomic polarizability available.


 Q-Chem warning in module /opt/software/qchem/qchem-5.0.1/libgen/Atomic_PolEc.C, line 73:

 No atomic polarizability available.


 Q-Chem warning in module /opt/software/qchem/qchem-5.0.1/libgen/Atomic_PolEc.C, line 58:

 No atomic polarizability available.


 Q-Chem warning in module /opt/software/qchem/qchem-5.0.1/libgen/Atomic_PolEc.C, line 73:

 No atomic polarizability available.


 Q-Chem warning in module /opt/software/qchem/qchem-5.0.1/libgen/Atomic_PolEc.C, line 58:

 No atomic polarizability available.


 Q-Chem warning in module /opt/software/qchem/qchem-5.0.1/libgen/Atomic_PolEc.C, line 73:

 No atomic polarizability available.


 Q-Chem warning in module /opt/software/qchem/qchem-5.0.1/libgen/Atomic_PolEc.C, line 58:

 No atomic polarizability available.


 Q-Chem warning in module /opt/software/qchem/qchem-5.0.1/libgen/Atomic_PolEc.C, line 73:

 No atomic polarizability available.

 A restricted hybrid HF-DFT SCF calculation will be
 performed using Pulay DIIS extrapolation
 Exchange:     0.2000 Hartree-Fock + 0.0800 Slater + 0.7200 B88
 Correlation:  0.1900 VWN1RPA + 0.8100 LYP
 Using SG-1 standard quadrature grid
 Dispersion:   Grimme D3
 SCF converges when DIIS error is below 1.0E-08
 using 4 threads for integral computing
 -------------------------------------------------------
 OpenMP Integral computing Module                
 Release: version 1.0, May 2013, Q-Chem Inc. Pittsburgh 
 -------------------------------------------------------
 -------------------------------------------------------
 OpenMP BLAS3 based DFT computing Module                
 Release: version 1.0, May 2013, Q-Chem Inc. Pittsburgh 
 -------------------------------------------------------
 ---------------------------------------
  Cycle       Energy         DIIS Error
 ---------------------------------------
    1    -390.4760361015      1.79E-02
    2    -388.4107296311      2.25E-03
    3    -388.3323406620      2.63E-03
    4    -388.6275992091      4.08E-04
    5    -388.6325708510      1.46E-04
    6    -388.6332194338      3.95E-05
    7    -388.6332642436      1.44E-05
    8    -388.6332719215      1.34E-06
    9    -388.6332719906      5.58E-07
   10    -388.6332720026      1.47E-07
   11    -388.6332720035      1.60E-08
   12    -388.6332720035      6.97E-09 Convergence criterion met
 ---------------------------------------
 SCF time:  CPU 1225.59 s  wall 309.13 s
 SCF   energy in the final basis set = -388.63327200
 Total energy in the final basis set = -388.63327200
 
 --------------------------------------------------------------
 
                    Orbital Energies (a.u.)
 --------------------------------------------------------------
 
 Alpha MOs
 -- Occupied --
-19.115 -10.224 -10.221 -10.166 -10.165 -10.162 -10.161 -10.160
-10.151  -1.049  -0.799  -0.789  -0.748  -0.717  -0.652  -0.616
 -0.562  -0.555  -0.486  -0.474  -0.464  -0.444  -0.420  -0.410
 -0.406  -0.402  -0.384  -0.360  -0.346  -0.343  -0.340  -0.333
 -0.316  -0.299  -0.261
 -- Virtual --
 -0.011   0.001   0.008   0.010   0.022   0.027   0.028   0.031
  0.036   0.044   0.050   0.051   0.054   0.058   0.060   0.061
  0.066   0.067   0.076   0.079   0.081   0.082   0.090   0.090
  0.094   0.097   0.105   0.106   0.107   0.109   0.114   0.117
  0.119   0.120   0.125   0.128   0.129   0.135   0.138   0.142
  0.145   0.147   0.149   0.152   0.155   0.157   0.159   0.160
  0.162   0.164   0.166   0.167   0.168   0.170   0.173   0.178
  0.183   0.185   0.187   0.190   0.192   0.198   0.200   0.202
  0.206   0.207   0.209   0.210   0.213   0.217   0.217   0.220
  0.222   0.227   0.230   0.231   0.236   0.240   0.240   0.245
  0.250   0.252   0.256   0.259   0.263   0.269   0.269   0.271
  0.275   0.279   0.287   0.289   0.290   0.293   0.301   0.304
  0.309   0.314   0.317   0.319   0.325   0.335   0.337   0.340
  0.343   0.348   0.351   0.359   0.362   0.364   0.370   0.374
  0.379   0.381   0.386   0.387   0.394   0.398   0.410   0.411
  0.418   0.420   0.424   0.429   0.433   0.439   0.444   0.447
  0.450   0.457   0.464   0.469   0.474   0.478   0.480   0.491
  0.507   0.519   0.521   0.529   0.531   0.539   0.544   0.551
  0.552   0.566   0.569   0.571   0.573   0.579   0.586   0.591
  0.595   0.601   0.616   0.619   0.621   0.623   0.636   0.645
  0.652   0.657   0.662   0.670   0.676   0.677   0.680   0.685
  0.690   0.697   0.712   0.714   0.719   0.722   0.732   0.739
  0.741   0.745   0.758   0.759   0.767   0.771   0.774   0.777
  0.786   0.788   0.794   0.810   0.811   0.818   0.825   0.838
  0.839   0.843   0.849   0.852   0.857   0.864   0.878   0.906
  0.908   0.914   0.918   0.939   0.942   0.953   0.970   0.981
  0.996   1.015   1.032   1.044   1.053   1.059   1.060   1.072
  1.076   1.084   1.117   1.137   1.148   1.156   1.164   1.182
  1.190   1.208   1.209   1.217   1.240   1.269   1.273   1.281
  1.282   1.288   1.290   1.299   1.319   1.327   1.365   1.373
  1.385   1.452   1.462   1.467   1.469   1.477   1.491   1.495
  1.509   1.521   1.531   1.544   1.551   1.555   1.563   1.576
  1.581   1.589   1.592   1.596   1.599   1.607   1.621   1.627
  1.639   1.652   1.659   1.669   1.670   1.681   1.693   1.694
  1.702   1.707   1.711   1.724   1.736   1.740   1.744   1.750
  1.764   1.765   1.769   1.776   1.778   1.783   1.796   1.803
  1.807   1.813   1.829   1.841   1.850   1.858   1.872   1.880
  1.889   1.896   1.900   1.902   1.907   1.911   1.914   1.926
  1.939   1.949   1.958   1.969   1.976   1.991   1.995   2.001
  2.009   2.018   2.019   2.031   2.050   2.064   2.069   2.083
  2.092   2.101   2.105   2.114   2.121   2.132   2.150   2.160
  2.189   2.205   2.208   2.214   2.226   2.234   2.240   2.259
  2.266   2.276   2.285   2.301   2.304   2.313   2.332   2.350
  2.358   2.363   2.367   2.373   2.382   2.390   2.394   2.408
  2.433   2.439   2.454   2.456   2.469   2.486   2.491   2.493
  2.497   2.509   2.521   2.532   2.536   2.547   2.552   2.561
  2.565   2.571   2.578   2.590   2.609   2.616   2.622   2.629
  2.642   2.647   2.659   2.665   2.689   2.698   2.713   2.713
  2.716   2.730   2.734   2.753   2.762   2.771   2.783   2.786
  2.796   2.802   2.808   2.827   2.846   2.866   2.872   2.874
  2.894   2.897   2.917   2.924   2.927   2.950   2.975   2.983
  2.993   2.998   3.016   3.027   3.038   3.048   3.071   3.097
  3.108   3.118   3.129   3.144   3.155   3.165   3.186   3.191
  3.220   3.239   3.249   3.261   3.267   3.277   3.302   3.307
  3.332   3.348   3.358   3.371   3.396   3.420   3.454   3.495
  3.499   3.529   3.536   3.555   3.563   3.578   3.592   3.608
  3.618   3.638   3.646   3.687   3.696   3.713   3.717   3.732
  3.795   3.821   3.833   3.835   3.883   3.885   3.888   3.903
  3.915   3.946   3.982   3.998   4.023   4.075   4.105   4.112
  4.165   4.201   4.212   4.289   4.297   4.485   4.505   4.579
  4.647   4.702   4.718   4.811   4.832   4.848   4.870   4.882
  4.893   4.912   4.927   4.995   5.013   5.057   5.067   5.160
  5.235   5.351   5.525   5.696   5.718   7.386   7.423   7.502
  7.559   7.592   7.601   7.667   7.705   7.736   7.745   7.803
  7.820   7.828   7.864   7.982   7.993   8.151   8.190   8.300
  8.396   8.455   8.462   8.689   8.807   9.883   9.905   9.997
 10.019  10.041  10.048  10.058  10.126  13.716  13.974  14.103
 18.632  23.791  23.862  23.967  23.984  24.005  24.032  24.038
 24.066  49.994  69.779  69.795  69.895  69.902  69.940  69.971
 69.998  70.036 139.793
 --------------------------------------------------------------
 
          Ground-State Mulliken Net Atomic Charges

     Atom                 Charge (a.u.)
  ----------------------------------------
      1 C                    -0.412469
      2 C                    -0.445630
      3 C                    -0.126869
      4 C                    -0.254318
      5 C                    -0.179898
      6 C                    -0.156065
      7 O                     0.065065
      8 H                     0.199281
      9 H                     0.034407
     10 H                     0.188307
     11 H                     0.042023
     12 C                    -0.267313
     13 C                    -0.294096
     14 H                     0.149284
     15 H                     0.156157
     16 H                     0.164253
     17 H                     0.139050
     18 H                     0.151878
     19 H                     0.162800
     20 H                     0.132943
     21 H                     0.176139
     22 H                     0.162752
     23 H                     0.142569
     24 GH                    0.054614
     25 GH                    0.044900
     26 GH                   -0.041771
     27 GH                   -0.012093
     28 GH                   -0.011754
     29 GH                   -0.014971
     30 GH                    0.028606
     31 GH                   -0.000623
     32 GH                   -0.000060
     33 GH                   -0.000318
     34 GH                   -0.000159
     35 GH                   -0.014583
     36 GH                   -0.031678
     37 GH                    0.001615
     38 GH                   -0.000822
     39 GH                    0.022691
     40 GH                    0.001344
     41 GH                   -0.001099
     42 GH                    0.031657
     43 GH                    0.000172
     44 GH                    0.007229
     45 GH                    0.006555
     46 GH                    0.000298
  ----------------------------------------
  Sum of atomic charges =     0.000000

 -----------------------------------------------------------------
                    Cartesian Multipole Moments
 -----------------------------------------------------------------
    Charge (ESU x 10^10)
                 0.0000
    Dipole Moment (Debye)
         X      -0.0287      Y       0.4312      Z       1.5067
       Tot       1.5675
    Quadrupole Moments (Debye-Ang)
        XX     -56.4493     XY       0.1594     YY     -54.7991
        XZ       2.4148     YZ      -0.4798     ZZ     -59.0941
    Octopole Moments (Debye-Ang^2)
       XXX    -276.9170    XXY     -26.3574    XYY     -90.7341
       YYY     -74.6137    XXZ       1.7500    XYZ      -1.2934
       YYZ      -0.0015    XZZ     -96.4128    YZZ     -24.3397
       ZZZ       6.5678
    Hexadecapole Moments (Debye-Ang^3)
      XXXX   -1330.4515   XXXY     -66.1811   XXYY    -359.5943
      XYYY     -60.0786   YYYY    -828.1365   XXXZ     -23.4354
      XXYZ      17.9355   XYYZ      -7.9967   YYYZ      71.4630
      XXZZ    -287.9995   XYZZ     -19.2306   YYZZ    -193.2929
      XZZZ      -5.0241   YZZZ      67.1664   ZZZZ    -353.1743
 -----------------------------------------------------------------
Archival summary:
1\1\vega03.cac.cornell.edu\SP\ProcedureUnspecified\BasisUnspecified\1814h23\jj585\TueApr1700:28:112018TueApr1700:28:112018\0\\#,ProcedureUnspecified,BasisUnspecified,\\0,1\O\C,1,1.43358\C,1,1.43646,2,98.0224\C,3,1.51218,1,111.091,2,-178.393,0\H,4,1.09134,3,111.033,1,-57.0184,0\H,4,1.09192,3,109.775,1,62.6469,0\H,4,1.09264,3,110.458,1,-177.522,0\C,2,1.513,1,109.807,3,-177.944,0\H,8,1.07,2,109.471,1,-64.7983,0\H,8,1.07,2,109.471,1,55.2018,0\H,8,1.07,2,109.471,1,175.202,0\C,2,1.54115,1,102.483,3,57.1986,0\H,12,1.09096,2,110.128,1,81.1589,0\H,12,1.09186,2,112.95,1,-157.962,0\C,2,1.54738,1,103.124,3,-55.9256,0\H,15,1.07,2,113.95,1,155.255,0\H,15,1.07,2,111.379,1,-86.5463,0\C,3,1.55466,1,102.371,2,-54.4128,0\H,18,1.09132,3,109.614,1,-87.4148,0\H,18,1.09187,3,112.355,1,152.676,0\C,15,1.5685,2,101.696,1,32.1918,0\H,21,1.07,15,111.7,2,120.458,0\H,21,1.07,15,114.71,2,-121.541,0\Gh,20,1.61432,18,149.884,3,-157.934,0\Gh,24,1.07,20,125.276,18,-22.0269,0\Gh,25,1.07,24,103.987,20,-163.79,0\Gh,25,1.5685,24,114.71,20,73.9289,0\Gh,27,1.07,25,113.95,24,115.396,0\Gh,27,1.07,25,111.379,24,-2.80271,0\Gh,27,1.54738,25,101.696,24,-121.541,0\Gh,30,1.43358,27,103.124,25,32.1918,0\Gh,31,1.43646,30,98.0224,27,-55.9256,0\Gh,32,1.51218,31,111.091,30,-178.393,0\Gh,33,1.09134,32,111.033,31,-57.0184,0\Gh,33,1.09192,32,109.775,31,62.6469,0\Gh,33,1.09264,32,110.458,31,-177.522,0\Gh,30,1.513,27,114.133,25,151.252,0\Gh,37,1.07,30,109.471,27,180,0\Gh,37,1.07,30,109.471,27,-60.0002,0\Gh,37,1.07,30,109.471,27,60.0002,0\Gh,30,1.54115,27,108.926,25,-76.1436,0\Gh,41,1.09096,30,110.128,27,-170.072,0\Gh,41,1.09186,30,112.95,27,-49.1929,0\Gh,32,1.55466,31,102.371,30,-54.4128,0\Gh,44,1.09132,32,109.614,31,-87.4148,0\Gh,44,1.09187,32,112.355,31,152.676,0\\\@

 Total job time:  310.37s(wall), 1228.55s(cpu) 
 Tue Apr 17 00:28:11 2018

        *************************************************************
        *                                                           *
        *  Thank you very much for using Q-Chem.  Have a nice day.  *
        *                                                           *
        *************************************************************


0 sent ACK to 0 
now end server 0 ... 
