mFile = /opt/software/qchem/qchem-5.0.1//bin/mpi/machines
Process 0 of 1 is on vega03.cac.cornell.edu - thread support 0
initial socket setup ...start
initial socket setup ...done 
now start server 0 ... 
vega03 10.84.3
Q-Chem Developer Version! Running on 10.84.3.*
                  Welcome to Q-Chem
     A Quantum Leap Into The Future Of Chemistry


 Q-Chem 5.0, Q-Chem, Inc., Pleasanton, CA (2017)

 Yihan Shao,  Zhengting Gan,  E. Epifanovsky,  A. T. B. Gilbert,  M. Wormit,  
 J. Kussmann,  A. W. Lange,  A. Behn,  Jia Deng,  Xintian Feng,  D. Ghosh,  
 M. Goldey,  P. R. Horn,  L. D. Jacobson,  I. Kaliman,  T. Kus,  A. Landau,  
 Jie Liu,  E. I. Proynov,  R. M. Richard,  R. P. Steele,  E. J. Sundstrom,  
 H. L. Woodcock III,  P. M. Zimmerman,  D. Zuev,  B. Albrecht,  E. Alguire,  
 S. A. Baeppler,  Z. Benda,  Y. A. Bernard,  E. J. Berquist,  K. B. Bravaya,  
 D. Casanova,  Chun-Min Chang,  Yunqing Chen,  A. Chien,  K. D. Closser,  
 M. P. Coons,  S. Dasgupta,  M. Diedenhofen,  Hainam Do,  R. G. Edgar,  
 Po-Tung Fang,  S. Fatehi,  Qingguo Feng,  Qinghui Ge,  A. Ghysels,  
 J. Gomes,  J. Gonthier,  A. Gunina,  M. W. D. Hanson-Heine,  
 P. H. P. Harbach,  A. W. Hauser,  J. E. Herr,  E. G. Hohenstein,  
 Z. C. Holden,  Kerwin Hui,  T.-C. Jagau,  Hyunjun Ji,  B. Kaduk,  
 K. Khistyaev,  Jaehoon Kim,  P. Klunzinger,  K. Koh,  D. Kosenkov,  
 T. Kowalczyk,  C. M. Krauter,  A. Kunitsa,  Ka Un Lao,  A. Laurent,  
 K. V. Lawler,  Joonho Lee,  D. Lefrancois,  S. Lehtola,  D. S. Levine,  
 Yi-Pei Li,  You-Sheng Lin,  Fenglai Liu,  E. Livshits,  A. Luenser,  
 P. Manohar,  E. Mansoor,  S. F. Manzer,  Shan-Ping Mao,  Yuezhi Mao,  
 N. Mardirossian,  A. V. Marenich,  L. A. Martinez-Martinez,  S. A. Maurer,  
 N. J. Mayhall,  S. C. McKenzie,  J.-M. Mewes,  A. F. Morrison,  K. Nanda,  
 T. S. Nguyen-Beck,  R. Olivares-Amaya,  J. A. Parkhill,  T. M. Perrine,  
 F. Plasser,  S. Prager,  A. Prociuk,  D. R. Rehn,  F. Rob,  M. Schneider,  
 N. Sergueev,  S. M. Sharada,  S. Sharma,  D. W. Small,  T. Stauch,  
 T. Stein,  Yu-Chuan Su,  A. J. W. Thom,  T. Tsuchimochi,  L. Vogt,  
 O. Vydrov,  M. A. Watson,  J. Wenzel,  M. de Wergifosse,  T. A. Wesolowski,  
 A. White,  J. Witte,  A. Yamada,  Jun Yang,  K. Yao,  S. Yeganeh,  
 S. R. Yost,  Zhi-Qiang You,  A. Zech,  Igor Ying Zhang,  Xing Zhang,  
 Yan Zhao,  Ying Zhu,  B. R. Brooks,  G. K. L. Chan,  C. J. Cramer,  
 M. S. Gordon,  W. J. Hehre,  A. Klamt,  M. W. Schmidt,  C. D. Sherrill,  
 D. G. Truhlar,  A. Aspuru-Guzik,  R. Baer,  A. T. Bell,  N. A. Besley,  
 Jeng-Da Chai,  A. Dreuw,  B. D. Dunietz,  T. R. Furlani,  Chao-Ping Hsu,  
 Yousung Jung,  Jing Kong,  D. S. Lambrecht,  WanZhen Liang,  C. Ochsenfeld,  
 V. A. Rassolov,  L. V. Slipchenko,  J. E. Subotnik,  T. Van Voorhis,  
 J. M. Herbert,  A. I. Krylov,  P. M. W. Gill,  M. Head-Gordon

 Contributors to earlier versions of Q-Chem not listed above: 
 R. D. Adamson,  B. Austin,  J. Baker,  G. J. O. Beran,  K. Brandhorst,  
 S. T. Brown,  E. F. C. Byrd,  A. K. Chakraborty,  C.-L. Cheng,  
 Siu Hung Chien,  D. M. Chipman,  D. L. Crittenden,  H. Dachsel,  
 R. A. DiStasio Jr.,  R. J. Doerksen,  A. D. Dutoi,  L. Fusti-Molnar,  
 W. A. Goddard III,  A. Golubeva-Zadorozhnaya,  S. R. Gwaltney,  G. Hawkins,  
 A. Heyden,  S. Hirata,  G. Kedziora,  F. J. Keil,  C. Kelley,  Jihan Kim,  
 R. A. King,  R. Z. Khaliullin,  P. P. Korambath,  W. Kurlancheek,  
 A. M. Lee,  M. S. Lee,  S. V. Levchenko,  Ching Yeh Lin,  D. Liotard,  
 R. C. Lochan,  I. Lotan,  P. E. Maslen,  N. Nair,  D. P. O'Neill,  
 D. Neuhauser,  E. Neuscamman,  C. M. Oana,  R. Olson,  B. Peters,  
 R. Peverati,  P. A. Pieniazek,  Y. M. Rhee,  J. Ritchie,  M. A. Rohrdanz,  
 E. Rosta,  N. J. Russ,  H. F. Schaefer III,  N. E. Schultz,  N. Shenvi,  
 A. C. Simmonett,  A. Sodt,  D. Stuck,  K. S. Thanthiriwatte,  V. Vanovschi,  
 Tao Wang,  A. Warshel,  C. F. Williams,  Q. Wu,  X. Xu,  W. Zhang

 Please cite Q-Chem as follows:
 Y. Shao et al., Mol. Phys. 113, 184-215 (2015)
 DOI: 10.1080/00268976.2014.952696

 Q-Chem 5.0.1 for Intel X86 EM64T Linux

 Parts of Q-Chem use Armadillo 5.200.1 (Boston Tea Smuggler).
 http://arma.sourceforge.net/

 Q-Chem begins on Tue Apr 17 00:37:48 2018  

Host: vega03.cac.cornell.edu
0

     Scratch files written to /scratch/jj585/vdw/0110_distance_6.500_10.save//
 Parallel job on  1  processors

Checking the input file for inconsistencies... 	...done.

--------------------------------------------------------------
User input:
--------------------------------------------------------------
$molecule
0  1
C        +0.22270000        +1.04488000        +0.58595000
C        +0.62626000        -0.41353000        +0.99871000
C        +1.33008000        +1.39974000        -0.43491000
C        +2.63070000        +1.71700000        +0.32855000
C        +3.04336000        +0.29351000        +0.80300000
C        +1.94423000        -0.59299000        +0.15262000
O        +1.62840000        +0.13663000        -1.04376000
H        +3.37234000        +2.13782000        -0.35195000
H        +2.48236000        +2.42488000        +1.14651000
H        +4.02182000        +0.00994000        +0.41161000
H        +3.07359000        +0.18738000        +1.88928000
C        +0.90028000        +2.39077000        -1.49430000
C        +2.35450000        -2.01267000        -0.16812000
H        +3.26311000        -2.00678000        -0.77366000
H        +2.54990000        -2.57059000        +0.75079000
H        +1.57335000        -2.52896000        -0.72872000
H        +1.71845000        +2.58186000        -2.15686000
H        +0.59919000        +3.30478000        -1.02650000
H        +0.07925000        +1.98653000        -2.04874000
H        +0.81693000        -0.48905000        +2.04887000
H        -0.12524000        -1.15356000        +0.81843000
H        -0.74673000        +1.06811000        +0.13365000
H        +0.15552000        +1.72617000        +1.40828000
@C        +5.10142000        +3.65254000        +3.99890000
@C        +5.50498000        +2.19413000        +4.41166000
@C        +6.20880000        +4.00740000        +2.97804000
@C        +7.50942000        +4.32466000        +3.74150000
@C        +7.92208000        +2.90117000        +4.21595000
@C        +6.82295000        +2.01467000        +3.56557000
@O        +6.50712000        +2.74429000        +2.36919000
@H        +8.25106000        +4.74548000        +3.06100000
@H        +7.36108000        +5.03254000        +4.55946000
@H        +8.90054000        +2.61760000        +3.82456000
@H        +7.95231000        +2.79504000        +5.30223000
@C        +5.77900000        +4.99843000        +1.91865000
@C        +7.23322000        +0.59499000        +3.24483000
@H        +8.14183000        +0.60088000        +2.63929000
@H        +7.42862000        +0.03707000        +4.16374000
@H        +6.45207000        +0.07870000        +2.68423000
@H        +6.59717000        +5.18952000        +1.25609000
@H        +5.47791000        +5.91244000        +2.38645000
@H        +4.95797000        +4.59419000        +1.36421000
@H        +5.69565000        +2.11861000        +5.46182000
@H        +4.75348000        +1.45410000        +4.23138000
@H        +4.13199000        +3.67577000        +3.54660000
@H        +5.03424000        +4.33383000        +4.82123000
$end

$rem
JOBTYPE                   SP
METHOD                    B3LYP
DFT_D                     d3_op
BASIS                     6-311++G(d,p)
SYMMETRY                  False
THRESH                    12
SCF_CONVERGENCE           8
MAX_SUB_FILE_NUM          128
MEM_STATIC                400
MEM_TOTAL                 4000
$end
--------------------------------------------------------------
 Adding empirical dispersion correction 
 ----------------------------------------------------------------
 Doing -D3(op) with
 s6 =   1.00000
 s8 =   0.78311
 a1 =   0.30000
 a2 =   4.25000
 n  =  10.00000
 -D3 energy without 3body term =     -0.0216033054 hartrees
 ----------------------------------------------------------------
             Standard Nuclear Orientation (Angstroms)
    I     Atom           X                Y                Z
 ----------------------------------------------------------------
    1      C       0.2227000000     1.0448800000     0.5859500000
    2      C       0.6262600000    -0.4135300000     0.9987100000
    3      C       1.3300800000     1.3997400000    -0.4349100000
    4      C       2.6307000000     1.7170000000     0.3285500000
    5      C       3.0433600000     0.2935100000     0.8030000000
    6      C       1.9442300000    -0.5929900000     0.1526200000
    7      O       1.6284000000     0.1366300000    -1.0437600000
    8      H       3.3723400000     2.1378200000    -0.3519500000
    9      H       2.4823600000     2.4248800000     1.1465100000
   10      H       4.0218200000     0.0099400000     0.4116100000
   11      H       3.0735900000     0.1873800000     1.8892800000
   12      C       0.9002800000     2.3907700000    -1.4943000000
   13      C       2.3545000000    -2.0126700000    -0.1681200000
   14      H       3.2631100000    -2.0067800000    -0.7736600000
   15      H       2.5499000000    -2.5705900000     0.7507900000
   16      H       1.5733500000    -2.5289600000    -0.7287200000
   17      H       1.7184500000     2.5818600000    -2.1568600000
   18      H       0.5991900000     3.3047800000    -1.0265000000
   19      H       0.0792500000     1.9865300000    -2.0487400000
   20      H       0.8169300000    -0.4890500000     2.0488700000
   21      H      -0.1252400000    -1.1535600000     0.8184300000
   22      H      -0.7467300000     1.0681100000     0.1336500000
   23      H       0.1555200000     1.7261700000     1.4082800000
   24      GH      5.1014200000     3.6525400000     3.9989000000
   25      GH      5.5049800000     2.1941300000     4.4116600000
   26      GH      6.2088000000     4.0074000000     2.9780400000
   27      GH      7.5094200000     4.3246600000     3.7415000000
   28      GH      7.9220800000     2.9011700000     4.2159500000
   29      GH      6.8229500000     2.0146700000     3.5655700000
   30      GH      6.5071200000     2.7442900000     2.3691900000
   31      GH      8.2510600000     4.7454800000     3.0610000000
   32      GH      7.3610800000     5.0325400000     4.5594600000
   33      GH      8.9005400000     2.6176000000     3.8245600000
   34      GH      7.9523100000     2.7950400000     5.3022300000
   35      GH      5.7790000000     4.9984300000     1.9186500000
   36      GH      7.2332200000     0.5949900000     3.2448300000
   37      GH      8.1418300000     0.6008800000     2.6392900000
   38      GH      7.4286200000     0.0370700000     4.1637400000
   39      GH      6.4520700000     0.0787000000     2.6842300000
   40      GH      6.5971700000     5.1895200000     1.2560900000
   41      GH      5.4779100000     5.9124400000     2.3864500000
   42      GH      4.9579700000     4.5941900000     1.3642100000
   43      GH      5.6956500000     2.1186100000     5.4618200000
   44      GH      4.7534800000     1.4541000000     4.2313800000
   45      GH      4.1319900000     3.6757700000     3.5466000000
   46      GH      5.0342400000     4.3338300000     4.8212300000
 ----------------------------------------------------------------
 Nuclear Repulsion Energy =   506.2703564319 hartrees
 There are       35 alpha and       35 beta electrons
 Requested basis set is 6-311++G(d,p)
 There are 248 shells and 592 basis functions

 Total QAlloc Memory Limit   4000 MB
 Mega-Array Size       392 MB
 MEM_STATIC part       400 MB
 A cutoff of  1.0D-12 yielded  23534 shell pairs
 There are    130924 function pairs (    138146 Cartesian)
 
 -------------------------------------------------------
 OpenMP Integral Computing Module                       
 Release: version 1.0, May 2013, Q-Chem Inc. Pittsburgh 
 -------------------------------------------------------
 Integral Job Info:
 Integral job number is                      11
 Integral operator is                         1
 short-range coefficients                     0
 long-range coefficients              100000000
 Omega coefficients                           0
 if combine SR and LR in K                    0
 Integral screening is                        0
 Integral computing path is                   2
 max size of driver memory is            800000
 size of driver memory is                593474
 size of scratch memory is              2361544
 max col of scratch BK array               1296
 max len of scratch array in speh3          155
 max len of scratch index in speh4           18
 max int batch size is                      520
 min int batch size is                       52
 fixed nKL is                                52
 max L of basis functions is                  2
 order of int derivative is                   0
 number of shells is                        248
 number of basis is                         610
 number of cartesian basis is               610
 number of contracted shell pairs         23534
 number of primitive shell pairs          48732
 maxK2 (contraction) of shell pair           36
 max number of K2 of shell pair               1
 max number of CS2 of shell pair           4437
 max number of PS2 of shell pair           7248
 mem total for path MDJ                  180426
 -------------------------------------------------------
 Smallest overlap matrix eigenvalue = 6.52E-07
 Linear dependence detected in AO basis
 Number of orthogonalized atomic orbitals = 590
 Maximum deviation from orthogonality = 7.345E-11

 Scale SEOQF with 1.000000e-02/1.000000e-02/1.000000e-02

 Standard Electronic Orientation quadrupole field applied
 Nucleus-field energy     =     0.0000000014 hartrees
 Guess from superposition of atomic densities
 Warning:  Energy on first SCF cycle will be non-variational

 Q-Chem warning in module /opt/software/qchem/qchem-5.0.1/libgen/Atomic_PolEc.C, line 58:

 No atomic polarizability available.


 Q-Chem warning in module /opt/software/qchem/qchem-5.0.1/libgen/Atomic_PolEc.C, line 73:

 No atomic polarizability available.


 Q-Chem warning in module /opt/software/qchem/qchem-5.0.1/libgen/Atomic_PolEc.C, line 58:

 No atomic polarizability available.


 Q-Chem warning in module /opt/software/qchem/qchem-5.0.1/libgen/Atomic_PolEc.C, line 73:

 No atomic polarizability available.


 Q-Chem warning in module /opt/software/qchem/qchem-5.0.1/libgen/Atomic_PolEc.C, line 58:

 No atomic polarizability available.


 Q-Chem warning in module /opt/software/qchem/qchem-5.0.1/libgen/Atomic_PolEc.C, line 73:

 No atomic polarizability available.


 Q-Chem warning in module /opt/software/qchem/qchem-5.0.1/libgen/Atomic_PolEc.C, line 58:

 No atomic polarizability available.


 Q-Chem warning in module /opt/software/qchem/qchem-5.0.1/libgen/Atomic_PolEc.C, line 73:

 No atomic polarizability available.


 Q-Chem warning in module /opt/software/qchem/qchem-5.0.1/libgen/Atomic_PolEc.C, line 58:

 No atomic polarizability available.


 Q-Chem warning in module /opt/software/qchem/qchem-5.0.1/libgen/Atomic_PolEc.C, line 73:

 No atomic polarizability available.


 Q-Chem warning in module /opt/software/qchem/qchem-5.0.1/libgen/Atomic_PolEc.C, line 58:

 No atomic polarizability available.


 Q-Chem warning in module /opt/software/qchem/qchem-5.0.1/libgen/Atomic_PolEc.C, line 73:

 No atomic polarizability available.


 Q-Chem warning in module /opt/software/qchem/qchem-5.0.1/libgen/Atomic_PolEc.C, line 58:

 No atomic polarizability available.


 Q-Chem warning in module /opt/software/qchem/qchem-5.0.1/libgen/Atomic_PolEc.C, line 73:

 No atomic polarizability available.


 Q-Chem warning in module /opt/software/qchem/qchem-5.0.1/libgen/Atomic_PolEc.C, line 58:

 No atomic polarizability available.


 Q-Chem warning in module /opt/software/qchem/qchem-5.0.1/libgen/Atomic_PolEc.C, line 73:

 No atomic polarizability available.


 Q-Chem warning in module /opt/software/qchem/qchem-5.0.1/libgen/Atomic_PolEc.C, line 58:

 No atomic polarizability available.


 Q-Chem warning in module /opt/software/qchem/qchem-5.0.1/libgen/Atomic_PolEc.C, line 73:

 No atomic polarizability available.


 Q-Chem warning in module /opt/software/qchem/qchem-5.0.1/libgen/Atomic_PolEc.C, line 58:

 No atomic polarizability available.


 Q-Chem warning in module /opt/software/qchem/qchem-5.0.1/libgen/Atomic_PolEc.C, line 73:

 No atomic polarizability available.


 Q-Chem warning in module /opt/software/qchem/qchem-5.0.1/libgen/Atomic_PolEc.C, line 58:

 No atomic polarizability available.


 Q-Chem warning in module /opt/software/qchem/qchem-5.0.1/libgen/Atomic_PolEc.C, line 73:

 No atomic polarizability available.


 Q-Chem warning in module /opt/software/qchem/qchem-5.0.1/libgen/Atomic_PolEc.C, line 58:

 No atomic polarizability available.


 Q-Chem warning in module /opt/software/qchem/qchem-5.0.1/libgen/Atomic_PolEc.C, line 73:

 No atomic polarizability available.


 Q-Chem warning in module /opt/software/qchem/qchem-5.0.1/libgen/Atomic_PolEc.C, line 58:

 No atomic polarizability available.


 Q-Chem warning in module /opt/software/qchem/qchem-5.0.1/libgen/Atomic_PolEc.C, line 73:

 No atomic polarizability available.


 Q-Chem warning in module /opt/software/qchem/qchem-5.0.1/libgen/Atomic_PolEc.C, line 58:

 No atomic polarizability available.


 Q-Chem warning in module /opt/software/qchem/qchem-5.0.1/libgen/Atomic_PolEc.C, line 73:

 No atomic polarizability available.


 Q-Chem warning in module /opt/software/qchem/qchem-5.0.1/libgen/Atomic_PolEc.C, line 58:

 No atomic polarizability available.


 Q-Chem warning in module /opt/software/qchem/qchem-5.0.1/libgen/Atomic_PolEc.C, line 73:

 No atomic polarizability available.


 Q-Chem warning in module /opt/software/qchem/qchem-5.0.1/libgen/Atomic_PolEc.C, line 58:

 No atomic polarizability available.


 Q-Chem warning in module /opt/software/qchem/qchem-5.0.1/libgen/Atomic_PolEc.C, line 73:

 No atomic polarizability available.


 Q-Chem warning in module /opt/software/qchem/qchem-5.0.1/libgen/Atomic_PolEc.C, line 58:

 No atomic polarizability available.


 Q-Chem warning in module /opt/software/qchem/qchem-5.0.1/libgen/Atomic_PolEc.C, line 73:

 No atomic polarizability available.


 Q-Chem warning in module /opt/software/qchem/qchem-5.0.1/libgen/Atomic_PolEc.C, line 58:

 No atomic polarizability available.


 Q-Chem warning in module /opt/software/qchem/qchem-5.0.1/libgen/Atomic_PolEc.C, line 73:

 No atomic polarizability available.


 Q-Chem warning in module /opt/software/qchem/qchem-5.0.1/libgen/Atomic_PolEc.C, line 58:

 No atomic polarizability available.


 Q-Chem warning in module /opt/software/qchem/qchem-5.0.1/libgen/Atomic_PolEc.C, line 73:

 No atomic polarizability available.


 Q-Chem warning in module /opt/software/qchem/qchem-5.0.1/libgen/Atomic_PolEc.C, line 58:

 No atomic polarizability available.


 Q-Chem warning in module /opt/software/qchem/qchem-5.0.1/libgen/Atomic_PolEc.C, line 73:

 No atomic polarizability available.


 Q-Chem warning in module /opt/software/qchem/qchem-5.0.1/libgen/Atomic_PolEc.C, line 58:

 No atomic polarizability available.


 Q-Chem warning in module /opt/software/qchem/qchem-5.0.1/libgen/Atomic_PolEc.C, line 73:

 No atomic polarizability available.


 Q-Chem warning in module /opt/software/qchem/qchem-5.0.1/libgen/Atomic_PolEc.C, line 58:

 No atomic polarizability available.


 Q-Chem warning in module /opt/software/qchem/qchem-5.0.1/libgen/Atomic_PolEc.C, line 73:

 No atomic polarizability available.


 Q-Chem warning in module /opt/software/qchem/qchem-5.0.1/libgen/Atomic_PolEc.C, line 58:

 No atomic polarizability available.


 Q-Chem warning in module /opt/software/qchem/qchem-5.0.1/libgen/Atomic_PolEc.C, line 73:

 No atomic polarizability available.

 A restricted hybrid HF-DFT SCF calculation will be
 performed using Pulay DIIS extrapolation
 Exchange:     0.2000 Hartree-Fock + 0.0800 Slater + 0.7200 B88
 Correlation:  0.1900 VWN1RPA + 0.8100 LYP
 Using SG-1 standard quadrature grid
 Dispersion:   Grimme D3
 SCF converges when DIIS error is below 1.0E-08
 using 4 threads for integral computing
 -------------------------------------------------------
 OpenMP Integral computing Module                
 Release: version 1.0, May 2013, Q-Chem Inc. Pittsburgh 
 -------------------------------------------------------
 -------------------------------------------------------
 OpenMP BLAS3 based DFT computing Module                
 Release: version 1.0, May 2013, Q-Chem Inc. Pittsburgh 
 -------------------------------------------------------
 ---------------------------------------
  Cycle       Energy         DIIS Error
 ---------------------------------------
    1    -390.4761252862      1.79E-02
    2    -388.4104876489      2.25E-03
    3    -388.3323796321      2.63E-03
    4    -388.6273228553      4.07E-04
    5    -388.6322681227      1.46E-04
    6    -388.6329157977      3.94E-05
    7    -388.6329602677      1.44E-05
    8    -388.6329679201      1.34E-06
    9    -388.6329679884      5.54E-07
   10    -388.6329680002      1.46E-07
   11    -388.6329680011      1.59E-08
   12    -388.6329680012      6.94E-09 Convergence criterion met
 ---------------------------------------
 SCF time:  CPU 765.63 s  wall 193.07 s
 SCF   energy in the final basis set = -388.63296800
 Total energy in the final basis set = -388.63296800
 
 --------------------------------------------------------------
 
                    Orbital Energies (a.u.)
 --------------------------------------------------------------
 
 Alpha MOs
 -- Occupied --
-19.115 -10.224 -10.221 -10.166 -10.165 -10.162 -10.161 -10.160
-10.151  -1.049  -0.799  -0.789  -0.749  -0.717  -0.652  -0.616
 -0.562  -0.556  -0.486  -0.474  -0.464  -0.444  -0.420  -0.410
 -0.407  -0.402  -0.384  -0.360  -0.346  -0.343  -0.340  -0.333
 -0.316  -0.299  -0.261
 -- Virtual --
 -0.011   0.001   0.008   0.010   0.022   0.026   0.027   0.032
  0.037   0.039   0.045   0.047   0.054   0.055   0.059   0.060
  0.063   0.067   0.073   0.074   0.078   0.078   0.086   0.087
  0.088   0.096   0.098   0.100   0.104   0.106   0.110   0.114
  0.118   0.119   0.121   0.123   0.125   0.131   0.134   0.136
  0.136   0.139   0.143   0.146   0.147   0.149   0.151   0.155
  0.158   0.161   0.165   0.166   0.168   0.170   0.174   0.175
  0.175   0.179   0.182   0.186   0.187   0.189   0.193   0.194
  0.196   0.199   0.200   0.205   0.207   0.209   0.211   0.212
  0.215   0.220   0.226   0.227   0.231   0.234   0.234   0.238
  0.242   0.244   0.245   0.248   0.249   0.253   0.255   0.258
  0.265   0.269   0.274   0.275   0.277   0.282   0.287   0.290
  0.295   0.300   0.310   0.311   0.316   0.320   0.324   0.327
  0.335   0.340   0.346   0.351   0.354   0.357   0.364   0.371
  0.373   0.374   0.381   0.383   0.386   0.391   0.396   0.397
  0.408   0.408   0.413   0.414   0.416   0.429   0.432   0.434
  0.444   0.456   0.458   0.469   0.470   0.474   0.478   0.483
  0.489   0.491   0.506   0.515   0.516   0.522   0.523   0.532
  0.550   0.551   0.561   0.567   0.575   0.578   0.585   0.589
  0.597   0.604   0.605   0.610   0.618   0.624   0.627   0.633
  0.637   0.645   0.649   0.651   0.656   0.664   0.670   0.672
  0.681   0.684   0.687   0.694   0.696   0.705   0.711   0.713
  0.718   0.727   0.728   0.737   0.741   0.754   0.761   0.765
  0.769   0.774   0.785   0.787   0.794   0.800   0.806   0.809
  0.815   0.817   0.827   0.830   0.835   0.839   0.861   0.869
  0.894   0.898   0.900   0.917   0.931   0.937   0.947   0.963
  0.970   0.973   0.981   1.022   1.040   1.047   1.050   1.059
  1.063   1.078   1.079   1.122   1.139   1.142   1.164   1.173
  1.180   1.187   1.194   1.202   1.225   1.234   1.243   1.250
  1.271   1.281   1.287   1.294   1.299   1.304   1.353   1.356
  1.375   1.431   1.432   1.449   1.455   1.465   1.475   1.480
  1.501   1.516   1.520   1.526   1.537   1.542   1.545   1.559
  1.565   1.582   1.588   1.596   1.599   1.605   1.608   1.623
  1.625   1.629   1.643   1.651   1.665   1.669   1.691   1.694
  1.707   1.710   1.711   1.716   1.720   1.729   1.739   1.742
  1.743   1.756   1.762   1.775   1.784   1.788   1.796   1.799
  1.803   1.809   1.817   1.823   1.836   1.854   1.860   1.863
  1.869   1.878   1.888   1.892   1.896   1.901   1.906   1.909
  1.920   1.934   1.939   1.946   1.954   1.964   1.970   1.996
  2.009   2.010   2.017   2.025   2.026   2.029   2.040   2.053
  2.068   2.077   2.091   2.093   2.102   2.127   2.127   2.138
  2.151   2.184   2.187   2.197   2.205   2.210   2.221   2.245
  2.251   2.263   2.277   2.282   2.305   2.312   2.327   2.342
  2.356   2.370   2.373   2.380   2.384   2.393   2.400   2.403
  2.407   2.433   2.447   2.456   2.469   2.470   2.473   2.485
  2.499   2.504   2.506   2.511   2.533   2.536   2.546   2.551
  2.558   2.560   2.567   2.568   2.578   2.584   2.598   2.613
  2.626   2.633   2.645   2.646   2.650   2.661   2.679   2.703
  2.713   2.720   2.735   2.745   2.766   2.776   2.778   2.780
  2.785   2.798   2.809   2.817   2.831   2.850   2.862   2.870
  2.889   2.890   2.898   2.907   2.924   2.934   2.945   2.956
  2.960   2.970   2.991   2.999   3.002   3.010   3.025   3.052
  3.076   3.085   3.109   3.118   3.126   3.148   3.151   3.162
  3.172   3.230   3.249   3.255   3.258   3.273   3.299   3.310
  3.321   3.326   3.332   3.347   3.350   3.385   3.466   3.486
  3.500   3.535   3.539   3.545   3.565   3.578   3.583   3.611
  3.617   3.630   3.634   3.668   3.692   3.694   3.714   3.719
  3.790   3.803   3.825   3.830   3.868   3.878   3.886   3.903
  3.917   3.946   3.971   3.983   4.018   4.075   4.101   4.119
  4.143   4.184   4.198   4.280   4.290   4.472   4.501   4.577
  4.648   4.689   4.715   4.823   4.830   4.846   4.876   4.899
  4.905   4.926   4.931   4.999   5.023   5.071   5.079   5.170
  5.215   5.367   5.518   5.689   5.740   7.377   7.413   7.497
  7.521   7.569   7.585   7.662   7.685   7.722   7.744   7.799
  7.827   7.830   7.847   7.942   7.987   8.148   8.187   8.312
  8.411   8.460   8.468   8.702   8.809   9.896   9.917   9.982
 10.033  10.049  10.054  10.080  10.139  13.656  13.946  14.104
 18.591  23.770  23.851  23.947  23.971  23.994  24.019  24.023
 24.055  49.984  69.811  69.829  69.870  69.901  69.952  69.972
 69.993  70.032 139.721
 --------------------------------------------------------------
 
          Ground-State Mulliken Net Atomic Charges

     Atom                 Charge (a.u.)
  ----------------------------------------
      1 C                    -0.423678
      2 C                    -0.479305
      3 C                     0.039278
      4 C                    -0.307161
      5 C                    -0.282089
      6 C                     0.089301
      7 O                     0.015706
      8 H                     0.160809
      9 H                     0.082841
     10 H                     0.143323
     11 H                     0.087379
     12 C                    -0.310652
     13 C                    -0.336420
     14 H                     0.151514
     15 H                     0.146399
     16 H                     0.153698
     17 H                     0.142406
     18 H                     0.143209
     19 H                     0.151478
     20 H                     0.137738
     21 H                     0.174172
     22 H                     0.163980
     23 H                     0.145046
     24 GH                   -0.000651
     25 GH                   -0.002554
     26 GH                   -0.004081
     27 GH                   -0.000570
     28 GH                   -0.000899
     29 GH                   -0.004959
     30 GH                   -0.000803
     31 GH                   -0.000036
     32 GH                    0.000005
     33 GH                   -0.000031
     34 GH                    0.000031
     35 GH                    0.002254
     36 GH                    0.003541
     37 GH                    0.000198
     38 GH                   -0.000393
     39 GH                    0.004949
     40 GH                    0.000407
     41 GH                   -0.000445
     42 GH                    0.004825
     43 GH                   -0.000845
     44 GH                    0.006990
     45 GH                    0.004500
     46 GH                   -0.000403
  ----------------------------------------
  Sum of atomic charges =     0.000000

 -----------------------------------------------------------------
                    Cartesian Multipole Moments
 -----------------------------------------------------------------
    Charge (ESU x 10^10)
                 0.0000
    Dipole Moment (Debye)
         X      -0.0324      Y       0.4300      Z       1.5076
       Tot       1.5681
    Quadrupole Moments (Debye-Ang)
        XX     -56.4632     XY       0.1439     YY     -54.7945
        XZ       2.3938     YZ      -0.4957     ZZ     -59.1123
    Octopole Moments (Debye-Ang^2)
       XXX    -276.9827    XXY     -26.4306    XYY     -90.7468
       YYY     -74.6327    XXZ       1.6394    XYZ      -1.3448
       YYZ      -0.0327    XZZ     -96.4685    YZZ     -24.3438
       ZZZ       6.5767
    Hexadecapole Moments (Debye-Ang^3)
      XXXX   -1330.5829   XXXY     -66.5094   XXYY    -359.6545
      XYYY     -60.1708   YYYY    -827.9512   XXXZ     -23.9853
      XXYZ      17.6856   XYYZ      -8.1089   YYYZ      71.4089
      XXZZ    -288.1808   XYZZ     -19.3067   YYZZ    -193.2737
      XZZZ      -5.0547   YZZZ      67.0870   ZZZZ    -353.2162
 -----------------------------------------------------------------
Archival summary:
1\1\vega03.cac.cornell.edu\SP\ProcedureUnspecified\BasisUnspecified\1814h23\jj585\TueApr1700:41:022018TueApr1700:41:022018\0\\#,ProcedureUnspecified,BasisUnspecified,\\0,1\O\C,1,1.43358\C,1,1.43646,2,98.0224\C,3,1.51218,1,111.091,2,-178.393,0\H,4,1.09134,3,111.033,1,-57.0184,0\H,4,1.09192,3,109.775,1,62.6469,0\H,4,1.09264,3,110.458,1,-177.522,0\C,2,1.513,1,109.807,3,-177.944,0\H,8,1.07,2,109.471,1,-64.7983,0\H,8,1.07,2,109.471,1,55.2018,0\H,8,1.07,2,109.471,1,175.202,0\C,2,1.54115,1,102.483,3,57.1986,0\H,12,1.09096,2,110.128,1,81.1589,0\H,12,1.09186,2,112.95,1,-157.962,0\C,2,1.54738,1,103.124,3,-55.9256,0\H,15,1.07,2,113.95,1,155.255,0\H,15,1.07,2,111.379,1,-86.5463,0\C,3,1.55466,1,102.371,2,-54.4128,0\H,18,1.09132,3,109.614,1,-87.4148,0\H,18,1.09187,3,112.355,1,152.676,0\C,15,1.5685,2,101.696,1,32.1918,0\H,21,1.07,15,111.7,2,120.458,0\H,21,1.07,15,114.71,2,-121.541,0\Gh,20,3.14834,18,135.706,3,-178.509,0\Gh,24,1.07,20,141.111,18,4.13239,0\Gh,25,1.07,24,103.987,20,-177.621,0\Gh,25,1.5685,24,114.71,20,60.0973,0\Gh,27,1.07,25,113.95,24,115.396,0\Gh,27,1.07,25,111.379,24,-2.80271,0\Gh,27,1.54738,25,101.696,24,-121.541,0\Gh,30,1.43358,27,103.124,25,32.1918,0\Gh,31,1.43646,30,98.0224,27,-55.9256,0\Gh,32,1.51218,31,111.091,30,-178.393,0\Gh,33,1.09134,32,111.033,31,-57.0184,0\Gh,33,1.09192,32,109.775,31,62.6469,0\Gh,33,1.09264,32,110.458,31,-177.522,0\Gh,30,1.513,27,114.133,25,151.252,0\Gh,37,1.07,30,109.471,27,180,0\Gh,37,1.07,30,109.471,27,-60.0002,0\Gh,37,1.07,30,109.471,27,60.0002,0\Gh,30,1.54115,27,108.926,25,-76.1436,0\Gh,41,1.09096,30,110.128,27,-170.072,0\Gh,41,1.09186,30,112.95,27,-49.1929,0\Gh,32,1.55466,31,102.371,30,-54.4128,0\Gh,44,1.09132,32,109.614,31,-87.4148,0\Gh,44,1.09187,32,112.355,31,152.676,0\\\@

 Total job time:  194.04s(wall), 768.35s(cpu) 
 Tue Apr 17 00:41:02 2018

        *************************************************************
        *                                                           *
        *  Thank you very much for using Q-Chem.  Have a nice day.  *
        *                                                           *
        *************************************************************


0 sent ACK to 0 
now end server 0 ... 
