mFile = /opt/software/qchem/qchem-5.0.1//bin/mpi/machines
Process 0 of 1 is on vega03.cac.cornell.edu - thread support 0
initial socket setup ...start
initial socket setup ...done 
now start server 0 ... 
vega03 10.84.3
Q-Chem Developer Version! Running on 10.84.3.*
                  Welcome to Q-Chem
     A Quantum Leap Into The Future Of Chemistry


 Q-Chem 5.0, Q-Chem, Inc., Pleasanton, CA (2017)

 Yihan Shao,  Zhengting Gan,  E. Epifanovsky,  A. T. B. Gilbert,  M. Wormit,  
 J. Kussmann,  A. W. Lange,  A. Behn,  Jia Deng,  Xintian Feng,  D. Ghosh,  
 M. Goldey,  P. R. Horn,  L. D. Jacobson,  I. Kaliman,  T. Kus,  A. Landau,  
 Jie Liu,  E. I. Proynov,  R. M. Richard,  R. P. Steele,  E. J. Sundstrom,  
 H. L. Woodcock III,  P. M. Zimmerman,  D. Zuev,  B. Albrecht,  E. Alguire,  
 S. A. Baeppler,  Z. Benda,  Y. A. Bernard,  E. J. Berquist,  K. B. Bravaya,  
 D. Casanova,  Chun-Min Chang,  Yunqing Chen,  A. Chien,  K. D. Closser,  
 M. P. Coons,  S. Dasgupta,  M. Diedenhofen,  Hainam Do,  R. G. Edgar,  
 Po-Tung Fang,  S. Fatehi,  Qingguo Feng,  Qinghui Ge,  A. Ghysels,  
 J. Gomes,  J. Gonthier,  A. Gunina,  M. W. D. Hanson-Heine,  
 P. H. P. Harbach,  A. W. Hauser,  J. E. Herr,  E. G. Hohenstein,  
 Z. C. Holden,  Kerwin Hui,  T.-C. Jagau,  Hyunjun Ji,  B. Kaduk,  
 K. Khistyaev,  Jaehoon Kim,  P. Klunzinger,  K. Koh,  D. Kosenkov,  
 T. Kowalczyk,  C. M. Krauter,  A. Kunitsa,  Ka Un Lao,  A. Laurent,  
 K. V. Lawler,  Joonho Lee,  D. Lefrancois,  S. Lehtola,  D. S. Levine,  
 Yi-Pei Li,  You-Sheng Lin,  Fenglai Liu,  E. Livshits,  A. Luenser,  
 P. Manohar,  E. Mansoor,  S. F. Manzer,  Shan-Ping Mao,  Yuezhi Mao,  
 N. Mardirossian,  A. V. Marenich,  L. A. Martinez-Martinez,  S. A. Maurer,  
 N. J. Mayhall,  S. C. McKenzie,  J.-M. Mewes,  A. F. Morrison,  K. Nanda,  
 T. S. Nguyen-Beck,  R. Olivares-Amaya,  J. A. Parkhill,  T. M. Perrine,  
 F. Plasser,  S. Prager,  A. Prociuk,  D. R. Rehn,  F. Rob,  M. Schneider,  
 N. Sergueev,  S. M. Sharada,  S. Sharma,  D. W. Small,  T. Stauch,  
 T. Stein,  Yu-Chuan Su,  A. J. W. Thom,  T. Tsuchimochi,  L. Vogt,  
 O. Vydrov,  M. A. Watson,  J. Wenzel,  M. de Wergifosse,  T. A. Wesolowski,  
 A. White,  J. Witte,  A. Yamada,  Jun Yang,  K. Yao,  S. Yeganeh,  
 S. R. Yost,  Zhi-Qiang You,  A. Zech,  Igor Ying Zhang,  Xing Zhang,  
 Yan Zhao,  Ying Zhu,  B. R. Brooks,  G. K. L. Chan,  C. J. Cramer,  
 M. S. Gordon,  W. J. Hehre,  A. Klamt,  M. W. Schmidt,  C. D. Sherrill,  
 D. G. Truhlar,  A. Aspuru-Guzik,  R. Baer,  A. T. Bell,  N. A. Besley,  
 Jeng-Da Chai,  A. Dreuw,  B. D. Dunietz,  T. R. Furlani,  Chao-Ping Hsu,  
 Yousung Jung,  Jing Kong,  D. S. Lambrecht,  WanZhen Liang,  C. Ochsenfeld,  
 V. A. Rassolov,  L. V. Slipchenko,  J. E. Subotnik,  T. Van Voorhis,  
 J. M. Herbert,  A. I. Krylov,  P. M. W. Gill,  M. Head-Gordon

 Contributors to earlier versions of Q-Chem not listed above: 
 R. D. Adamson,  B. Austin,  J. Baker,  G. J. O. Beran,  K. Brandhorst,  
 S. T. Brown,  E. F. C. Byrd,  A. K. Chakraborty,  C.-L. Cheng,  
 Siu Hung Chien,  D. M. Chipman,  D. L. Crittenden,  H. Dachsel,  
 R. A. DiStasio Jr.,  R. J. Doerksen,  A. D. Dutoi,  L. Fusti-Molnar,  
 W. A. Goddard III,  A. Golubeva-Zadorozhnaya,  S. R. Gwaltney,  G. Hawkins,  
 A. Heyden,  S. Hirata,  G. Kedziora,  F. J. Keil,  C. Kelley,  Jihan Kim,  
 R. A. King,  R. Z. Khaliullin,  P. P. Korambath,  W. Kurlancheek,  
 A. M. Lee,  M. S. Lee,  S. V. Levchenko,  Ching Yeh Lin,  D. Liotard,  
 R. C. Lochan,  I. Lotan,  P. E. Maslen,  N. Nair,  D. P. O'Neill,  
 D. Neuhauser,  E. Neuscamman,  C. M. Oana,  R. Olson,  B. Peters,  
 R. Peverati,  P. A. Pieniazek,  Y. M. Rhee,  J. Ritchie,  M. A. Rohrdanz,  
 E. Rosta,  N. J. Russ,  H. F. Schaefer III,  N. E. Schultz,  N. Shenvi,  
 A. C. Simmonett,  A. Sodt,  D. Stuck,  K. S. Thanthiriwatte,  V. Vanovschi,  
 Tao Wang,  A. Warshel,  C. F. Williams,  Q. Wu,  X. Xu,  W. Zhang

 Please cite Q-Chem as follows:
 Y. Shao et al., Mol. Phys. 113, 184-215 (2015)
 DOI: 10.1080/00268976.2014.952696

 Q-Chem 5.0.1 for Intel X86 EM64T Linux

 Parts of Q-Chem use Armadillo 5.200.1 (Boston Tea Smuggler).
 http://arma.sourceforge.net/

 Q-Chem begins on Tue Apr 17 00:44:14 2018  

Host: vega03.cac.cornell.edu
0

     Scratch files written to /scratch/jj585/vdw/0110_distance_6.500_11.save//
 Parallel job on  1  processors

Checking the input file for inconsistencies... 	...done.

--------------------------------------------------------------
User input:
--------------------------------------------------------------
$molecule
0  1
--
0  1
C        +0.22270000        +1.04488000        +0.58595000
C        +0.62626000        -0.41353000        +0.99871000
C        +1.33008000        +1.39974000        -0.43491000
C        +2.63070000        +1.71700000        +0.32855000
C        +3.04336000        +0.29351000        +0.80300000
C        +1.94423000        -0.59299000        +0.15262000
O        +1.62840000        +0.13663000        -1.04376000
H        +3.37234000        +2.13782000        -0.35195000
H        +2.48236000        +2.42488000        +1.14651000
H        +4.02182000        +0.00994000        +0.41161000
H        +3.07359000        +0.18738000        +1.88928000
C        +0.90028000        +2.39077000        -1.49430000
C        +2.35450000        -2.01267000        -0.16812000
H        +3.26311000        -2.00678000        -0.77366000
H        +2.54990000        -2.57059000        +0.75079000
H        +1.57335000        -2.52896000        -0.72872000
H        +1.71845000        +2.58186000        -2.15686000
H        +0.59919000        +3.30478000        -1.02650000
H        +0.07925000        +1.98653000        -2.04874000
H        +0.81693000        -0.48905000        +2.04887000
H        -0.12524000        -1.15356000        +0.81843000
H        -0.74673000        +1.06811000        +0.13365000
H        +0.15552000        +1.72617000        +1.40828000
--
0  1
C        +5.10142000        +3.65254000        +3.99890000
C        +5.50498000        +2.19413000        +4.41166000
C        +6.20880000        +4.00740000        +2.97804000
C        +7.50942000        +4.32466000        +3.74150000
C        +7.92208000        +2.90117000        +4.21595000
C        +6.82295000        +2.01467000        +3.56557000
O        +6.50712000        +2.74429000        +2.36919000
H        +8.25106000        +4.74548000        +3.06100000
H        +7.36108000        +5.03254000        +4.55946000
H        +8.90054000        +2.61760000        +3.82456000
H        +7.95231000        +2.79504000        +5.30223000
C        +5.77900000        +4.99843000        +1.91865000
C        +7.23322000        +0.59499000        +3.24483000
H        +8.14183000        +0.60088000        +2.63929000
H        +7.42862000        +0.03707000        +4.16374000
H        +6.45207000        +0.07870000        +2.68423000
H        +6.59717000        +5.18952000        +1.25609000
H        +5.47791000        +5.91244000        +2.38645000
H        +4.95797000        +4.59419000        +1.36421000
H        +5.69565000        +2.11861000        +5.46182000
H        +4.75348000        +1.45410000        +4.23138000
H        +4.13199000        +3.67577000        +3.54660000
H        +5.03424000        +4.33383000        +4.82123000
$end

$rem
JOBTYPE                   SP
METHOD                    B3LYP
DFT_D                     d3_op
BASIS                     6-311++G(d,p)
SYMMETRY                  False
THRESH                    12
SCF_CONVERGENCE           8
MAX_SUB_FILE_NUM          128
MEM_STATIC                400
MEM_TOTAL                 4000
$end
--------------------------------------------------------------
 Adding empirical dispersion correction 
 ----------------------------------------------------------------
 Doing -D3(op) with
 s6 =   1.00000
 s8 =   0.78311
 a1 =   0.30000
 a2 =   4.25000
 n  =  10.00000
 -D3 energy without 3body term =     -0.0457146563 hartrees
 ----------------------------------------------------------------
             Standard Nuclear Orientation (Angstroms)
    I     Atom           X                Y                Z
 ----------------------------------------------------------------
    1      C       3.7521332028    -0.8062444360     1.3227469506
    2      C       3.8177692199     0.7606866544     1.3474469649
    3      C       3.3013005017    -1.0784183330    -0.1322590525
    4      C       1.7957531303    -0.7726308732    -0.2545644311
    5      C       1.8085821733     0.7818712662    -0.1833368211
    6      C       3.3313684951     1.0877245644    -0.1159667295
    7      O       3.8971003161     0.0002516217    -0.8648119359
    8      H       1.4187727075    -1.1215926145    -1.2170149888
    9      H       1.2008046064    -1.2416956972     0.5316746269
   10      H       1.3851607101     1.2266598834    -1.0854783838
   11      H       1.2659133370     1.1837905172     0.6746568374
   12      C       3.7775242785    -2.4017243655    -0.6901548600
   13      C       3.7561295334     2.4214831913    -0.6881143577
   14      H       3.3803854717     2.5223228145    -1.7083757390
   15      H       3.3562762518     3.2403940717    -0.0853260054
   16      H       4.8437214134     2.5080134746    -0.7141807992
   17      H       3.4254565770    -2.5128145719    -1.6944509270
   18      H       3.3967203643    -3.2002857947    -0.0883290289
   19      H       4.8471761511    -2.4279165082    -0.6822305188
   20      H       3.1602498694     1.1726436785     2.0842332697
   21      H       4.7757163406     1.1643029449     1.6010780617
   22      H       4.7098054049    -1.2399402523     1.5219487077
   23      H       3.1042245541    -1.2255775513     2.0638744475
   24      C      -2.7475967829    -0.8064388182     1.3822220919
   25      C      -2.6819607657     0.7604922721     1.4069221062
   26      C      -3.1984294840    -1.0786127153    -0.0727839112
   27      C      -4.7039768553    -0.7728252555    -0.1950892898
   28      C      -4.6911478124     0.7816768839    -0.1238616798
   29      C      -3.1683614905     1.0875301821    -0.0564915882
   30      O      -2.6026296696     0.0000572394    -0.8053367946
   31      H      -5.0809572781    -1.1217869967    -1.1575398475
   32      H      -5.2989253793    -1.2418900795     0.5911497682
   33      H      -5.1145692755     1.2264655011    -1.0260032425
   34      H      -5.2338166487     1.1835961349     0.7341319787
   35      C      -2.7222057072    -2.4019187477    -0.6306797187
   36      C      -2.7436004522     2.4212888090    -0.6286392164
   37      H      -3.1193445139     2.5221284322    -1.6489005977
   38      H      -3.1434537339     3.2401996894    -0.0258508641
   39      H      -1.6560085723     2.5078190923    -0.6547056579
   40      H      -3.0742734087    -2.5130089542    -1.6349757857
   41      H      -3.1030096213    -3.2004801769    -0.0288538876
   42      H      -1.6525538346    -2.4281108905    -0.6227553775
   43      H      -3.3394801163     1.1724492962     2.1437084110
   44      H      -1.7240136450     1.1641085626     1.6605532030
   45      H      -1.7899245808    -1.2401346346     1.5814238490
   46      H      -3.3955054315    -1.2257719335     2.1233495888
 ----------------------------------------------------------------
 Molecular Point Group                 C1    NOp =  1
 Largest Abelian Subgroup              C1    NOp =  1
 Nuclear Repulsion Energy =  1400.1301291148 hartrees
 There are       70 alpha and       70 beta electrons
 Requested basis set is 6-311++G(d,p)
 There are 248 shells and 592 basis functions

 Total QAlloc Memory Limit   4000 MB
 Mega-Array Size       392 MB
 MEM_STATIC part       400 MB
 A cutoff of  1.0D-12 yielded  23534 shell pairs
 There are    130924 function pairs (    138146 Cartesian)
 
 -------------------------------------------------------
 OpenMP Integral Computing Module                       
 Release: version 1.0, May 2013, Q-Chem Inc. Pittsburgh 
 -------------------------------------------------------
 Integral Job Info:
 Integral job number is                      11
 Integral operator is                         1
 short-range coefficients                     0
 long-range coefficients              100000000
 Omega coefficients                           0
 if combine SR and LR in K                    0
 Integral screening is                        0
 Integral computing path is                   2
 max size of driver memory is            800000
 size of driver memory is                593474
 size of scratch memory is              2361544
 max col of scratch BK array               1296
 max len of scratch array in speh3          155
 max len of scratch index in speh4           18
 max int batch size is                      520
 min int batch size is                       52
 fixed nKL is                                52
 max L of basis functions is                  2
 order of int derivative is                   0
 number of shells is                        248
 number of basis is                         610
 number of cartesian basis is               610
 number of contracted shell pairs         23534
 number of primitive shell pairs          48732
 maxK2 (contraction) of shell pair           36
 max number of K2 of shell pair               1
 max number of CS2 of shell pair           4437
 max number of PS2 of shell pair           7248
 mem total for path MDJ                  180426
 -------------------------------------------------------
 Smallest overlap matrix eigenvalue = 6.52E-07
 Linear dependence detected in AO basis
 Number of orthogonalized atomic orbitals = 590
 Maximum deviation from orthogonality = 1.002E-10

 Scale SEOQF with 1.000000e-02/1.000000e-01/1.000000e-01

 Standard Electronic Orientation quadrupole field applied
 Nucleus-field energy     =     0.0000000156 hartrees
 Guess from superposition of atomic densities
 Warning:  Energy on first SCF cycle will be non-variational
 A restricted hybrid HF-DFT SCF calculation will be
 performed using Pulay DIIS extrapolation
 Exchange:     0.2000 Hartree-Fock + 0.0800 Slater + 0.7200 B88
 Correlation:  0.1900 VWN1RPA + 0.8100 LYP
 Using SG-1 standard quadrature grid
 Dispersion:   Grimme D3
 SCF converges when DIIS error is below 1.0E-08
 using 4 threads for integral computing
 -------------------------------------------------------
 OpenMP Integral computing Module                
 Release: version 1.0, May 2013, Q-Chem Inc. Pittsburgh 
 -------------------------------------------------------
 -------------------------------------------------------
 OpenMP BLAS3 based DFT computing Module                
 Release: version 1.0, May 2013, Q-Chem Inc. Pittsburgh 
 -------------------------------------------------------
 ---------------------------------------
  Cycle       Energy         DIIS Error
 ---------------------------------------
    1    -780.9554138498      2.53E-02
    2    -776.8227731825      3.18E-03
    3    -776.6670441442      3.72E-03
    4    -777.2565700251      5.73E-04
    5    -777.2663738970      2.07E-04
    6    -777.2676708238      5.56E-05
    7    -777.2677594879      2.04E-05
    8    -777.2677748385      1.88E-06
    9    -777.2677749735      7.69E-07
   10    -777.2677749962      2.10E-07
   11    -777.2677749980      2.47E-08
   12    -777.2677749981      1.40E-08
   13    -777.2677749980      3.76E-09 Convergence criterion met
 ---------------------------------------
 SCF time:  CPU 835.45 s  wall 210.57 s
 SCF   energy in the final basis set = -777.26777500
 Total energy in the final basis set = -777.26777500
 
 --------------------------------------------------------------
 
                    Orbital Energies (a.u.)
 --------------------------------------------------------------
 
 Alpha MOs
 -- Occupied --
-19.116 -19.112 -10.226 -10.222 -10.221 -10.218 -10.168 -10.167
-10.164 -10.163 -10.162 -10.161 -10.161 -10.160 -10.159 -10.157
-10.153 -10.149  -1.051  -1.046  -0.801  -0.796  -0.790  -0.786
 -0.751  -0.745  -0.719  -0.715  -0.654  -0.649  -0.618  -0.613
 -0.564  -0.559  -0.557  -0.552  -0.488  -0.483  -0.476  -0.471
 -0.466  -0.461  -0.446  -0.441  -0.422  -0.417  -0.412  -0.408
 -0.407  -0.404  -0.404  -0.398  -0.386  -0.381  -0.362  -0.357
 -0.348  -0.345  -0.344  -0.342  -0.340  -0.337  -0.335  -0.330
 -0.318  -0.313  -0.301  -0.296  -0.263  -0.258
 -- Virtual --
 -0.015  -0.004  -0.004   0.007   0.009   0.013   0.016   0.025
  0.027   0.028   0.032   0.033   0.039   0.040   0.046   0.051
  0.052   0.054   0.058   0.060   0.063   0.064   0.069   0.071
  0.076   0.084   0.085   0.088   0.089   0.091   0.094   0.103
  0.105   0.107   0.109   0.113   0.117   0.118   0.119   0.120
  0.122   0.124   0.126   0.128   0.129   0.131   0.136   0.136
  0.140   0.144   0.148   0.149   0.152   0.153   0.154   0.156
  0.159   0.160   0.161   0.163   0.165   0.168   0.168   0.170
  0.173   0.175   0.175   0.176   0.180   0.183   0.185   0.187
  0.188   0.189   0.196   0.196   0.198   0.202   0.205   0.206
  0.207   0.208   0.212   0.215   0.217   0.222   0.224   0.225
  0.228   0.231   0.234   0.235   0.238   0.243   0.247   0.250
  0.251   0.258   0.259   0.264   0.266   0.269   0.275   0.277
  0.281   0.284   0.289   0.291   0.291   0.299   0.303   0.304
  0.313   0.322   0.325   0.326   0.333   0.335   0.338   0.343
  0.347   0.352   0.354   0.357   0.358   0.366   0.367   0.370
  0.373   0.376   0.380   0.384   0.387   0.389   0.397   0.401
  0.406   0.409   0.414   0.416   0.419   0.422   0.437   0.451
  0.465   0.473   0.476   0.481   0.490   0.500   0.509   0.522
  0.531   0.535   0.544   0.553   0.557   0.562   0.564   0.565
  0.574   0.584   0.587   0.591   0.596   0.599   0.610   0.613
  0.613   0.623   0.630   0.634   0.641   0.644   0.647   0.651
  0.654   0.661   0.663   0.671   0.675   0.678   0.680   0.689
  0.693   0.695   0.697   0.705   0.712   0.713   0.717   0.723
  0.724   0.735   0.741   0.748   0.751   0.754   0.760   0.761
  0.768   0.771   0.773   0.778   0.783   0.793   0.797   0.803
  0.810   0.814   0.817   0.821   0.825   0.828   0.834   0.840
  0.847   0.853   0.898   0.905   0.920   0.933   0.935   0.942
  0.952   0.957   0.961   0.969   0.976   1.005   1.025   1.034
  1.056   1.063   1.117   1.128   1.136   1.147   1.174   1.182
  1.186   1.191   1.197   1.206   1.232   1.240   1.244   1.250
  1.281   1.281   1.284   1.290   1.298   1.303   1.357   1.362
  1.429   1.436   1.449   1.451   1.454   1.457   1.462   1.467
  1.473   1.480   1.482   1.491   1.501   1.510   1.520   1.528
  1.533   1.534   1.543   1.550   1.555   1.563   1.578   1.583
  1.586   1.591   1.595   1.597   1.604   1.613   1.623   1.626
  1.628   1.634   1.644   1.648   1.664   1.670   1.687   1.689
  1.695   1.697   1.705   1.709   1.712   1.712   1.716   1.728
  1.728   1.731   1.735   1.740   1.743   1.752   1.759   1.772
  1.778   1.786   1.788   1.793   1.799   1.814   1.842   1.849
  1.856   1.861   1.863   1.872   1.873   1.882   1.893   1.894
  1.907   1.913   1.936   1.940   1.954   1.960   1.994   1.998
  2.003   2.012   2.017   2.023   2.026   2.029   2.030   2.036
  2.073   2.083   2.090   2.097   2.117   2.127   2.130   2.141
  2.175   2.180   2.191   2.194   2.210   2.213   2.219   2.225
  2.249   2.256   2.275   2.279   2.283   2.291   2.306   2.310
  2.374   2.383   2.406   2.406   2.424   2.438   2.463   2.472
  2.474   2.486   2.499   2.503   2.506   2.509   2.525   2.534
  2.538   2.546   2.550   2.553   2.555   2.564   2.568   2.574
  2.582   2.587   2.599   2.605   2.621   2.627   2.632   2.634
  2.637   2.647   2.648   2.649   2.657   2.673   2.674   2.683
  2.691   2.701   2.717   2.718   2.761   2.774   2.775   2.786
  2.797   2.799   2.816   2.826   2.841   2.853   2.868   2.873
  2.887   2.890   2.900   2.903   2.951   2.955   2.961   2.969
  2.971   2.977   2.989   2.991   3.002   3.010   3.012   3.017
  3.072   3.077   3.081   3.088   3.119   3.125   3.147   3.150
  3.152   3.166   3.244   3.251   3.256   3.261   3.299   3.304
  3.327   3.336   3.343   3.351   3.544   3.548   3.615   3.620
  3.689   3.692   3.695   3.697   3.825   3.828   3.831   3.832
  3.876   3.881   3.888   3.889   3.969   3.974   3.982   3.986
  4.098   4.104   4.140   4.147   4.182   4.188   4.197   4.200
  4.279   4.283   4.289   4.293   4.470   4.475   4.498   4.503
  5.218   5.222   5.520   5.532   5.685   5.692  23.765  23.773
 23.849  23.854  23.950  23.951  23.970  23.974  23.995  23.997
 24.006  24.016  24.022  24.026  24.055  24.058  49.982  49.987
 --------------------------------------------------------------
 
          Ground-State Mulliken Net Atomic Charges

     Atom                 Charge (a.u.)
  ----------------------------------------
      1 C                    -0.425913
      2 C                    -0.480031
      3 C                     0.047047
      4 C                    -0.316535
      5 C                    -0.296657
      6 C                     0.091859
      7 O                     0.014245
      8 H                     0.166154
      9 H                     0.071697
     10 H                     0.146406
     11 H                     0.076747
     12 C                    -0.304156
     13 C                    -0.326325
     14 H                     0.152955
     15 H                     0.145129
     16 H                     0.152569
     17 H                     0.143899
     18 H                     0.142168
     19 H                     0.150272
     20 H                     0.136674
     21 H                     0.173237
     22 H                     0.163498
     23 H                     0.144055
     24 C                    -0.296151
     25 C                    -0.389030
     26 C                     0.197713
     27 C                    -0.626346
     28 C                    -0.505461
     29 C                     0.187030
     30 O                     0.004588
     31 H                     0.156827
     32 H                     0.139021
     33 H                     0.158937
     34 H                     0.139649
     35 C                    -0.258804
     36 C                    -0.360062
     37 H                     0.152963
     38 H                     0.145738
     39 H                     0.149217
     40 H                     0.149190
     41 H                     0.142326
     42 H                     0.143703
     43 H                     0.145917
     44 H                     0.159057
     45 H                     0.132984
     46 H                     0.162001
  ----------------------------------------
  Sum of atomic charges =     0.000000

 -----------------------------------------------------------------
                    Cartesian Multipole Moments
 -----------------------------------------------------------------
    Charge (ESU x 10^10)
                 0.0000
    Dipole Moment (Debye)
         X      -2.0209      Y       0.0159      Z       2.3925
       Tot       3.1318
    Quadrupole Moments (Debye-Ang)
        XX    -115.8249     XY       0.2070     YY    -109.5743
        XZ       2.6792     YZ      -0.2252     ZZ    -116.2338
    Octopole Moments (Debye-Ang^2)
       XXX     -52.7697    XXY      -0.1445    XYY       2.4078
       YYY       0.3780    XXZ      28.4316    XYZ       0.2511
       YYZ      -2.2455    XZZ      -6.4787    YZZ      -0.3111
       ZZZ      -5.1473
    Hexadecapole Moments (Debye-Ang^3)
      XXXX   -8043.1338   XXXY       7.7643   XXYY   -1553.7794
      XYYY       1.2777   YYYY   -1691.8162   XXXZ      86.3949
      XXYZ      -2.7181   XYYZ      -4.9808   YYYZ      -1.3249
      XXZZ   -1458.5887   XYZZ       0.6320   YYZZ    -387.1258
      XZZZ       0.2890   YZZZ       0.3916   ZZZZ    -689.6974
 -----------------------------------------------------------------
Archival summary:
1\1\vega03.cac.cornell.edu\SP\ProcedureUnspecified\BasisUnspecified\21628\jj585\TueApr1700:47:452018TueApr1700:47:452018\0\\#,ProcedureUnspecified,BasisUnspecified,\\0,1\O\C,1,1.43358\C,1,1.43646,2,98.0224\C,3,1.51218,1,111.091,2,-178.393,0\H,4,1.09134,3,111.033,1,-57.0184,0\H,4,1.09192,3,109.775,1,62.6469,0\H,4,1.09264,3,110.458,1,-177.522,0\C,2,1.513,1,109.807,3,-177.944,0\H,8,1.07,2,109.471,1,-64.7983,0\H,8,1.07,2,109.471,1,55.2018,0\H,8,1.07,2,109.471,1,175.202,0\C,2,1.54115,1,102.483,3,57.1986,0\H,12,1.09096,2,110.128,1,81.1589,0\H,12,1.09186,2,112.95,1,-157.962,0\C,2,1.54738,1,103.124,3,-55.9256,0\H,15,1.07,2,113.95,1,155.255,0\H,15,1.07,2,111.379,1,-86.5463,0\C,3,1.55466,1,102.371,2,-54.4128,0\H,18,1.09132,3,109.614,1,-87.4148,0\H,18,1.09187,3,112.355,1,152.676,0\C,15,1.5685,2,101.696,1,32.1918,0\H,21,1.07,15,111.7,2,120.458,0\H,21,1.07,15,114.71,2,-121.541,0\H,23,3.14834,21,141.111,15,60.0973,0\C,24,1.09187,23,135.706,21,4.13239,0\H,25,1.09132,24,107.862,23,60.5695,0\C,25,1.55466,24,112.355,23,-178.509,0\O,27,1.43646,25,102.371,24,152.676,0\C,28,1.43358,27,98.0224,25,-54.4128,0\C,27,1.51218,25,115.611,24,-86.4144,0\H,30,1.09134,27,111.033,25,-173.092,0\H,30,1.09192,27,109.775,25,-53.4265,0\H,30,1.09264,27,110.458,25,66.4047,0\C,29,1.513,28,109.807,27,-177.944,0\H,34,1.07,29,109.471,28,-64.7983,0\H,34,1.07,29,109.471,28,55.2018,0\H,34,1.07,29,109.471,28,175.202,0\C,29,1.54115,28,102.483,27,57.1986,0\H,38,1.09096,29,110.128,28,81.1589,0\H,38,1.09186,29,112.95,28,-157.962,0\C,29,1.54738,28,103.124,27,-55.9256,0\H,41,1.07,29,113.95,28,155.255,0\H,41,1.07,29,111.379,28,-86.5463,0\C,41,1.5685,29,101.696,28,32.1918,0\H,44,1.07,41,111.7,29,120.458,0\H,44,1.07,41,114.71,29,-121.541,0\\\@

 Total job time:  211.54s(wall), 838.27s(cpu) 
 Tue Apr 17 00:47:45 2018

        *************************************************************
        *                                                           *
        *  Thank you very much for using Q-Chem.  Have a nice day.  *
        *                                                           *
        *************************************************************


0 sent ACK to 0 
now end server 0 ... 
