mFile = /opt/software/qchem/qchem-5.0.1//bin/mpi/machines
Process 0 of 1 is on vega02.cac.cornell.edu - thread support 0
initial socket setup ...start
initial socket setup ...done 
now start server 0 ... 
vega02.cac.cornell.edu 10.84.3
Q-Chem Developer Version! Running on 10.84.3.*
                  Welcome to Q-Chem
     A Quantum Leap Into The Future Of Chemistry


 Q-Chem 5.0, Q-Chem, Inc., Pleasanton, CA (2017)

 Yihan Shao,  Zhengting Gan,  E. Epifanovsky,  A. T. B. Gilbert,  M. Wormit,  
 J. Kussmann,  A. W. Lange,  A. Behn,  Jia Deng,  Xintian Feng,  D. Ghosh,  
 M. Goldey,  P. R. Horn,  L. D. Jacobson,  I. Kaliman,  T. Kus,  A. Landau,  
 Jie Liu,  E. I. Proynov,  R. M. Richard,  R. P. Steele,  E. J. Sundstrom,  
 H. L. Woodcock III,  P. M. Zimmerman,  D. Zuev,  B. Albrecht,  E. Alguire,  
 S. A. Baeppler,  Z. Benda,  Y. A. Bernard,  E. J. Berquist,  K. B. Bravaya,  
 D. Casanova,  Chun-Min Chang,  Yunqing Chen,  A. Chien,  K. D. Closser,  
 M. P. Coons,  S. Dasgupta,  M. Diedenhofen,  Hainam Do,  R. G. Edgar,  
 Po-Tung Fang,  S. Fatehi,  Qingguo Feng,  Qinghui Ge,  A. Ghysels,  
 J. Gomes,  J. Gonthier,  A. Gunina,  M. W. D. Hanson-Heine,  
 P. H. P. Harbach,  A. W. Hauser,  J. E. Herr,  E. G. Hohenstein,  
 Z. C. Holden,  Kerwin Hui,  T.-C. Jagau,  Hyunjun Ji,  B. Kaduk,  
 K. Khistyaev,  Jaehoon Kim,  P. Klunzinger,  K. Koh,  D. Kosenkov,  
 T. Kowalczyk,  C. M. Krauter,  A. Kunitsa,  Ka Un Lao,  A. Laurent,  
 K. V. Lawler,  Joonho Lee,  D. Lefrancois,  S. Lehtola,  D. S. Levine,  
 Yi-Pei Li,  You-Sheng Lin,  Fenglai Liu,  E. Livshits,  A. Luenser,  
 P. Manohar,  E. Mansoor,  S. F. Manzer,  Shan-Ping Mao,  Yuezhi Mao,  
 N. Mardirossian,  A. V. Marenich,  L. A. Martinez-Martinez,  S. A. Maurer,  
 N. J. Mayhall,  S. C. McKenzie,  J.-M. Mewes,  A. F. Morrison,  K. Nanda,  
 T. S. Nguyen-Beck,  R. Olivares-Amaya,  J. A. Parkhill,  T. M. Perrine,  
 F. Plasser,  S. Prager,  A. Prociuk,  D. R. Rehn,  F. Rob,  M. Schneider,  
 N. Sergueev,  S. M. Sharada,  S. Sharma,  D. W. Small,  T. Stauch,  
 T. Stein,  Yu-Chuan Su,  A. J. W. Thom,  T. Tsuchimochi,  L. Vogt,  
 O. Vydrov,  M. A. Watson,  J. Wenzel,  M. de Wergifosse,  T. A. Wesolowski,  
 A. White,  J. Witte,  A. Yamada,  Jun Yang,  K. Yao,  S. Yeganeh,  
 S. R. Yost,  Zhi-Qiang You,  A. Zech,  Igor Ying Zhang,  Xing Zhang,  
 Yan Zhao,  Ying Zhu,  B. R. Brooks,  G. K. L. Chan,  C. J. Cramer,  
 M. S. Gordon,  W. J. Hehre,  A. Klamt,  M. W. Schmidt,  C. D. Sherrill,  
 D. G. Truhlar,  A. Aspuru-Guzik,  R. Baer,  A. T. Bell,  N. A. Besley,  
 Jeng-Da Chai,  A. Dreuw,  B. D. Dunietz,  T. R. Furlani,  Chao-Ping Hsu,  
 Yousung Jung,  Jing Kong,  D. S. Lambrecht,  WanZhen Liang,  C. Ochsenfeld,  
 V. A. Rassolov,  L. V. Slipchenko,  J. E. Subotnik,  T. Van Voorhis,  
 J. M. Herbert,  A. I. Krylov,  P. M. W. Gill,  M. Head-Gordon

 Contributors to earlier versions of Q-Chem not listed above: 
 R. D. Adamson,  B. Austin,  J. Baker,  G. J. O. Beran,  K. Brandhorst,  
 S. T. Brown,  E. F. C. Byrd,  A. K. Chakraborty,  C.-L. Cheng,  
 Siu Hung Chien,  D. M. Chipman,  D. L. Crittenden,  H. Dachsel,  
 R. A. DiStasio Jr.,  R. J. Doerksen,  A. D. Dutoi,  L. Fusti-Molnar,  
 W. A. Goddard III,  A. Golubeva-Zadorozhnaya,  S. R. Gwaltney,  G. Hawkins,  
 A. Heyden,  S. Hirata,  G. Kedziora,  F. J. Keil,  C. Kelley,  Jihan Kim,  
 R. A. King,  R. Z. Khaliullin,  P. P. Korambath,  W. Kurlancheek,  
 A. M. Lee,  M. S. Lee,  S. V. Levchenko,  Ching Yeh Lin,  D. Liotard,  
 R. C. Lochan,  I. Lotan,  P. E. Maslen,  N. Nair,  D. P. O'Neill,  
 D. Neuhauser,  E. Neuscamman,  C. M. Oana,  R. Olson,  B. Peters,  
 R. Peverati,  P. A. Pieniazek,  Y. M. Rhee,  J. Ritchie,  M. A. Rohrdanz,  
 E. Rosta,  N. J. Russ,  H. F. Schaefer III,  N. E. Schultz,  N. Shenvi,  
 A. C. Simmonett,  A. Sodt,  D. Stuck,  K. S. Thanthiriwatte,  V. Vanovschi,  
 Tao Wang,  A. Warshel,  C. F. Williams,  Q. Wu,  X. Xu,  W. Zhang

 Please cite Q-Chem as follows:
 Y. Shao et al., Mol. Phys. 113, 184-215 (2015)
 DOI: 10.1080/00268976.2014.952696

 Q-Chem 5.0.1 for Intel X86 EM64T Linux

 Parts of Q-Chem use Armadillo 5.200.1 (Boston Tea Smuggler).
 http://arma.sourceforge.net/

 Q-Chem begins on Tue Apr 17 23:31:10 2018  

Host: vega02.cac.cornell.edu
0

     Scratch files written to /scratch/jj585/vdw/0110_distance_3.000_01.save//
 Parallel job on  1  processors

Checking the input file for inconsistencies... 	...done.

--------------------------------------------------------------
User input:
--------------------------------------------------------------
$molecule
0  1
C        +0.21299000        +1.89486000        +3.44368000
C        +0.66571000        +0.47327000        +3.87657000
C        +1.32160000        +2.28499000        +2.43158000
C        +2.62149000        +2.59689000        +3.21684000
C        +3.07533000        +1.17683000        +3.65307000
C        +1.96073000        +0.28772000        +3.04412000
O        +1.63733000        +1.00760000        +1.83206000
H        +3.35631000        +3.06238000        +2.55627000
H        +2.44499000        +3.27625000        +4.05383000
H        +4.04096000        +0.91717000        +3.21436000
H        +3.15366000        +1.05694000        +4.73610000
C        +0.92932000        +3.29103000        +1.37412000
C        +2.34980000        -1.13868000        +2.73046000
H        +3.22445000        -1.16394000        +2.07577000
H        +2.59352000        -1.67576000        +3.65157000
H        +1.52919000        -1.66165000        +2.23333000
H        +1.74613000        +3.43975000        +0.66380000
H        +0.69454000        +4.25445000        +1.83584000
H        +0.04866000        +2.94867000        +0.82545000
H        +0.84756000        +0.38175000        +4.94982000
H        -0.07107000        -0.28230000        +3.59464000
H        -0.75688000        +1.86650000        +2.94225000
H        +0.14401000        +2.60256000        +4.27259000
@C        +0.20186000        +1.01419000        +0.57588000
@C        +0.65458000        -0.40740000        +1.00877000
@C        +1.31047000        +1.40432000        -0.43622000
@C        +2.61036000        +1.71622000        +0.34904000
@C        +3.06420000        +0.29616000        +0.78527000
@C        +1.94960000        -0.59295000        +0.17632000
@O        +1.62620000        +0.12693000        -1.03574000
@H        +3.34518000        +2.18171000        -0.31153000
@H        +2.43386000        +2.39558000        +1.18603000
@H        +4.02983000        +0.03650000        +0.34656000
@H        +3.14253000        +0.17627000        +1.86830000
@C        +0.91819000        +2.41036000        -1.49368000
@C        +2.33867000        -2.01935000        -0.13734000
@H        +3.21332000        -2.04461000        -0.79203000
@H        +2.58239000        -2.55643000        +0.78377000
@H        +1.51806000        -2.54232000        -0.63447000
@H        +1.73500000        +2.55908000        -2.20400000
@H        +0.68341000        +3.37378000        -1.03196000
@H        +0.03753000        +2.06800000        -2.04235000
@H        +0.83643000        -0.49892000        +2.08202000
@H        -0.08220000        -1.16297000        +0.72684000
@H        -0.76801000        +0.98583000        +0.07445000
@H        +0.13288000        +1.72189000        +1.40479000
$end

$rem
JOBTYPE                   SP
METHOD                    B3LYP
DFT_D                     d3_op
BASIS                     6-311++G(d,p)
SYMMETRY                  False
THRESH                    12
SCF_CONVERGENCE           8
MAX_SUB_FILE_NUM          128
MEM_STATIC                400
MEM_TOTAL                 4000
$end
--------------------------------------------------------------
 Adding empirical dispersion correction 
 ----------------------------------------------------------------
 Doing -D3(op) with
 s6 =   1.00000
 s8 =   0.78311
 a1 =   0.30000
 a2 =   4.25000
 n  =  10.00000
 -D3 energy without 3body term =     -0.0215647334 hartrees
 ----------------------------------------------------------------
             Standard Nuclear Orientation (Angstroms)
    I     Atom           X                Y                Z
 ----------------------------------------------------------------
    1      C       0.2129900000     1.8948600000     3.4436800000
    2      C       0.6657100000     0.4732700000     3.8765700000
    3      C       1.3216000000     2.2849900000     2.4315800000
    4      C       2.6214900000     2.5968900000     3.2168400000
    5      C       3.0753300000     1.1768300000     3.6530700000
    6      C       1.9607300000     0.2877200000     3.0441200000
    7      O       1.6373300000     1.0076000000     1.8320600000
    8      H       3.3563100000     3.0623800000     2.5562700000
    9      H       2.4449900000     3.2762500000     4.0538300000
   10      H       4.0409600000     0.9171700000     3.2143600000
   11      H       3.1536600000     1.0569400000     4.7361000000
   12      C       0.9293200000     3.2910300000     1.3741200000
   13      C       2.3498000000    -1.1386800000     2.7304600000
   14      H       3.2244500000    -1.1639400000     2.0757700000
   15      H       2.5935200000    -1.6757600000     3.6515700000
   16      H       1.5291900000    -1.6616500000     2.2333300000
   17      H       1.7461300000     3.4397500000     0.6638000000
   18      H       0.6945400000     4.2544500000     1.8358400000
   19      H       0.0486600000     2.9486700000     0.8254500000
   20      H       0.8475600000     0.3817500000     4.9498200000
   21      H      -0.0710700000    -0.2823000000     3.5946400000
   22      H      -0.7568800000     1.8665000000     2.9422500000
   23      H       0.1440100000     2.6025600000     4.2725900000
   24      GH      0.2018600000     1.0141900000     0.5758800000
   25      GH      0.6545800000    -0.4074000000     1.0087700000
   26      GH      1.3104700000     1.4043200000    -0.4362200000
   27      GH      2.6103600000     1.7162200000     0.3490400000
   28      GH      3.0642000000     0.2961600000     0.7852700000
   29      GH      1.9496000000    -0.5929500000     0.1763200000
   30      GH      1.6262000000     0.1269300000    -1.0357400000
   31      GH      3.3451800000     2.1817100000    -0.3115300000
   32      GH      2.4338600000     2.3955800000     1.1860300000
   33      GH      4.0298300000     0.0365000000     0.3465600000
   34      GH      3.1425300000     0.1762700000     1.8683000000
   35      GH      0.9181900000     2.4103600000    -1.4936800000
   36      GH      2.3386700000    -2.0193500000    -0.1373400000
   37      GH      3.2133200000    -2.0446100000    -0.7920300000
   38      GH      2.5823900000    -2.5564300000     0.7837700000
   39      GH      1.5180600000    -2.5423200000    -0.6344700000
   40      GH      1.7350000000     2.5590800000    -2.2040000000
   41      GH      0.6834100000     3.3737800000    -1.0319600000
   42      GH      0.0375300000     2.0680000000    -2.0423500000
   43      GH      0.8364300000    -0.4989200000     2.0820200000
   44      GH     -0.0822000000    -1.1629700000     0.7268400000
   45      GH     -0.7680100000     0.9858300000     0.0744500000
   46      GH      0.1328800000     1.7218900000     1.4047900000
 ----------------------------------------------------------------
 Nuclear Repulsion Energy =   505.5140981702 hartrees
 There are       35 alpha and       35 beta electrons
 Requested basis set is 6-311++G(d,p)
 There are 248 shells and 592 basis functions

 Total QAlloc Memory Limit   4000 MB
 Mega-Array Size       392 MB
 MEM_STATIC part       400 MB
 A cutoff of  1.0D-12 yielded  27449 shell pairs
 There are    158652 function pairs (    168492 Cartesian)
 
 -------------------------------------------------------
 OpenMP Integral Computing Module                       
 Release: version 1.0, May 2013, Q-Chem Inc. Pittsburgh 
 -------------------------------------------------------
 Integral Job Info:
 Integral job number is                      11
 Integral operator is                         1
 short-range coefficients                     0
 long-range coefficients              100000000
 Omega coefficients                           0
 if combine SR and LR in K                    0
 Integral screening is                        0
 Integral computing path is                   2
 max size of driver memory is            800000
 size of driver memory is                593474
 size of scratch memory is              2361544
 max col of scratch BK array               1296
 max len of scratch array in speh3          155
 max len of scratch index in speh4           18
 max int batch size is                      520
 min int batch size is                       52
 fixed nKL is                                52
 max L of basis functions is                  2
 order of int derivative is                   0
 number of shells is                        248
 number of basis is                         610
 number of cartesian basis is               610
 number of contracted shell pairs         27449
 number of primitive shell pairs          58017
 maxK2 (contraction) of shell pair           36
 max number of K2 of shell pair               1
 max number of CS2 of shell pair           4778
 max number of PS2 of shell pair           8592
 mem total for path MDJ                  221010
 -------------------------------------------------------
 Smallest overlap matrix eigenvalue = 1.27E-07
 Linear dependence detected in AO basis
 Number of orthogonalized atomic orbitals = 588
 Maximum deviation from orthogonality = 3.258E-10

 Scale SEOQF with 1.000000e-01/1.000000e-01/1.000000e-01

 Standard Electronic Orientation quadrupole field applied
 Nucleus-field energy     =    -0.0000000388 hartrees
 Guess from superposition of atomic densities
 Warning:  Energy on first SCF cycle will be non-variational

 Q-Chem warning in module /opt/software/qchem/qchem-5.0.1/libgen/Atomic_PolEc.C, line 58:

 No atomic polarizability available.


 Q-Chem warning in module /opt/software/qchem/qchem-5.0.1/libgen/Atomic_PolEc.C, line 73:

 No atomic polarizability available.


 Q-Chem warning in module /opt/software/qchem/qchem-5.0.1/libgen/Atomic_PolEc.C, line 58:

 No atomic polarizability available.


 Q-Chem warning in module /opt/software/qchem/qchem-5.0.1/libgen/Atomic_PolEc.C, line 73:

 No atomic polarizability available.


 Q-Chem warning in module /opt/software/qchem/qchem-5.0.1/libgen/Atomic_PolEc.C, line 58:

 No atomic polarizability available.


 Q-Chem warning in module /opt/software/qchem/qchem-5.0.1/libgen/Atomic_PolEc.C, line 73:

 No atomic polarizability available.


 Q-Chem warning in module /opt/software/qchem/qchem-5.0.1/libgen/Atomic_PolEc.C, line 58:

 No atomic polarizability available.


 Q-Chem warning in module /opt/software/qchem/qchem-5.0.1/libgen/Atomic_PolEc.C, line 73:

 No atomic polarizability available.


 Q-Chem warning in module /opt/software/qchem/qchem-5.0.1/libgen/Atomic_PolEc.C, line 58:

 No atomic polarizability available.


 Q-Chem warning in module /opt/software/qchem/qchem-5.0.1/libgen/Atomic_PolEc.C, line 73:

 No atomic polarizability available.


 Q-Chem warning in module /opt/software/qchem/qchem-5.0.1/libgen/Atomic_PolEc.C, line 58:

 No atomic polarizability available.


 Q-Chem warning in module /opt/software/qchem/qchem-5.0.1/libgen/Atomic_PolEc.C, line 73:

 No atomic polarizability available.


 Q-Chem warning in module /opt/software/qchem/qchem-5.0.1/libgen/Atomic_PolEc.C, line 58:

 No atomic polarizability available.


 Q-Chem warning in module /opt/software/qchem/qchem-5.0.1/libgen/Atomic_PolEc.C, line 73:

 No atomic polarizability available.


 Q-Chem warning in module /opt/software/qchem/qchem-5.0.1/libgen/Atomic_PolEc.C, line 58:

 No atomic polarizability available.


 Q-Chem warning in module /opt/software/qchem/qchem-5.0.1/libgen/Atomic_PolEc.C, line 73:

 No atomic polarizability available.


 Q-Chem warning in module /opt/software/qchem/qchem-5.0.1/libgen/Atomic_PolEc.C, line 58:

 No atomic polarizability available.


 Q-Chem warning in module /opt/software/qchem/qchem-5.0.1/libgen/Atomic_PolEc.C, line 73:

 No atomic polarizability available.


 Q-Chem warning in module /opt/software/qchem/qchem-5.0.1/libgen/Atomic_PolEc.C, line 58:

 No atomic polarizability available.


 Q-Chem warning in module /opt/software/qchem/qchem-5.0.1/libgen/Atomic_PolEc.C, line 73:

 No atomic polarizability available.


 Q-Chem warning in module /opt/software/qchem/qchem-5.0.1/libgen/Atomic_PolEc.C, line 58:

 No atomic polarizability available.


 Q-Chem warning in module /opt/software/qchem/qchem-5.0.1/libgen/Atomic_PolEc.C, line 73:

 No atomic polarizability available.


 Q-Chem warning in module /opt/software/qchem/qchem-5.0.1/libgen/Atomic_PolEc.C, line 58:

 No atomic polarizability available.


 Q-Chem warning in module /opt/software/qchem/qchem-5.0.1/libgen/Atomic_PolEc.C, line 73:

 No atomic polarizability available.


 Q-Chem warning in module /opt/software/qchem/qchem-5.0.1/libgen/Atomic_PolEc.C, line 58:

 No atomic polarizability available.


 Q-Chem warning in module /opt/software/qchem/qchem-5.0.1/libgen/Atomic_PolEc.C, line 73:

 No atomic polarizability available.


 Q-Chem warning in module /opt/software/qchem/qchem-5.0.1/libgen/Atomic_PolEc.C, line 58:

 No atomic polarizability available.


 Q-Chem warning in module /opt/software/qchem/qchem-5.0.1/libgen/Atomic_PolEc.C, line 73:

 No atomic polarizability available.


 Q-Chem warning in module /opt/software/qchem/qchem-5.0.1/libgen/Atomic_PolEc.C, line 58:

 No atomic polarizability available.


 Q-Chem warning in module /opt/software/qchem/qchem-5.0.1/libgen/Atomic_PolEc.C, line 73:

 No atomic polarizability available.


 Q-Chem warning in module /opt/software/qchem/qchem-5.0.1/libgen/Atomic_PolEc.C, line 58:

 No atomic polarizability available.


 Q-Chem warning in module /opt/software/qchem/qchem-5.0.1/libgen/Atomic_PolEc.C, line 73:

 No atomic polarizability available.


 Q-Chem warning in module /opt/software/qchem/qchem-5.0.1/libgen/Atomic_PolEc.C, line 58:

 No atomic polarizability available.


 Q-Chem warning in module /opt/software/qchem/qchem-5.0.1/libgen/Atomic_PolEc.C, line 73:

 No atomic polarizability available.


 Q-Chem warning in module /opt/software/qchem/qchem-5.0.1/libgen/Atomic_PolEc.C, line 58:

 No atomic polarizability available.


 Q-Chem warning in module /opt/software/qchem/qchem-5.0.1/libgen/Atomic_PolEc.C, line 73:

 No atomic polarizability available.


 Q-Chem warning in module /opt/software/qchem/qchem-5.0.1/libgen/Atomic_PolEc.C, line 58:

 No atomic polarizability available.


 Q-Chem warning in module /opt/software/qchem/qchem-5.0.1/libgen/Atomic_PolEc.C, line 73:

 No atomic polarizability available.


 Q-Chem warning in module /opt/software/qchem/qchem-5.0.1/libgen/Atomic_PolEc.C, line 58:

 No atomic polarizability available.


 Q-Chem warning in module /opt/software/qchem/qchem-5.0.1/libgen/Atomic_PolEc.C, line 73:

 No atomic polarizability available.


 Q-Chem warning in module /opt/software/qchem/qchem-5.0.1/libgen/Atomic_PolEc.C, line 58:

 No atomic polarizability available.


 Q-Chem warning in module /opt/software/qchem/qchem-5.0.1/libgen/Atomic_PolEc.C, line 73:

 No atomic polarizability available.


 Q-Chem warning in module /opt/software/qchem/qchem-5.0.1/libgen/Atomic_PolEc.C, line 58:

 No atomic polarizability available.


 Q-Chem warning in module /opt/software/qchem/qchem-5.0.1/libgen/Atomic_PolEc.C, line 73:

 No atomic polarizability available.


 Q-Chem warning in module /opt/software/qchem/qchem-5.0.1/libgen/Atomic_PolEc.C, line 58:

 No atomic polarizability available.


 Q-Chem warning in module /opt/software/qchem/qchem-5.0.1/libgen/Atomic_PolEc.C, line 73:

 No atomic polarizability available.

 A restricted hybrid HF-DFT SCF calculation will be
 performed using Pulay DIIS extrapolation
 Exchange:     0.2000 Hartree-Fock + 0.0800 Slater + 0.7200 B88
 Correlation:  0.1900 VWN1RPA + 0.8100 LYP
 Using SG-1 standard quadrature grid
 Dispersion:   Grimme D3
 SCF converges when DIIS error is below 1.0E-08
 using 4 threads for integral computing
 -------------------------------------------------------
 OpenMP Integral computing Module                
 Release: version 1.0, May 2013, Q-Chem Inc. Pittsburgh 
 -------------------------------------------------------
 -------------------------------------------------------
 OpenMP BLAS3 based DFT computing Module                
 Release: version 1.0, May 2013, Q-Chem Inc. Pittsburgh 
 -------------------------------------------------------
 ---------------------------------------
  Cycle       Energy         DIIS Error
 ---------------------------------------
    1    -390.4181035381      1.78E-02
    2    -388.4218873230      2.23E-03
    3    -388.3282906832      2.69E-03
    4    -388.6344731396      4.35E-04
    5    -388.6401827413      1.47E-04
    6    -388.6408247340      4.38E-05
    7    -388.6408813170      1.47E-05
    8    -388.6408892916      1.27E-06
    9    -388.6408893564      4.81E-07
   10    -388.6408893650      1.62E-07
   11    -388.6408893660      1.49E-08
   12    -388.6408893660      3.18E-09 Convergence criterion met
 ---------------------------------------
 SCF time:  CPU 1737.63 s  wall 437.57 s
 SCF   energy in the final basis set = -388.64088937
 Total energy in the final basis set = -388.64088937
 
 --------------------------------------------------------------
 
                    Orbital Energies (a.u.)
 --------------------------------------------------------------
 
 Alpha MOs
 -- Occupied --
-19.113 -10.223 -10.223 -10.166 -10.166 -10.166 -10.166 -10.160
-10.160  -1.042  -0.799  -0.788  -0.749  -0.716  -0.650  -0.613
 -0.557  -0.553  -0.484  -0.475  -0.466  -0.440  -0.417  -0.408
 -0.404  -0.402  -0.382  -0.359  -0.344  -0.343  -0.341  -0.335
 -0.317  -0.297  -0.260
 -- Virtual --
 -0.011   0.000   0.008   0.010   0.022   0.027   0.030   0.031
  0.031   0.048   0.052   0.055   0.056   0.059   0.062   0.066
  0.075   0.076   0.080   0.084   0.084   0.091   0.097   0.097
  0.099   0.102   0.102   0.105   0.108   0.112   0.112   0.121
  0.122   0.127   0.127   0.129   0.129   0.132   0.133   0.144
  0.145   0.145   0.153   0.157   0.161   0.163   0.165   0.166
  0.166   0.168   0.169   0.173   0.176   0.183   0.183   0.184
  0.184   0.189   0.195   0.196   0.202   0.203   0.209   0.209
  0.209   0.210   0.216   0.216   0.220   0.225   0.231   0.234
  0.237   0.241   0.241   0.242   0.243   0.245   0.251   0.256
  0.263   0.266   0.266   0.267   0.269   0.278   0.281   0.284
  0.293   0.293   0.294   0.300   0.307   0.312   0.315   0.320
  0.321   0.331   0.335   0.338   0.344   0.351   0.356   0.361
  0.365   0.370   0.372   0.377   0.377   0.380   0.381   0.386
  0.392   0.395   0.396   0.400   0.401   0.408   0.415   0.415
  0.424   0.428   0.437   0.442   0.447   0.451   0.457   0.469
  0.479   0.486   0.489   0.492   0.499   0.501   0.503   0.526
  0.531   0.541   0.559   0.560   0.562   0.568   0.575   0.576
  0.583   0.591   0.605   0.616   0.619   0.633   0.635   0.641
  0.645   0.652   0.656   0.665   0.676   0.681   0.683   0.689
  0.700   0.704   0.712   0.713   0.716   0.716   0.728   0.736
  0.738   0.742   0.743   0.744   0.749   0.755   0.758   0.768
  0.777   0.779   0.783   0.785   0.795   0.796   0.797   0.803
  0.813   0.821   0.832   0.843   0.846   0.850   0.862   0.868
  0.893   0.905   0.909   0.912   0.912   0.934   0.940   0.971
  0.979   0.993   0.994   0.999   1.014   1.017   1.033   1.053
  1.065   1.077   1.080   1.082   1.112   1.128   1.143   1.149
  1.167   1.176   1.188   1.189   1.196   1.222   1.243   1.261
  1.269   1.298   1.306   1.306   1.326   1.342   1.351   1.358
  1.374   1.413   1.433   1.434   1.452   1.454   1.463   1.471
  1.476   1.479   1.506   1.508   1.513   1.525   1.550   1.561
  1.577   1.578   1.578   1.579   1.592   1.593   1.626   1.627
  1.656   1.658   1.660   1.667   1.678   1.679   1.688   1.697
  1.717   1.726   1.731   1.735   1.736   1.746   1.757   1.760
  1.763   1.764   1.779   1.780   1.781   1.809   1.818   1.831
  1.838   1.846   1.847   1.870   1.875   1.882   1.887   1.889
  1.903   1.915   1.921   1.923   1.929   1.930   1.958   1.959
  1.970   1.973   1.974   1.989   2.000   2.009   2.011   2.020
  2.031   2.035   2.046   2.058   2.058   2.088   2.103   2.107
  2.109   2.127   2.133   2.147   2.153   2.155   2.162   2.169
  2.171   2.181   2.201   2.205   2.219   2.233   2.248   2.249
  2.250   2.271   2.272   2.284   2.306   2.312   2.318   2.333
  2.341   2.352   2.359   2.364   2.369   2.395   2.396   2.417
  2.420   2.445   2.449   2.451   2.453   2.460   2.487   2.493
  2.503   2.509   2.515   2.527   2.546   2.566   2.568   2.573
  2.594   2.602   2.610   2.615   2.615   2.633   2.636   2.657
  2.658   2.659   2.663   2.677   2.685   2.710   2.732   2.739
  2.748   2.761   2.762   2.782   2.805   2.808   2.826   2.829
  2.843   2.863   2.869   2.873   2.877   2.882   2.899   2.905
  2.928   2.929   2.948   2.961   2.961   2.964   2.968   3.009
  3.010   3.013   3.041   3.044   3.051   3.060   3.063   3.090
  3.098   3.112   3.153   3.160   3.166   3.174   3.177   3.198
  3.222   3.251   3.253   3.259   3.280   3.293   3.306   3.318
  3.327   3.341   3.354   3.365   3.417   3.428   3.437   3.454
  3.494   3.500   3.501   3.531   3.548   3.551   3.560   3.597
  3.599   3.612   3.631   3.641   3.666   3.669   3.685   3.685
  3.717   3.735   3.764   3.823   3.846   3.874   3.884   3.932
  3.942   3.943   3.975   3.977   3.987   4.003   4.009   4.022
  4.055   4.090   4.134   4.136   4.170   4.202   4.218   4.287
  4.288   4.394   4.466   4.483   4.652   4.679   4.750   4.820
  4.833   4.851   4.879   4.913   4.916   4.922   4.959   4.990
  5.039   5.088   5.140   5.189   5.254   5.347   5.376   5.664
  5.758   5.984   6.063   7.404   7.573   7.579   7.618   7.702
  7.746   7.786   7.797   7.802   7.831   7.858   7.916   7.942
  7.990   8.037   8.129   8.205   8.256   8.368   8.430   8.494
  8.497   8.738   8.923   9.970  10.008  10.016  10.068  10.079
 10.149  10.244  10.342  13.662  13.987  14.143  18.680  23.902
 23.919  24.014  24.042  24.078  24.106  24.172  24.409  50.229
 69.859  69.926  69.946  69.963  69.976  70.050  70.134  70.189
139.884
 --------------------------------------------------------------
 
          Ground-State Mulliken Net Atomic Charges

     Atom                 Charge (a.u.)
  ----------------------------------------
      1 C                    -0.360020
      2 C                    -0.362989
      3 C                     0.611492
      4 C                    -0.362967
      5 C                    -0.359346
      6 C                     0.614881
      7 O                    -0.086400
      8 H                     0.169528
      9 H                     0.155292
     10 H                     0.169768
     11 H                     0.155032
     12 C                    -0.846069
     13 C                    -0.849943
     14 H                     0.213357
     15 H                     0.190145
     16 H                     0.212300
     17 H                     0.213036
     18 H                     0.190155
     19 H                     0.212997
     20 H                     0.155200
     21 H                     0.170057
     22 H                     0.169435
     23 H                     0.155043
     24 GH                   -0.056918
     25 GH                   -0.056253
     26 GH                    0.082785
     27 GH                   -0.061914
     28 GH                   -0.052628
     29 GH                    0.087743
     30 GH                   -0.058447
     31 GH                    0.009275
     32 GH                   -0.138743
     33 GH                    0.010224
     34 GH                   -0.143154
     35 GH                    0.058285
     36 GH                    0.059268
     37 GH                    0.000534
     38 GH                   -0.005209
     39 GH                    0.000557
     40 GH                    0.000551
     41 GH                   -0.005108
     42 GH                    0.000562
     43 GH                   -0.138283
     44 GH                    0.009713
     45 GH                    0.009852
     46 GH                   -0.142674
  ----------------------------------------
  Sum of atomic charges =     0.000000

 -----------------------------------------------------------------
                    Cartesian Multipole Moments
 -----------------------------------------------------------------
    Charge (ESU x 10^10)
                 0.0000
    Dipole Moment (Debye)
         X       0.0072      Y       0.4414      Z       1.4332
       Tot       1.4996
    Quadrupole Moments (Debye-Ang)
        XX     -56.6315     XY       0.1886     YY     -54.1795
        XZ       2.5299     YZ       1.9269     ZZ     -50.8054
    Octopole Moments (Debye-Ang^2)
       XXX    -279.0119    XXY     -76.6887    XYY     -90.8211
       YYY    -218.5090    XXZ    -161.1528    XYZ       1.2063
       YYZ    -156.2413    XZZ     -81.9738    YZZ     -68.5701
       ZZZ    -466.7270
    Hexadecapole Moments (Debye-Ang^3)
      XXXX   -1342.8926   XXXY    -314.4241   XXYY    -454.2619
      XYYY    -301.4270   YYYY   -1351.5758   XXXZ    -826.9635
      XXYZ    -200.5846   XYYZ    -270.6097   YYYZ    -556.2367
      XXZZ    -747.5245   XYZZ     -99.4512   YYZZ    -733.1512
      XZZZ    -775.3147   YZZZ    -552.6834   ZZZZ   -3063.9280
 -----------------------------------------------------------------
Archival summary:
1\1\vega02.cac.cornell.edu\SP\ProcedureUnspecified\BasisUnspecified\1814h23\jj585\TueApr1723:38:292018TueApr1723:38:292018\0\\#,ProcedureUnspecified,BasisUnspecified,\\0,1\O\C,1,1.44597\C,1,1.44634,2,98.1095\C,2,1.51136,1,110.77,3,-179.998,0\H,4,1.09262,2,110.608,1,60.2832,0\H,4,1.09263,2,110.575,1,-60.0402,0\H,4,1.09384,2,110.283,1,-179.869,0\Gh,6,1.35499,4,91.3742,2,9.61893,0\Gh,8,1.09235,6,105.424,4,123.214,0\Gh,9,1.09224,8,107.882,6,70.7999,0\Gh,5,1.35931,4,91.0789,2,-9.98681,0\Gh,11,1.0921,5,105.382,4,-123.231,0\Gh,12,1.09219,11,108.011,5,-70.2879,0\C,3,1.51141,1,110.694,2,-179.879,0\H,14,1.09272,3,110.657,1,-60.1545,0\H,14,1.09283,3,110.62,1,60.1323,0\H,14,1.09375,3,110.244,1,179.953,0\Gh,16,1.35865,14,91.1702,3,-9.84235,0\Gh,18,1.09246,16,105.305,14,-123.24,0\Gh,19,1.09194,18,107.987,16,-70.3794,0\Gh,15,1.36189,14,91.3721,3,9.69887,0\Gh,21,1.09239,15,105.389,14,123.041,0\Gh,22,1.09234,21,107.933,15,70.879,0\Gh,9,1.55036,8,112.194,6,-50.6282,0\Gh,24,1.44597,9,101.809,8,-155.556,0\Gh,25,1.44634,24,98.1095,9,56.0867,0\Gh,24,1.51136,9,115.982,8,84.118,0\Gh,27,1.09262,24,110.608,9,175.644,0\Gh,27,1.09263,24,110.575,9,55.3209,0\Gh,27,1.09384,24,110.283,9,-64.5081,0\Gh,26,1.51141,25,110.694,24,-179.879,0\Gh,31,1.09272,26,110.657,25,-60.1545,0\Gh,31,1.09283,26,110.62,25,60.1323,0\Gh,31,1.09375,26,110.244,25,179.953,0\C,2,1.55036,1,101.809,3,56.0867,0\H,35,1.09224,2,110.089,1,84.2905,0\H,35,1.09235,2,112.194,1,-155.556,0\C,3,1.55038,1,101.798,2,-56.0407,0\H,38,1.09194,3,109.973,1,-84.3583,0\H,38,1.09246,3,112.21,1,155.424,0\C,3,1.55064,1,101.747,2,56.1879,0\H,41,1.09234,3,109.998,1,84.2326,0\H,41,1.09239,3,112.234,1,-155.586,0\C,2,1.55099,1,101.795,3,-56.0607,0\H,44,1.0921,2,112.175,1,155.338,0\H,44,1.09219,2,109.978,1,-84.4337,0\\\@

 Total job time:  438.76s(wall), 1740.62s(cpu) 
 Tue Apr 17 23:38:29 2018

        *************************************************************
        *                                                           *
        *  Thank you very much for using Q-Chem.  Have a nice day.  *
        *                                                           *
        *************************************************************


0 sent ACK to 0 
now end server 0 ... 
