mFile = /opt/software/qchem/qchem-5.0.1//bin/mpi/machines
Process 0 of 1 is on vega02.cac.cornell.edu - thread support 0
initial socket setup ...start
initial socket setup ...done 
now start server 0 ... 
vega02.cac.cornell.edu 10.84.3
Q-Chem Developer Version! Running on 10.84.3.*
                  Welcome to Q-Chem
     A Quantum Leap Into The Future Of Chemistry


 Q-Chem 5.0, Q-Chem, Inc., Pleasanton, CA (2017)

 Yihan Shao,  Zhengting Gan,  E. Epifanovsky,  A. T. B. Gilbert,  M. Wormit,  
 J. Kussmann,  A. W. Lange,  A. Behn,  Jia Deng,  Xintian Feng,  D. Ghosh,  
 M. Goldey,  P. R. Horn,  L. D. Jacobson,  I. Kaliman,  T. Kus,  A. Landau,  
 Jie Liu,  E. I. Proynov,  R. M. Richard,  R. P. Steele,  E. J. Sundstrom,  
 H. L. Woodcock III,  P. M. Zimmerman,  D. Zuev,  B. Albrecht,  E. Alguire,  
 S. A. Baeppler,  Z. Benda,  Y. A. Bernard,  E. J. Berquist,  K. B. Bravaya,  
 D. Casanova,  Chun-Min Chang,  Yunqing Chen,  A. Chien,  K. D. Closser,  
 M. P. Coons,  S. Dasgupta,  M. Diedenhofen,  Hainam Do,  R. G. Edgar,  
 Po-Tung Fang,  S. Fatehi,  Qingguo Feng,  Qinghui Ge,  A. Ghysels,  
 J. Gomes,  J. Gonthier,  A. Gunina,  M. W. D. Hanson-Heine,  
 P. H. P. Harbach,  A. W. Hauser,  J. E. Herr,  E. G. Hohenstein,  
 Z. C. Holden,  Kerwin Hui,  T.-C. Jagau,  Hyunjun Ji,  B. Kaduk,  
 K. Khistyaev,  Jaehoon Kim,  P. Klunzinger,  K. Koh,  D. Kosenkov,  
 T. Kowalczyk,  C. M. Krauter,  A. Kunitsa,  Ka Un Lao,  A. Laurent,  
 K. V. Lawler,  Joonho Lee,  D. Lefrancois,  S. Lehtola,  D. S. Levine,  
 Yi-Pei Li,  You-Sheng Lin,  Fenglai Liu,  E. Livshits,  A. Luenser,  
 P. Manohar,  E. Mansoor,  S. F. Manzer,  Shan-Ping Mao,  Yuezhi Mao,  
 N. Mardirossian,  A. V. Marenich,  L. A. Martinez-Martinez,  S. A. Maurer,  
 N. J. Mayhall,  S. C. McKenzie,  J.-M. Mewes,  A. F. Morrison,  K. Nanda,  
 T. S. Nguyen-Beck,  R. Olivares-Amaya,  J. A. Parkhill,  T. M. Perrine,  
 F. Plasser,  S. Prager,  A. Prociuk,  D. R. Rehn,  F. Rob,  M. Schneider,  
 N. Sergueev,  S. M. Sharada,  S. Sharma,  D. W. Small,  T. Stauch,  
 T. Stein,  Yu-Chuan Su,  A. J. W. Thom,  T. Tsuchimochi,  L. Vogt,  
 O. Vydrov,  M. A. Watson,  J. Wenzel,  M. de Wergifosse,  T. A. Wesolowski,  
 A. White,  J. Witte,  A. Yamada,  Jun Yang,  K. Yao,  S. Yeganeh,  
 S. R. Yost,  Zhi-Qiang You,  A. Zech,  Igor Ying Zhang,  Xing Zhang,  
 Yan Zhao,  Ying Zhu,  B. R. Brooks,  G. K. L. Chan,  C. J. Cramer,  
 M. S. Gordon,  W. J. Hehre,  A. Klamt,  M. W. Schmidt,  C. D. Sherrill,  
 D. G. Truhlar,  A. Aspuru-Guzik,  R. Baer,  A. T. Bell,  N. A. Besley,  
 Jeng-Da Chai,  A. Dreuw,  B. D. Dunietz,  T. R. Furlani,  Chao-Ping Hsu,  
 Yousung Jung,  Jing Kong,  D. S. Lambrecht,  WanZhen Liang,  C. Ochsenfeld,  
 V. A. Rassolov,  L. V. Slipchenko,  J. E. Subotnik,  T. Van Voorhis,  
 J. M. Herbert,  A. I. Krylov,  P. M. W. Gill,  M. Head-Gordon

 Contributors to earlier versions of Q-Chem not listed above: 
 R. D. Adamson,  B. Austin,  J. Baker,  G. J. O. Beran,  K. Brandhorst,  
 S. T. Brown,  E. F. C. Byrd,  A. K. Chakraborty,  C.-L. Cheng,  
 Siu Hung Chien,  D. M. Chipman,  D. L. Crittenden,  H. Dachsel,  
 R. A. DiStasio Jr.,  R. J. Doerksen,  A. D. Dutoi,  L. Fusti-Molnar,  
 W. A. Goddard III,  A. Golubeva-Zadorozhnaya,  S. R. Gwaltney,  G. Hawkins,  
 A. Heyden,  S. Hirata,  G. Kedziora,  F. J. Keil,  C. Kelley,  Jihan Kim,  
 R. A. King,  R. Z. Khaliullin,  P. P. Korambath,  W. Kurlancheek,  
 A. M. Lee,  M. S. Lee,  S. V. Levchenko,  Ching Yeh Lin,  D. Liotard,  
 R. C. Lochan,  I. Lotan,  P. E. Maslen,  N. Nair,  D. P. O'Neill,  
 D. Neuhauser,  E. Neuscamman,  C. M. Oana,  R. Olson,  B. Peters,  
 R. Peverati,  P. A. Pieniazek,  Y. M. Rhee,  J. Ritchie,  M. A. Rohrdanz,  
 E. Rosta,  N. J. Russ,  H. F. Schaefer III,  N. E. Schultz,  N. Shenvi,  
 A. C. Simmonett,  A. Sodt,  D. Stuck,  K. S. Thanthiriwatte,  V. Vanovschi,  
 Tao Wang,  A. Warshel,  C. F. Williams,  Q. Wu,  X. Xu,  W. Zhang

 Please cite Q-Chem as follows:
 Y. Shao et al., Mol. Phys. 113, 184-215 (2015)
 DOI: 10.1080/00268976.2014.952696

 Q-Chem 5.0.1 for Intel X86 EM64T Linux

 Parts of Q-Chem use Armadillo 5.200.1 (Boston Tea Smuggler).
 http://arma.sourceforge.net/

 Q-Chem begins on Tue Apr 17 22:55:29 2018  

Host: vega02.cac.cornell.edu
0

     Scratch files written to /scratch/jj585/vdw/0100_distance_4.100_11.save//
 Parallel job on  1  processors

Checking the input file for inconsistencies... 	...done.

--------------------------------------------------------------
User input:
--------------------------------------------------------------
$molecule
0  1
--
0  1
C        +0.20553000        +1.04146000        +0.58269000
C        +0.65000000        -0.38925000        +1.00740000
C        +1.32948000        +1.41743000        -0.40725000
C        +2.62919000        +1.72756000        +0.36622000
C        +3.06783000        +0.29650000        +0.79479000
C        +1.94651000        -0.57906000        +0.17708000
O        +1.63056000        +0.15702000        -1.03120000
H        +3.36767000        +2.18673000        -0.29348000
H        +2.46319000        +2.40269000        +1.20873000
H        +4.03298000        +0.02999000        +0.35944000
H        +3.13919000        +0.17160000        +1.87760000
H        +1.05575000        +2.14422000        -1.17046000
C        +2.32428000        -2.00466000        -0.15206000
H        +3.19961000        -2.02906000        -0.80581000
H        +1.50021000        -2.51513000        -0.65630000
H        +2.56254000        -2.55434000        +0.76296000
H        -0.76025000        +1.02051000        +0.07473000
H        +0.13481000        +1.74083000        +1.41846000
H        +0.82947000        -0.48542000        +2.08050000
H        -0.09122000        -1.13848000        +0.72072000
--
0  1
C        +0.22049000        +2.21720000        +4.51046000
C        +0.66496000        +0.78649000        +4.93517000
C        +1.34444000        +2.59317000        +3.52052000
C        +2.64415000        +2.90330000        +4.29399000
C        +3.08279000        +1.47224000        +4.72256000
C        +1.96147000        +0.59668000        +4.10485000
O        +1.64552000        +1.33276000        +2.89657000
H        +3.38263000        +3.36247000        +3.63429000
H        +2.47815000        +3.57843000        +5.13650000
H        +4.04794000        +1.20573000        +4.28721000
H        +3.15415000        +1.34734000        +5.80537000
H        +1.07071000        +3.31996000        +2.75731000
C        +2.33924000        -0.82892000        +3.77571000
H        +3.21457000        -0.85332000        +3.12196000
H        +1.51517000        -1.33939000        +3.27147000
H        +2.57750000        -1.37860000        +4.69073000
H        -0.74529000        +2.19625000        +4.00250000
H        +0.14977000        +2.91657000        +5.34623000
H        +0.84443000        +0.69032000        +6.00827000
H        -0.07626000        +0.03726000        +4.64849000
$end

$rem
JOBTYPE                   SP
METHOD                    B3LYP
DFT_D                     d3_op
BASIS                     6-311++G(d,p)
SYMMETRY                  False
THRESH                    12
SCF_CONVERGENCE           8
MAX_SUB_FILE_NUM          128
MEM_STATIC                400
MEM_TOTAL                 4000
$end
--------------------------------------------------------------
 Adding empirical dispersion correction 
 ----------------------------------------------------------------
 Doing -D3(op) with
 s6 =   1.00000
 s8 =   0.78311
 a1 =   0.30000
 a2 =   4.25000
 n  =  10.00000
 -D3 energy without 3body term =     -0.0499319347 hartrees
 ----------------------------------------------------------------
             Standard Nuclear Orientation (Angstroms)
    I     Atom           X                Y                Z
 ----------------------------------------------------------------
    1      C       1.3105122416     1.2536966668    -1.2627803080
    2      C       1.4678884995    -0.2955276491    -1.2628204991
    3      C       2.1132505813     1.6313440802     0.0011784873
    4      C       1.3125624034     1.2514529510     1.2654030376
    5      C       1.4663517141    -0.2978443871     1.2593512347
    6      C       2.3404972877    -0.5265467807    -0.0012415748
    7      O       3.1737250387     0.6597540864    -0.0005379261
    8      H       1.7685771610     1.6907813612     2.1544671400
    9      H       0.2738094863     1.5860731048     1.2184845249
   10      H       1.9939531751    -0.6479454301     2.1488104429
   11      H       0.5127219318    -0.8273801325     1.2014557400
   12      H       2.5389703441     2.6335434077     0.0018944528
   13      C       3.1922283975    -1.7747174622     0.0004134029
   14      H       3.8284964609    -1.8045487055     0.8883661492
   15      H       3.8310471081    -1.8065616996    -0.8854904084
   16      H       2.5582857700    -2.6659491374     0.0010270524
   17      H       1.7646482493     1.6968400274    -2.1507992948
   18      H       0.2712315562     1.5851583610    -1.2112050179
   19      H       0.5151070465    -0.8268026033    -1.2084496827
   20      H       1.9973814409    -0.6423848085    -2.1529134378
   21      C      -2.7689644291     0.8440192168    -1.2627276285
   22      C      -2.6115881712    -0.7052050991    -1.2627678196
   23      C      -1.9662260894     1.2216666302     0.0012311668
   24      C      -2.7669142672     0.8417755010     1.2654557172
   25      C      -2.6131249565    -0.7075218371     1.2594039142
   26      C      -1.7389793829    -0.9362242307    -0.0011888953
   27      O      -0.9057516320     0.2500766364    -0.0004852466
   28      H      -2.3108995096     1.2811039112     2.1545198195
   29      H      -3.8056671843     1.1763956548     1.2185372044
   30      H      -2.0855234955    -1.0576228801     2.1488631224
   31      H      -3.5667547388    -1.2370575825     1.2015084195
   32      H      -1.5405063265     2.2238659577     0.0019471323
   33      C      -0.8872482732    -2.1843949122     0.0004660824
   34      H      -0.2509802097    -2.2142261556     0.8884188287
   35      H      -0.2484295626    -2.2162391496    -0.8854377289
   36      H      -1.5211909007    -3.0756265874     0.0010797319
   37      H      -2.3148284214     1.2871625774    -2.1507466153
   38      H      -3.8082451144     1.1754809110    -1.2111523384
   39      H      -3.5643696242    -1.2364800533    -1.2083970032
   40      H      -2.0820952297    -1.0520622586    -2.1528607583
 ----------------------------------------------------------------
 Molecular Point Group                 C1    NOp =  1
 Largest Abelian Subgroup              C1    NOp =  1
 Nuclear Repulsion Energy =  1292.0455719367 hartrees
 There are       62 alpha and       62 beta electrons
 Requested basis set is 6-311++G(d,p)
 There are 216 shells and 520 basis functions

 Total QAlloc Memory Limit   4000 MB
 Mega-Array Size       392 MB
 MEM_STATIC part       400 MB
 A cutoff of  1.0D-12 yielded  20243 shell pairs
 There are    117795 function pairs (    124930 Cartesian)
 
 -------------------------------------------------------
 OpenMP Integral Computing Module                       
 Release: version 1.0, May 2013, Q-Chem Inc. Pittsburgh 
 -------------------------------------------------------
 Integral Job Info:
 Integral job number is                      11
 Integral operator is                         1
 short-range coefficients                     0
 long-range coefficients              100000000
 Omega coefficients                           0
 if combine SR and LR in K                    0
 Integral screening is                        0
 Integral computing path is                   2
 max size of driver memory is            800000
 size of driver memory is                593474
 size of scratch memory is              2361544
 max col of scratch BK array               1296
 max len of scratch array in speh3          155
 max len of scratch index in speh4           18
 max int batch size is                      520
 min int batch size is                       52
 fixed nKL is                                52
 max L of basis functions is                  2
 order of int derivative is                   0
 number of shells is                        216
 number of basis is                         536
 number of cartesian basis is               536
 number of contracted shell pairs         20243
 number of primitive shell pairs          42884
 maxK2 (contraction) of shell pair           36
 max number of K2 of shell pair               1
 max number of CS2 of shell pair           3588
 max number of PS2 of shell pair           6306
 mem total for path MDJ                  165352
 -------------------------------------------------------
 Smallest overlap matrix eigenvalue = 6.34E-07
 Linear dependence detected in AO basis
 Number of orthogonalized atomic orbitals = 519
 Maximum deviation from orthogonality = 1.399E-10

 Scale SEOQF with 1.000000e-01/1.000000e-01/1.000000e-01

 Standard Electronic Orientation quadrupole field applied
 Nucleus-field energy     =     0.0000000214 hartrees
 Guess from superposition of atomic densities
 Warning:  Energy on first SCF cycle will be non-variational
 A restricted hybrid HF-DFT SCF calculation will be
 performed using Pulay DIIS extrapolation
 Exchange:     0.2000 Hartree-Fock + 0.0800 Slater + 0.7200 B88
 Correlation:  0.1900 VWN1RPA + 0.8100 LYP
 Using SG-1 standard quadrature grid
 Dispersion:   Grimme D3
 SCF converges when DIIS error is below 1.0E-08
 using 4 threads for integral computing
 -------------------------------------------------------
 OpenMP Integral computing Module                
 Release: version 1.0, May 2013, Q-Chem Inc. Pittsburgh 
 -------------------------------------------------------
 -------------------------------------------------------
 OpenMP BLAS3 based DFT computing Module                
 Release: version 1.0, May 2013, Q-Chem Inc. Pittsburgh 
 -------------------------------------------------------
 ---------------------------------------
  Cycle       Energy         DIIS Error
 ---------------------------------------
    1    -702.0057633161      2.70E-02
    2    -698.2268740042      3.23E-03
    3    -698.0397423652      4.04E-03
    4    -698.5707009474      6.29E-04
    5    -698.5801867479      2.35E-04
    6    -698.5814901866      6.96E-05
    7    -698.5815899253      2.59E-05
    8    -698.5816080751      3.69E-06
    9    -698.5816083601      1.99E-06
   10    -698.5816084580      4.18E-07
   11    -698.5816084622      1.24E-07
   12    -698.5816084626      2.64E-08
   13    -698.5816084627      6.78E-09 Convergence criterion met
 ---------------------------------------
 SCF time:  CPU 1096.79 s  wall 277.23 s
 SCF   energy in the final basis set = -698.58160846
 Total energy in the final basis set = -698.58160846
 
 --------------------------------------------------------------
 
                    Orbital Energies (a.u.)
 --------------------------------------------------------------
 
 Alpha MOs
 -- Occupied --
-19.123 -19.100 -10.235 -10.228 -10.209 -10.201 -10.178 -10.178
-10.177 -10.177 -10.169 -10.151 -10.148 -10.148 -10.146 -10.145
 -1.060  -1.029  -0.812  -0.790  -0.779  -0.760  -0.758  -0.732
 -0.692  -0.666  -0.623  -0.596  -0.588  -0.570  -0.555  -0.537
 -0.512  -0.500  -0.485  -0.479  -0.462  -0.459  -0.439  -0.429
 -0.420  -0.415  -0.401  -0.401  -0.388  -0.384  -0.377  -0.371
 -0.360  -0.358  -0.353  -0.350  -0.336  -0.332  -0.327  -0.325
 -0.313  -0.311  -0.298  -0.285  -0.273  -0.243
 -- Virtual --
 -0.015  -0.003   0.002   0.005   0.014   0.018   0.021   0.023
  0.025   0.038   0.041   0.042   0.046   0.047   0.052   0.057
  0.064   0.071   0.071   0.076   0.080   0.083   0.086   0.089
  0.094   0.097   0.102   0.105   0.107   0.109   0.113   0.117
  0.118   0.123   0.123   0.127   0.130   0.132   0.135   0.135
  0.136   0.138   0.139   0.144   0.146   0.150   0.152   0.152
  0.158   0.159   0.160   0.163   0.164   0.164   0.168   0.171
  0.174   0.176   0.177   0.182   0.185   0.186   0.189   0.189
  0.193   0.197   0.204   0.208   0.213   0.214   0.215   0.216
  0.217   0.224   0.226   0.231   0.232   0.242   0.244   0.247
  0.247   0.250   0.250   0.258   0.265   0.267   0.272   0.275
  0.276   0.279   0.285   0.285   0.292   0.301   0.305   0.311
  0.314   0.314   0.320   0.322   0.331   0.333   0.339   0.343
  0.346   0.349   0.350   0.354   0.359   0.360   0.364   0.365
  0.377   0.382   0.383   0.385   0.388   0.396   0.400   0.404
  0.416   0.418   0.424   0.431   0.442   0.459   0.473   0.475
  0.488   0.498   0.523   0.526   0.528   0.542   0.543   0.552
  0.555   0.560   0.570   0.571   0.571   0.586   0.597   0.600
  0.610   0.619   0.625   0.630   0.643   0.649   0.652   0.665
  0.667   0.670   0.677   0.686   0.689   0.696   0.696   0.703
  0.706   0.707   0.712   0.720   0.724   0.731   0.734   0.735
  0.745   0.756   0.758   0.763   0.766   0.766   0.772   0.782
  0.789   0.791   0.798   0.800   0.805   0.808   0.818   0.819
  0.834   0.844   0.848   0.860   0.870   0.872   0.885   0.922
  0.930   0.936   0.943   0.960   0.963   0.991   0.993   1.023
  1.050   1.056   1.058   1.073   1.088   1.120   1.150   1.177
  1.190   1.198   1.207   1.224   1.226   1.253   1.255   1.263
  1.283   1.300   1.312   1.319   1.350   1.364   1.371   1.374
  1.407   1.416   1.431   1.448   1.453   1.465   1.490   1.496
  1.510   1.519   1.522   1.523   1.531   1.543   1.544   1.557
  1.570   1.575   1.580   1.583   1.585   1.594   1.606   1.608
  1.611   1.612   1.618   1.635   1.640   1.668   1.673   1.676
  1.680   1.687   1.693   1.694   1.701   1.707   1.714   1.732
  1.740   1.748   1.764   1.764   1.766   1.770   1.776   1.788
  1.806   1.821   1.835   1.839   1.845   1.848   1.864   1.868
  1.878   1.883   1.892   1.903   1.907   1.914   1.922   1.934
  1.943   1.953   1.966   1.982   1.997   1.998   2.002   2.011
  2.016   2.018   2.027   2.054   2.071   2.079   2.090   2.110
  2.120   2.123   2.145   2.151   2.164   2.164   2.166   2.188
  2.205   2.211   2.225   2.225   2.244   2.252   2.296   2.301
  2.314   2.318   2.321   2.358   2.366   2.393   2.419   2.431
  2.452   2.474   2.482   2.491   2.498   2.502   2.515   2.521
  2.526   2.529   2.538   2.545   2.548   2.588   2.606   2.615
  2.621   2.623   2.627   2.643   2.647   2.648   2.666   2.678
  2.682   2.699   2.717   2.728   2.734   2.749   2.783   2.785
  2.806   2.814   2.819   2.834   2.842   2.854   2.855   2.874
  2.875   2.898   2.916   2.922   2.943   2.950   2.967   2.981
  2.984   2.989   3.004   3.020   3.023   3.038   3.047   3.070
  3.089   3.105   3.129   3.133   3.143   3.152   3.153   3.167
  3.189   3.195   3.221   3.252   3.282   3.299   3.308   3.327
  3.340   3.349   3.362   3.426   3.495   3.605   3.610   3.638
  3.695   3.698   3.793   3.839   3.849   3.851   3.876   3.959
  3.966   3.999   4.007   4.070   4.104   4.119   4.127   4.145
  4.161   4.170   4.203   4.207   4.225   4.295   4.342   4.426
  4.447   4.455   4.488   5.211   5.272   5.532   5.628   5.644
  5.675  23.810  23.840  23.845  23.891  23.949  23.967  23.979
 23.980  23.992  24.004  24.016  24.077  24.113  24.148  49.994
 50.014
 --------------------------------------------------------------
 
          Ground-State Mulliken Net Atomic Charges

     Atom                 Charge (a.u.)
  ----------------------------------------
      1 C                    -0.304714
      2 C                     0.030772
      3 C                    -0.175945
      4 C                    -0.307072
      5 C                     0.034363
      6 C                    -0.372194
      7 O                    -0.051433
      8 H                     0.183579
      9 H                     0.080185
     10 H                     0.205649
     11 H                    -0.009406
     12 H                     0.224032
     13 C                    -0.544575
     14 H                     0.149600
     15 H                     0.149438
     16 H                     0.138302
     17 H                     0.183749
     18 H                     0.079102
     19 H                    -0.008486
     20 H                     0.205629
     21 C                    -0.621458
     22 C                    -0.315245
     23 C                     0.315506
     24 C                    -0.624255
     25 C                    -0.310768
     26 C                    -0.030071
     27 O                     0.106987
     28 H                     0.155874
     29 H                     0.149265
     30 H                     0.170316
     31 H                     0.150605
     32 H                     0.236801
     33 C                    -0.470643
     34 H                     0.198698
     35 H                     0.198488
     36 H                     0.173092
     37 H                     0.156348
     38 H                     0.148919
     39 H                     0.150512
     40 H                     0.170457
  ----------------------------------------
  Sum of atomic charges =     0.000000

 -----------------------------------------------------------------
                    Cartesian Multipole Moments
 -----------------------------------------------------------------
    Charge (ESU x 10^10)
                -0.0000
    Dipole Moment (Debye)
         X      -4.3464      Y      -0.7263      Z       0.0047
       Tot       4.4067
    Quadrupole Moments (Debye-Ang)
        XX    -107.6025     XY      -2.4855     YY     -97.1562
        XZ      -0.0027     YZ       0.0056     ZZ    -101.2411
    Octopole Moments (Debye-Ang^2)
       XXX     -58.3176    XXY      -8.4902    XYY       0.8444
       YYY       9.4619    XXZ       0.0250    XYZ      -0.0067
       YYZ       0.0182    XZZ       3.6933    YZZ       0.6835
       ZZZ       0.0162
    Hexadecapole Moments (Debye-Ang^3)
      XXXX   -3225.9870   XXXY     -36.9258   XXYY    -672.8615
      XYYY      28.3910   YYYY   -1025.2512   XXXZ      -0.0681
      XXYZ       0.0948   XYYZ      -0.0182   YYYZ       0.0016
      XXZZ    -644.6238   XYZZ      -0.4429   YYZZ    -301.6603
      XZZZ      -0.0331   YZZZ      -0.0037   ZZZZ    -750.1013
 -----------------------------------------------------------------
Archival summary:
1\1\vega02.cac.cornell.edu\SP\ProcedureUnspecified\BasisUnspecified\21424\jj585\TueApr1723:00:082018TueApr1723:00:082018\0\\#,ProcedureUnspecified,BasisUnspecified,\\0,1\O\C,1,1.43826\H,2,1.08887,1,109.48\C,1,1.44968,2,97.4122,3,-179.997,0\C,4,1.51109,1,110.608,2,-179.857,0\H,5,1.09267,4,110.654,1,-60.1503,0\H,5,1.09279,4,110.587,1,60.1246,0\H,5,1.0937,4,110.266,1,179.936,0\C,2,1.54392,1,102.541,3,-122.992,0\H,9,1.09151,2,110.565,1,82.9957,0\H,9,1.09233,2,112.496,1,-156.17,0\C,2,1.54421,1,102.539,3,123.004,0\H,12,1.09142,2,110.51,1,-83.1176,0\H,12,1.09208,2,112.447,1,155.951,0\C,4,1.55098,1,101.706,2,-56.0474,0\H,15,1.09182,4,110.029,1,-84.6846,0\H,15,1.09232,4,112.178,1,155.019,0\C,4,1.55126,1,101.645,2,56.1901,0\H,18,1.09222,4,110.045,1,84.5395,0\H,18,1.09225,4,112.196,1,-155.189,0\H,7,1.61387,5,114.184,4,-46.5846,0\C,21,1.09232,7,147.139,5,-113.078,0\H,22,1.09182,21,108.035,7,-73.2222,0\C,22,1.55098,21,112.178,7,48.2241,0\O,24,1.44968,22,101.706,21,155.019,0\C,25,1.43826,24,97.4122,22,-56.0474,0\H,26,1.08887,25,109.48,24,-179.997,0\C,24,1.51109,22,116.014,21,-84.9089,0\H,28,1.09267,24,110.654,22,-175.282,0\H,28,1.09279,24,110.587,22,-55.0073,0\H,28,1.0937,24,110.266,22,64.8037,0\C,26,1.54392,25,102.541,24,57.0109,0\H,32,1.09151,26,110.565,25,82.9957,0\H,32,1.09233,26,112.496,25,-156.17,0\C,26,1.54421,25,102.539,24,-56.9923,0\H,35,1.09142,26,110.51,25,-83.1176,0\H,35,1.09208,26,112.447,25,155.951,0\C,24,1.55126,22,108.784,21,48.2696,0\H,38,1.09222,24,110.045,22,-168.669,0\H,38,1.09225,24,112.196,22,-48.3972,0\\\@

 Total job time:  278.51s(wall), 1099.64s(cpu) 
 Tue Apr 17 23:00:08 2018

        *************************************************************
        *                                                           *
        *  Thank you very much for using Q-Chem.  Have a nice day.  *
        *                                                           *
        *************************************************************


0 sent ACK to 0 
now end server 0 ... 
