mFile = /opt/software/qchem/qchem-5.0.1//bin/mpi/machines
Process 0 of 1 is on vega03.cac.cornell.edu - thread support 0
initial socket setup ...start
initial socket setup ...done 
now start server 0 ... 
vega03 10.84.3
Q-Chem Developer Version! Running on 10.84.3.*
                  Welcome to Q-Chem
     A Quantum Leap Into The Future Of Chemistry


 Q-Chem 5.0, Q-Chem, Inc., Pleasanton, CA (2017)

 Yihan Shao,  Zhengting Gan,  E. Epifanovsky,  A. T. B. Gilbert,  M. Wormit,  
 J. Kussmann,  A. W. Lange,  A. Behn,  Jia Deng,  Xintian Feng,  D. Ghosh,  
 M. Goldey,  P. R. Horn,  L. D. Jacobson,  I. Kaliman,  T. Kus,  A. Landau,  
 Jie Liu,  E. I. Proynov,  R. M. Richard,  R. P. Steele,  E. J. Sundstrom,  
 H. L. Woodcock III,  P. M. Zimmerman,  D. Zuev,  B. Albrecht,  E. Alguire,  
 S. A. Baeppler,  Z. Benda,  Y. A. Bernard,  E. J. Berquist,  K. B. Bravaya,  
 D. Casanova,  Chun-Min Chang,  Yunqing Chen,  A. Chien,  K. D. Closser,  
 M. P. Coons,  S. Dasgupta,  M. Diedenhofen,  Hainam Do,  R. G. Edgar,  
 Po-Tung Fang,  S. Fatehi,  Qingguo Feng,  Qinghui Ge,  A. Ghysels,  
 J. Gomes,  J. Gonthier,  A. Gunina,  M. W. D. Hanson-Heine,  
 P. H. P. Harbach,  A. W. Hauser,  J. E. Herr,  E. G. Hohenstein,  
 Z. C. Holden,  Kerwin Hui,  T.-C. Jagau,  Hyunjun Ji,  B. Kaduk,  
 K. Khistyaev,  Jaehoon Kim,  P. Klunzinger,  K. Koh,  D. Kosenkov,  
 T. Kowalczyk,  C. M. Krauter,  A. Kunitsa,  Ka Un Lao,  A. Laurent,  
 K. V. Lawler,  Joonho Lee,  D. Lefrancois,  S. Lehtola,  D. S. Levine,  
 Yi-Pei Li,  You-Sheng Lin,  Fenglai Liu,  E. Livshits,  A. Luenser,  
 P. Manohar,  E. Mansoor,  S. F. Manzer,  Shan-Ping Mao,  Yuezhi Mao,  
 N. Mardirossian,  A. V. Marenich,  L. A. Martinez-Martinez,  S. A. Maurer,  
 N. J. Mayhall,  S. C. McKenzie,  J.-M. Mewes,  A. F. Morrison,  K. Nanda,  
 T. S. Nguyen-Beck,  R. Olivares-Amaya,  J. A. Parkhill,  T. M. Perrine,  
 F. Plasser,  S. Prager,  A. Prociuk,  D. R. Rehn,  F. Rob,  M. Schneider,  
 N. Sergueev,  S. M. Sharada,  S. Sharma,  D. W. Small,  T. Stauch,  
 T. Stein,  Yu-Chuan Su,  A. J. W. Thom,  T. Tsuchimochi,  L. Vogt,  
 O. Vydrov,  M. A. Watson,  J. Wenzel,  M. de Wergifosse,  T. A. Wesolowski,  
 A. White,  J. Witte,  A. Yamada,  Jun Yang,  K. Yao,  S. Yeganeh,  
 S. R. Yost,  Zhi-Qiang You,  A. Zech,  Igor Ying Zhang,  Xing Zhang,  
 Yan Zhao,  Ying Zhu,  B. R. Brooks,  G. K. L. Chan,  C. J. Cramer,  
 M. S. Gordon,  W. J. Hehre,  A. Klamt,  M. W. Schmidt,  C. D. Sherrill,  
 D. G. Truhlar,  A. Aspuru-Guzik,  R. Baer,  A. T. Bell,  N. A. Besley,  
 Jeng-Da Chai,  A. Dreuw,  B. D. Dunietz,  T. R. Furlani,  Chao-Ping Hsu,  
 Yousung Jung,  Jing Kong,  D. S. Lambrecht,  WanZhen Liang,  C. Ochsenfeld,  
 V. A. Rassolov,  L. V. Slipchenko,  J. E. Subotnik,  T. Van Voorhis,  
 J. M. Herbert,  A. I. Krylov,  P. M. W. Gill,  M. Head-Gordon

 Contributors to earlier versions of Q-Chem not listed above: 
 R. D. Adamson,  B. Austin,  J. Baker,  G. J. O. Beran,  K. Brandhorst,  
 S. T. Brown,  E. F. C. Byrd,  A. K. Chakraborty,  C.-L. Cheng,  
 Siu Hung Chien,  D. M. Chipman,  D. L. Crittenden,  H. Dachsel,  
 R. A. DiStasio Jr.,  R. J. Doerksen,  A. D. Dutoi,  L. Fusti-Molnar,  
 W. A. Goddard III,  A. Golubeva-Zadorozhnaya,  S. R. Gwaltney,  G. Hawkins,  
 A. Heyden,  S. Hirata,  G. Kedziora,  F. J. Keil,  C. Kelley,  Jihan Kim,  
 R. A. King,  R. Z. Khaliullin,  P. P. Korambath,  W. Kurlancheek,  
 A. M. Lee,  M. S. Lee,  S. V. Levchenko,  Ching Yeh Lin,  D. Liotard,  
 R. C. Lochan,  I. Lotan,  P. E. Maslen,  N. Nair,  D. P. O'Neill,  
 D. Neuhauser,  E. Neuscamman,  C. M. Oana,  R. Olson,  B. Peters,  
 R. Peverati,  P. A. Pieniazek,  Y. M. Rhee,  J. Ritchie,  M. A. Rohrdanz,  
 E. Rosta,  N. J. Russ,  H. F. Schaefer III,  N. E. Schultz,  N. Shenvi,  
 A. C. Simmonett,  A. Sodt,  D. Stuck,  K. S. Thanthiriwatte,  V. Vanovschi,  
 Tao Wang,  A. Warshel,  C. F. Williams,  Q. Wu,  X. Xu,  W. Zhang

 Please cite Q-Chem as follows:
 Y. Shao et al., Mol. Phys. 113, 184-215 (2015)
 DOI: 10.1080/00268976.2014.952696

 Q-Chem 5.0.1 for Intel X86 EM64T Linux

 Parts of Q-Chem use Armadillo 5.200.1 (Boston Tea Smuggler).
 http://arma.sourceforge.net/

 Q-Chem begins on Tue Apr 17 00:26:36 2018  

Host: vega03.cac.cornell.edu
0

     Scratch files written to /scratch/jj585/vdw/0110_distance_5.300_11.save//
 Parallel job on  1  processors

Checking the input file for inconsistencies... 	...done.

--------------------------------------------------------------
User input:
--------------------------------------------------------------
$molecule
0  1
--
0  1
C        +0.22270000        +1.04488000        +0.58595000
C        +0.62626000        -0.41353000        +0.99871000
C        +1.33008000        +1.39974000        -0.43491000
C        +2.63070000        +1.71700000        +0.32855000
C        +3.04336000        +0.29351000        +0.80300000
C        +1.94423000        -0.59299000        +0.15262000
O        +1.62840000        +0.13663000        -1.04376000
H        +3.37234000        +2.13782000        -0.35195000
H        +2.48236000        +2.42488000        +1.14651000
H        +4.02182000        +0.00994000        +0.41161000
H        +3.07359000        +0.18738000        +1.88928000
C        +0.90028000        +2.39077000        -1.49430000
C        +2.35450000        -2.01267000        -0.16812000
H        +3.26311000        -2.00678000        -0.77366000
H        +2.54990000        -2.57059000        +0.75079000
H        +1.57335000        -2.52896000        -0.72872000
H        +1.71845000        +2.58186000        -2.15686000
H        +0.59919000        +3.30478000        -1.02650000
H        +0.07925000        +1.98653000        -2.04874000
H        +0.81693000        -0.48905000        +2.04887000
H        -0.12524000        -1.15356000        +0.81843000
H        -0.74673000        +1.06811000        +0.13365000
H        +0.15552000        +1.72617000        +1.40828000
--
0  1
C        +4.20073000        +3.17112000        +3.36882000
C        +4.60429000        +1.71271000        +3.78158000
C        +5.30811000        +3.52598000        +2.34796000
C        +6.60873000        +3.84324000        +3.11142000
C        +7.02139000        +2.41975000        +3.58587000
C        +5.92226000        +1.53325000        +2.93549000
O        +5.60643000        +2.26287000        +1.73911000
H        +7.35037000        +4.26406000        +2.43092000
H        +6.46039000        +4.55112000        +3.92938000
H        +7.99985000        +2.13618000        +3.19448000
H        +7.05162000        +2.31362000        +4.67215000
C        +4.87831000        +4.51701000        +1.28857000
C        +6.33253000        +0.11357000        +2.61475000
H        +7.24114000        +0.11946000        +2.00921000
H        +6.52793000        -0.44435000        +3.53366000
H        +5.55138000        -0.40272000        +2.05415000
H        +5.69648000        +4.70810000        +0.62601000
H        +4.57722000        +5.43102000        +1.75637000
H        +4.05728000        +4.11277000        +0.73413000
H        +4.79496000        +1.63719000        +4.83174000
H        +3.85279000        +0.97268000        +3.60130000
H        +3.23130000        +3.19435000        +2.91652000
H        +4.13355000        +3.85241000        +4.19115000
$end

$rem
JOBTYPE                   SP
METHOD                    B3LYP
DFT_D                     d3_op
BASIS                     6-311++G(d,p)
SYMMETRY                  False
THRESH                    12
SCF_CONVERGENCE           8
MAX_SUB_FILE_NUM          128
MEM_STATIC                400
MEM_TOTAL                 4000
$end
--------------------------------------------------------------
 Adding empirical dispersion correction 
 ----------------------------------------------------------------
 Doing -D3(op) with
 s6 =   1.00000
 s8 =   0.78311
 a1 =   0.30000
 a2 =   4.25000
 n  =  10.00000
 -D3 energy without 3body term =     -0.0522715094 hartrees
 ----------------------------------------------------------------
             Standard Nuclear Orientation (Angstroms)
    I     Atom           X                Y                Z
 ----------------------------------------------------------------
    1      C       3.1582357517    -0.8062005504     1.3137540317
    2      C       3.2239531953     0.7607318779     1.3381507966
    3      C       2.7007350290    -1.0783851783    -0.1391671089
    4      C       1.1946360595    -0.7726278832    -0.2545613637
    5      C       1.2077608858     0.7818745969    -0.1833951056
    6      C       2.7308342835     1.0877583377    -0.1230153589
    7      O       3.2931447777     0.0002957784    -0.8744480757
    8      H       0.8132491037    -1.1215982931    -1.2152711299
    9      H       0.6033118437    -1.2417036281     0.5344006310
   10      H       0.7801943553     1.2266536916    -1.0835842343
   11      H       0.6690277763     1.1837840552     0.6770798169
   12      C       3.1744195464    -2.4016823833    -0.6992413525
   13      C       3.1529381996     2.4215247484    -0.6971080070
   14      H       2.7725132806     2.5223556584    -1.7156341600
   15      H       2.7558394806     3.2404283779    -0.0924916596
   16      H       4.2403972578     2.5080766853    -0.7281661079
   17      H       2.8177482427    -2.5127808118    -1.7019107950
   18      H       2.7963978349    -3.2002506844    -0.0956731606
   19      H       4.2440970455    -2.4278531893    -0.6962265628
   20      H       2.5698142626     1.1726766742     2.0779467728
   21      H       4.1830462941     1.1643675719     1.5873819819
   22      H       4.1168208135    -1.2398770337     1.5085586384
   23      H       2.5137439238    -1.2255456966     2.0578479623
   24      C      -2.1412624610    -0.8064594361     1.3865776723
   25      C      -2.0755450173     0.7604729922     1.4109744372
   26      C      -2.5987631836    -1.0786440640    -0.0663434682
   27      C      -4.1048621532    -0.7728867689    -0.1817377230
   28      C      -4.0917373268     0.7816157113    -0.1105714649
   29      C      -2.5686639291     1.0874994520    -0.0501917183
   30      O      -2.0063534349     0.0000368927    -0.8016244351
   31      H      -4.4862491089    -1.1218571788    -1.1424474893
   32      H      -4.6961863689    -1.2419625138     0.6072242716
   33      H      -4.5193038573     1.2263948059    -1.0107605937
   34      H      -4.6304704364     1.1835251695     0.7499034575
   35      C      -2.1250786662    -2.4019412690    -0.6264177119
   36      C      -2.1465600130     2.4212658627    -0.6242843664
   37      H      -2.5269849320     2.5220967727    -1.6428105194
   38      H      -2.5436587320     3.2401694922    -0.0196680190
   39      H      -1.0591009548     2.5078177996    -0.6553424672
   40      H      -2.4817499700    -2.5130396974    -1.6290871543
   41      H      -2.5031003778    -3.2005095701    -0.0228495200
   42      H      -1.0554011671    -2.4281120750    -0.6234029222
   43      H      -2.7296839500     1.1724177885     2.1507704134
   44      H      -1.1164519186     1.1641086862     1.6602056225
   45      H      -1.1826773991    -1.2401359194     1.5813822790
   46      H      -2.7857542889    -1.2258045823     2.1306716029
 ----------------------------------------------------------------
 Molecular Point Group                 C1    NOp =  1
 Largest Abelian Subgroup              C1    NOp =  1
 Nuclear Repulsion Energy =  1481.5773786857 hartrees
 There are       70 alpha and       70 beta electrons
 Requested basis set is 6-311++G(d,p)
 There are 248 shells and 592 basis functions

 Total QAlloc Memory Limit   4000 MB
 Mega-Array Size       392 MB
 MEM_STATIC part       400 MB
 A cutoff of  1.0D-12 yielded  24943 shell pairs
 There are    140073 function pairs (    147966 Cartesian)
 
 -------------------------------------------------------
 OpenMP Integral Computing Module                       
 Release: version 1.0, May 2013, Q-Chem Inc. Pittsburgh 
 -------------------------------------------------------
 Integral Job Info:
 Integral job number is                      11
 Integral operator is                         1
 short-range coefficients                     0
 long-range coefficients              100000000
 Omega coefficients                           0
 if combine SR and LR in K                    0
 Integral screening is                        0
 Integral computing path is                   2
 max size of driver memory is            800000
 size of driver memory is                593474
 size of scratch memory is              2361544
 max col of scratch BK array               1296
 max len of scratch array in speh3          155
 max len of scratch index in speh4           18
 max int batch size is                      520
 min int batch size is                       52
 fixed nKL is                                52
 max L of basis functions is                  2
 order of int derivative is                   0
 number of shells is                        248
 number of basis is                         610
 number of cartesian basis is               610
 number of contracted shell pairs         24943
 number of primitive shell pairs          51654
 maxK2 (contraction) of shell pair           36
 max number of K2 of shell pair               1
 max number of CS2 of shell pair           4618
 max number of PS2 of shell pair           7740
 mem total for path MDJ                  191370
 -------------------------------------------------------
 Smallest overlap matrix eigenvalue = 3.60E-07
 Linear dependence detected in AO basis
 Number of orthogonalized atomic orbitals = 590
 Maximum deviation from orthogonality = 1.511E-10

 Scale SEOQF with 1.000000e-01/1.000000e-01/1.000000e-01

 Standard Electronic Orientation quadrupole field applied
 Nucleus-field energy     =     0.0000000493 hartrees
 Guess from superposition of atomic densities
 Warning:  Energy on first SCF cycle will be non-variational
 A restricted hybrid HF-DFT SCF calculation will be
 performed using Pulay DIIS extrapolation
 Exchange:     0.2000 Hartree-Fock + 0.0800 Slater + 0.7200 B88
 Correlation:  0.1900 VWN1RPA + 0.8100 LYP
 Using SG-1 standard quadrature grid
 Dispersion:   Grimme D3
 SCF converges when DIIS error is below 1.0E-08
 using 4 threads for integral computing
 -------------------------------------------------------
 OpenMP Integral computing Module                
 Release: version 1.0, May 2013, Q-Chem Inc. Pittsburgh 
 -------------------------------------------------------
 -------------------------------------------------------
 OpenMP BLAS3 based DFT computing Module                
 Release: version 1.0, May 2013, Q-Chem Inc. Pittsburgh 
 -------------------------------------------------------
 ---------------------------------------
  Cycle       Energy         DIIS Error
 ---------------------------------------
    1    -781.0067699443      2.53E-02
    2    -776.8279715800      3.17E-03
    3    -776.6791954267      3.69E-03
    4    -777.2573067527      5.70E-04
    5    -777.2669913037      2.08E-04
    6    -777.2682957560      5.51E-05
    7    -777.2683829351      2.04E-05
    8    -777.2683984162      1.94E-06
    9    -777.2683985601      7.46E-07
   10    -777.2683985812      2.24E-07
   11    -777.2683985832      4.04E-08
   12    -777.2683985833      2.01E-08
   13    -777.2683985834      5.39E-09 Convergence criterion met
 ---------------------------------------
 SCF time:  CPU 1243.39 s  wall 313.66 s
 SCF   energy in the final basis set = -777.26839858
 Total energy in the final basis set = -777.26839858
 
 --------------------------------------------------------------
 
                    Orbital Energies (a.u.)
 --------------------------------------------------------------
 
 Alpha MOs
 -- Occupied --
-19.117 -19.110 -10.227 -10.223 -10.219 -10.215 -10.168 -10.168
-10.166 -10.164 -10.162 -10.159 -10.158 -10.158 -10.157 -10.156
-10.153 -10.148  -1.052  -1.044  -0.802  -0.794  -0.791  -0.784
 -0.752  -0.743  -0.720  -0.714  -0.655  -0.648  -0.620  -0.611
 -0.565  -0.560  -0.558  -0.549  -0.490  -0.483  -0.476  -0.470
 -0.468  -0.458  -0.448  -0.439  -0.423  -0.415  -0.414  -0.411
 -0.406  -0.404  -0.402  -0.394  -0.389  -0.378  -0.363  -0.356
 -0.350  -0.347  -0.345  -0.341  -0.340  -0.335  -0.334  -0.328
 -0.318  -0.311  -0.301  -0.293  -0.265  -0.255
 -- Virtual --
 -0.013  -0.004  -0.002   0.007   0.011   0.015   0.016   0.026
  0.027   0.028   0.036   0.037   0.041   0.045   0.051   0.052
  0.056   0.057   0.062   0.063   0.067   0.072   0.073   0.078
  0.081   0.088   0.090   0.093   0.095   0.096   0.103   0.105
  0.108   0.110   0.110   0.115   0.116   0.122   0.125   0.126
  0.128   0.131   0.132   0.133   0.139   0.140   0.142   0.144
  0.145   0.148   0.150   0.151   0.154   0.156   0.160   0.160
  0.161   0.163   0.166   0.169   0.169   0.171   0.172   0.175
  0.177   0.179   0.180   0.182   0.183   0.186   0.190   0.190
  0.193   0.194   0.198   0.201   0.205   0.208   0.209   0.210
  0.215   0.217   0.218   0.221   0.224   0.229   0.232   0.234
  0.235   0.238   0.240   0.246   0.247   0.251   0.259   0.259
  0.264   0.266   0.271   0.273   0.275   0.279   0.283   0.285
  0.289   0.294   0.298   0.303   0.306   0.312   0.319   0.322
  0.326   0.331   0.333   0.335   0.339   0.343   0.347   0.351
  0.355   0.358   0.359   0.364   0.369   0.370   0.375   0.378
  0.378   0.381   0.392   0.393   0.397   0.405   0.406   0.414
  0.416   0.424   0.428   0.432   0.438   0.446   0.452   0.454
  0.466   0.477   0.484   0.489   0.504   0.510   0.525   0.537
  0.543   0.550   0.552   0.558   0.561   0.570   0.575   0.580
  0.585   0.591   0.594   0.597   0.606   0.607   0.612   0.617
  0.625   0.632   0.637   0.642   0.646   0.651   0.655   0.655
  0.662   0.667   0.673   0.678   0.681   0.690   0.695   0.699
  0.703   0.710   0.710   0.712   0.722   0.736   0.740   0.742
  0.747   0.750   0.754   0.756   0.763   0.769   0.772   0.777
  0.784   0.790   0.792   0.800   0.802   0.809   0.813   0.817
  0.824   0.829   0.836   0.839   0.843   0.849   0.859   0.868
  0.880   0.906   0.913   0.923   0.929   0.942   0.947   0.958
  0.966   0.970   0.994   1.011   1.017   1.044   1.073   1.084
  1.093   1.108   1.125   1.142   1.146   1.181   1.185   1.194
  1.196   1.200   1.213   1.214   1.234   1.245   1.263   1.271
  1.280   1.291   1.303   1.310   1.311   1.320   1.366   1.379
  1.430   1.446   1.454   1.456   1.462   1.472   1.474   1.478
  1.487   1.492   1.502   1.510   1.511   1.519   1.534   1.539
  1.545   1.546   1.551   1.554   1.568   1.574   1.587   1.590
  1.595   1.597   1.602   1.608   1.616   1.621   1.626   1.635
  1.639   1.639   1.654   1.656   1.669   1.674   1.690   1.693
  1.698   1.706   1.713   1.717   1.720   1.721   1.728   1.735
  1.739   1.742   1.747   1.749   1.764   1.779   1.783   1.786
  1.789   1.796   1.805   1.808   1.813   1.844   1.859   1.865
  1.866   1.871   1.878   1.881   1.898   1.902   1.910   1.916
  1.927   1.935   1.946   1.957   1.965   1.995   1.997   2.011
  2.021   2.023   2.032   2.038   2.045   2.052   2.062   2.088
  2.092   2.099   2.104   2.109   2.125   2.134   2.144   2.155
  2.180   2.186   2.202   2.211   2.218   2.230   2.231   2.238
  2.251   2.275   2.283   2.290   2.296   2.299   2.314   2.330
  2.377   2.390   2.413   2.420   2.439   2.449   2.470   2.476
  2.482   2.492   2.504   2.511   2.520   2.524   2.530   2.540
  2.542   2.550   2.560   2.565   2.567   2.574   2.576   2.592
  2.596   2.608   2.616   2.622   2.623   2.636   2.637   2.643
  2.648   2.655   2.659   2.673   2.680   2.683   2.691   2.701
  2.714   2.718   2.722   2.761   2.778   2.785   2.790   2.804
  2.812   2.829   2.829   2.852   2.868   2.878   2.879   2.888
  2.901   2.913   2.916   2.929   2.961   2.972   2.978   2.979
  2.987   2.994   3.006   3.023   3.033   3.042   3.049   3.060
  3.081   3.086   3.103   3.120   3.129   3.148   3.155   3.160
  3.164   3.221   3.250   3.263   3.266   3.270   3.313   3.318
  3.330   3.353   3.359   3.369   3.550   3.555   3.617   3.635
  3.693   3.699   3.709   3.713   3.827   3.831   3.835   3.839
  3.878   3.884   3.891   3.898   3.971   3.977   3.985   3.998
  4.103   4.113   4.143   4.158   4.186   4.195   4.200   4.206
  4.281   4.290   4.292   4.299   4.471   4.480   4.506   4.509
  5.234   5.265   5.527   5.552   5.692   5.699  23.770  23.789
 23.851  23.863  23.958  23.963  23.976  23.981  24.000  24.004
 24.017  24.028  24.032  24.037  24.061  24.073  49.990  50.005
 --------------------------------------------------------------
 
          Ground-State Mulliken Net Atomic Charges

     Atom                 Charge (a.u.)
  ----------------------------------------
      1 C                    -0.425179
      2 C                    -0.471785
      3 C                    -0.057645
      4 C                    -0.220377
      5 C                    -0.151641
      6 C                    -0.073901
      7 O                     0.040700
      8 H                     0.197194
      9 H                    -0.021081
     10 H                     0.172786
     11 H                     0.001486
     12 C                    -0.307268
     13 C                    -0.312088
     14 H                     0.153378
     15 H                     0.150672
     16 H                     0.157808
     17 H                     0.142573
     18 H                     0.146955
     19 H                     0.156400
     20 H                     0.130039
     21 H                     0.173611
     22 H                     0.161591
     23 H                     0.141537
     24 C                    -0.296558
     25 C                    -0.313549
     26 C                     0.061397
     27 C                    -0.593876
     28 C                    -0.527713
     29 C                     0.086470
     30 O                     0.060206
     31 H                     0.156934
     32 H                     0.138353
     33 H                     0.159975
     34 H                     0.136400
     35 C                    -0.196355
     36 C                    -0.284724
     37 H                     0.157458
     38 H                     0.148040
     39 H                     0.145145
     40 H                     0.153344
     41 H                     0.145115
     42 H                     0.135350
     43 H                     0.166539
     44 H                     0.159083
     45 H                     0.136057
     46 H                     0.181147
  ----------------------------------------
  Sum of atomic charges =     0.000000

 -----------------------------------------------------------------
                    Cartesian Multipole Moments
 -----------------------------------------------------------------
    Charge (ESU x 10^10)
                 0.0000
    Dipole Moment (Debye)
         X      -2.1339      Y       0.0200      Z       2.3050
       Tot       3.1412
    Quadrupole Moments (Debye-Ang)
        XX    -116.2868     XY       0.1955     YY    -109.8741
        XZ       2.5882     YZ      -0.2205     ZZ    -116.2877
    Octopole Moments (Debye-Ang^2)
       XXX     -33.3187    XXY      -0.1794    XYY       1.9197
       YYY       0.3873    XXZ      19.5385    XYZ       0.2532
       YYZ      -2.2082    XZZ      -6.8349    YZZ      -0.3245
       ZZZ      -5.3939
    Hexadecapole Moments (Debye-Ang^3)
      XXXX   -5593.2387   XXXY       5.4304   XXYY   -1168.9974
      XYYY       1.1421   YYYY   -1694.6386   XXXZ      55.7096
      XXYZ      -1.9393   XYYZ      -5.0049   YYYZ      -1.2814
      XXZZ   -1048.3200   XYZZ       0.6414   YYZZ    -387.3715
      XZZZ      -0.4185   YZZZ       0.3806   ZZZZ    -689.5870
 -----------------------------------------------------------------
Archival summary:
1\1\vega03.cac.cornell.edu\SP\ProcedureUnspecified\BasisUnspecified\21628\jj585\TueApr1700:31:512018TueApr1700:31:512018\0\\#,ProcedureUnspecified,BasisUnspecified,\\0,1\O\C,1,1.43358\C,1,1.43646,2,98.0224\C,3,1.51218,1,111.091,2,-178.393,0\H,4,1.09134,3,111.033,1,-57.0184,0\H,4,1.09192,3,109.775,1,62.6469,0\H,4,1.09264,3,110.458,1,-177.522,0\C,2,1.513,1,109.807,3,-177.944,0\H,8,1.07,2,109.471,1,-64.7983,0\H,8,1.07,2,109.471,1,55.2018,0\H,8,1.07,2,109.471,1,175.202,0\C,2,1.54115,1,102.483,3,57.1986,0\H,12,1.09096,2,110.128,1,81.1589,0\H,12,1.09186,2,112.95,1,-157.962,0\C,2,1.54738,1,103.124,3,-55.9256,0\H,15,1.07,2,113.95,1,155.255,0\H,15,1.07,2,111.379,1,-86.5463,0\C,3,1.55466,1,102.371,2,-54.4128,0\H,18,1.09132,3,109.614,1,-87.4148,0\H,18,1.09187,3,112.355,1,152.676,0\C,15,1.5685,2,101.696,1,32.1918,0\H,21,1.07,15,111.7,2,120.458,0\H,21,1.07,15,114.71,2,-121.541,0\H,23,2.03835,21,132.567,15,68.617,0\C,24,1.09187,23,143.973,21,-9.5049,0\H,25,1.09132,24,107.862,23,70.2178,0\C,25,1.55466,24,112.355,23,-168.861,0\O,27,1.43646,25,102.371,24,152.676,0\C,28,1.43358,27,98.0224,25,-54.4128,0\C,27,1.51218,25,115.611,24,-86.4144,0\H,30,1.09134,27,111.033,25,-173.092,0\H,30,1.09192,27,109.775,25,-53.4265,0\H,30,1.09264,27,110.458,25,66.4047,0\C,29,1.513,28,109.807,27,-177.944,0\H,34,1.07,29,109.471,28,-64.7983,0\H,34,1.07,29,109.471,28,55.2018,0\H,34,1.07,29,109.471,28,175.202,0\C,29,1.54115,28,102.483,27,57.1986,0\H,38,1.09096,29,110.128,28,81.1589,0\H,38,1.09186,29,112.95,28,-157.962,0\C,29,1.54738,28,103.124,27,-55.9256,0\H,41,1.07,29,113.95,28,155.255,0\H,41,1.07,29,111.379,28,-86.5463,0\C,41,1.5685,29,101.696,28,32.1918,0\H,44,1.07,41,111.7,29,120.458,0\H,44,1.07,41,114.71,29,-121.541,0\\\@

 Total job time:  314.80s(wall), 1246.15s(cpu) 
 Tue Apr 17 00:31:51 2018

        *************************************************************
        *                                                           *
        *  Thank you very much for using Q-Chem.  Have a nice day.  *
        *                                                           *
        *************************************************************


0 sent ACK to 0 
now end server 0 ... 
