mFile = /opt/software/qchem/qchem-5.0.1//bin/mpi/machines
Process 0 of 1 is on vega01.cac.cornell.edu - thread support 0
initial socket setup ...start
initial socket setup ...done 
now start server 0 ... 
localhost 127.0.0
Q-Chem Developer Version! Running on 127.0.0.*
                  Welcome to Q-Chem
     A Quantum Leap Into The Future Of Chemistry


 Q-Chem 5.0, Q-Chem, Inc., Pleasanton, CA (2017)

 Yihan Shao,  Zhengting Gan,  E. Epifanovsky,  A. T. B. Gilbert,  M. Wormit,  
 J. Kussmann,  A. W. Lange,  A. Behn,  Jia Deng,  Xintian Feng,  D. Ghosh,  
 M. Goldey,  P. R. Horn,  L. D. Jacobson,  I. Kaliman,  T. Kus,  A. Landau,  
 Jie Liu,  E. I. Proynov,  R. M. Richard,  R. P. Steele,  E. J. Sundstrom,  
 H. L. Woodcock III,  P. M. Zimmerman,  D. Zuev,  B. Albrecht,  E. Alguire,  
 S. A. Baeppler,  Z. Benda,  Y. A. Bernard,  E. J. Berquist,  K. B. Bravaya,  
 D. Casanova,  Chun-Min Chang,  Yunqing Chen,  A. Chien,  K. D. Closser,  
 M. P. Coons,  S. Dasgupta,  M. Diedenhofen,  Hainam Do,  R. G. Edgar,  
 Po-Tung Fang,  S. Fatehi,  Qingguo Feng,  Qinghui Ge,  A. Ghysels,  
 J. Gomes,  J. Gonthier,  A. Gunina,  M. W. D. Hanson-Heine,  
 P. H. P. Harbach,  A. W. Hauser,  J. E. Herr,  E. G. Hohenstein,  
 Z. C. Holden,  Kerwin Hui,  T.-C. Jagau,  Hyunjun Ji,  B. Kaduk,  
 K. Khistyaev,  Jaehoon Kim,  P. Klunzinger,  K. Koh,  D. Kosenkov,  
 T. Kowalczyk,  C. M. Krauter,  A. Kunitsa,  Ka Un Lao,  A. Laurent,  
 K. V. Lawler,  Joonho Lee,  D. Lefrancois,  S. Lehtola,  D. S. Levine,  
 Yi-Pei Li,  You-Sheng Lin,  Fenglai Liu,  E. Livshits,  A. Luenser,  
 P. Manohar,  E. Mansoor,  S. F. Manzer,  Shan-Ping Mao,  Yuezhi Mao,  
 N. Mardirossian,  A. V. Marenich,  L. A. Martinez-Martinez,  S. A. Maurer,  
 N. J. Mayhall,  S. C. McKenzie,  J.-M. Mewes,  A. F. Morrison,  K. Nanda,  
 T. S. Nguyen-Beck,  R. Olivares-Amaya,  J. A. Parkhill,  T. M. Perrine,  
 F. Plasser,  S. Prager,  A. Prociuk,  D. R. Rehn,  F. Rob,  M. Schneider,  
 N. Sergueev,  S. M. Sharada,  S. Sharma,  D. W. Small,  T. Stauch,  
 T. Stein,  Yu-Chuan Su,  A. J. W. Thom,  T. Tsuchimochi,  L. Vogt,  
 O. Vydrov,  M. A. Watson,  J. Wenzel,  M. de Wergifosse,  T. A. Wesolowski,  
 A. White,  J. Witte,  A. Yamada,  Jun Yang,  K. Yao,  S. Yeganeh,  
 S. R. Yost,  Zhi-Qiang You,  A. Zech,  Igor Ying Zhang,  Xing Zhang,  
 Yan Zhao,  Ying Zhu,  B. R. Brooks,  G. K. L. Chan,  C. J. Cramer,  
 M. S. Gordon,  W. J. Hehre,  A. Klamt,  M. W. Schmidt,  C. D. Sherrill,  
 D. G. Truhlar,  A. Aspuru-Guzik,  R. Baer,  A. T. Bell,  N. A. Besley,  
 Jeng-Da Chai,  A. Dreuw,  B. D. Dunietz,  T. R. Furlani,  Chao-Ping Hsu,  
 Yousung Jung,  Jing Kong,  D. S. Lambrecht,  WanZhen Liang,  C. Ochsenfeld,  
 V. A. Rassolov,  L. V. Slipchenko,  J. E. Subotnik,  T. Van Voorhis,  
 J. M. Herbert,  A. I. Krylov,  P. M. W. Gill,  M. Head-Gordon

 Contributors to earlier versions of Q-Chem not listed above: 
 R. D. Adamson,  B. Austin,  J. Baker,  G. J. O. Beran,  K. Brandhorst,  
 S. T. Brown,  E. F. C. Byrd,  A. K. Chakraborty,  C.-L. Cheng,  
 Siu Hung Chien,  D. M. Chipman,  D. L. Crittenden,  H. Dachsel,  
 R. A. DiStasio Jr.,  R. J. Doerksen,  A. D. Dutoi,  L. Fusti-Molnar,  
 W. A. Goddard III,  A. Golubeva-Zadorozhnaya,  S. R. Gwaltney,  G. Hawkins,  
 A. Heyden,  S. Hirata,  G. Kedziora,  F. J. Keil,  C. Kelley,  Jihan Kim,  
 R. A. King,  R. Z. Khaliullin,  P. P. Korambath,  W. Kurlancheek,  
 A. M. Lee,  M. S. Lee,  S. V. Levchenko,  Ching Yeh Lin,  D. Liotard,  
 R. C. Lochan,  I. Lotan,  P. E. Maslen,  N. Nair,  D. P. O'Neill,  
 D. Neuhauser,  E. Neuscamman,  C. M. Oana,  R. Olson,  B. Peters,  
 R. Peverati,  P. A. Pieniazek,  Y. M. Rhee,  J. Ritchie,  M. A. Rohrdanz,  
 E. Rosta,  N. J. Russ,  H. F. Schaefer III,  N. E. Schultz,  N. Shenvi,  
 A. C. Simmonett,  A. Sodt,  D. Stuck,  K. S. Thanthiriwatte,  V. Vanovschi,  
 Tao Wang,  A. Warshel,  C. F. Williams,  Q. Wu,  X. Xu,  W. Zhang

 Please cite Q-Chem as follows:
 Y. Shao et al., Mol. Phys. 113, 184-215 (2015)
 DOI: 10.1080/00268976.2014.952696

 Q-Chem 5.0.1 for Intel X86 EM64T Linux

 Parts of Q-Chem use Armadillo 5.200.1 (Boston Tea Smuggler).
 http://arma.sourceforge.net/

 Q-Chem begins on Tue Apr 17 15:51:47 2018  

Host: vega01.cac.cornell.edu
0

     Scratch files written to /scratch/jj585/vdw/01n00_distance_5.300_11.save//
 Parallel job on  1  processors

Checking the input file for inconsistencies... 	...done.

--------------------------------------------------------------
User input:
--------------------------------------------------------------
$molecule
0  1
--
0  1
C        -0.54444000        -0.68370000        -0.06689000
C        -0.55709000        +0.71878000        +0.05493000
C        -1.74320000        -1.41616000        -0.12552000
C        -2.93952000        -0.70056000        -0.05285000
C        -2.95313000        +0.68255000        +0.06934000
C        -1.77161000        +1.42404000        +0.12810000
H        -3.90354000        +1.20325000        +0.11710000
H        -3.87892000        -1.24211000        -0.08988000
C        -1.83960000        +2.92746000        +0.24839000
H        -1.24214000        +3.42352000        -0.52065000
H        -1.45503000        +3.26427000        +1.21284000
H        -2.87211000        +3.26623000        +0.14638000
H        -1.73878000        -2.44393000        -0.21875000
H        +0.35825000        -1.18166000        -0.11386000
H        +0.33551000        +1.23549000        +0.09097000
--
0  1
C        -0.50797000        -1.14582000        +5.21280000
C        -0.52062000        +0.25666000        +5.33462000
C        -1.70673000        -1.87828000        +5.15417000
C        -2.90305000        -1.16268000        +5.22684000
C        -2.91666000        +0.22043000        +5.34903000
C        -1.73514000        +0.96192000        +5.40779000
H        -3.86707000        +0.74113000        +5.39679000
H        -3.84245000        -1.70423000        +5.18981000
C        -1.80313000        +2.46534000        +5.52808000
H        -1.20567000        +2.96140000        +4.75904000
H        -1.41856000        +2.80215000        +6.49253000
H        -2.83564000        +2.80411000        +5.42607000
H        -1.70231000        -2.90605000        +5.06094000
H        +0.39472000        -1.64378000        +5.16583000
H        +0.37198000        +0.77337000        +5.37066000
$end

$rem
JOBTYPE                   SP
METHOD                    B3LYP
DFT_D                     d3_op
BASIS                     6-311++G(d,p)
SYMMETRY                  False
THRESH                    12
SCF_CONVERGENCE           8
MAX_SUB_FILE_NUM          128
MEM_STATIC                400
MEM_TOTAL                 4000
$end
--------------------------------------------------------------
 Adding empirical dispersion correction 
 ----------------------------------------------------------------
 Doing -D3(op) with
 s6 =   1.00000
 s8 =   0.78311
 a1 =   0.30000
 a2 =   4.25000
 n  =  10.00000
 -D3 energy without 3body term =     -0.0243756460 hartrees
 ----------------------------------------------------------------
             Standard Nuclear Orientation (Angstroms)
    I     Atom           X                Y                Z
 ----------------------------------------------------------------
    1      C       2.6464836032    -1.2309517149     1.1901483443
    2      C       2.6486718204     0.1765781138     1.2185257723
    3      C       2.6487396765    -1.9304980864    -0.0295198279
    4      C       2.6476480881    -1.1767351781    -1.2044181715
    5      C       2.6477694933     0.2115689575    -1.1775758051
    6      C       2.6462984680     0.9206199451     0.0251270681
    7      H       2.6526279307     0.7619144736    -2.1123404194
    8      H       2.6433909517    -1.6918466606    -2.1592804761
    9      C       2.6592796599     2.4301305815     0.0011865579
   10      H       3.4648295454     2.8388255777     0.6164216989
   11      H       1.7255710225     2.8393330145     0.3913665329
   12      H       2.7978801038     2.7885163630    -1.0203796914
   13      H       2.6511117964    -2.9621764276    -0.0551462883
   14      H       2.6431712104    -1.7571958232     2.0778846482
   15      H       2.6520537260     0.6682328715     2.1258774283
   16      C      -2.6535156425    -1.2265468789     1.1899384619
   17      C      -2.6513274253     0.1809829498     1.2183158899
   18      C      -2.6512595692    -1.9260932504    -0.0297297104
   19      C      -2.6523511576    -1.1723303421    -1.2046280540
   20      C      -2.6522297525     0.2159737935    -1.1777856875
   21      C      -2.6537007777     0.9250247811     0.0249171856
   22      H      -2.6473713150     0.7663193096    -2.1125503019
   23      H      -2.6566082941    -1.6874418246    -2.1594903586
   24      C      -2.6407195859     2.4345354175     0.0009766754
   25      H      -1.8351697003     2.8432304137     0.6162118164
   26      H      -3.5744282232     2.8437378505     0.3911566504
   27      H      -2.5021191419     2.7929211991    -1.0205895738
   28      H      -2.6488874494    -2.9577715916    -0.0553561707
   29      H      -2.6568280353    -1.7527909872     2.0776747657
   30      H      -2.6479455197     0.6726377075     2.1256675458
 ----------------------------------------------------------------
 Molecular Point Group                 C1    NOp =  1
 Largest Abelian Subgroup              C1    NOp =  1
 Nuclear Repulsion Energy =   764.4245713158 hartrees
 There are       50 alpha and       50 beta electrons
 Requested basis set is 6-311++G(d,p)
 There are 164 shells and 420 basis functions

 Total QAlloc Memory Limit   4000 MB
 Mega-Array Size       392 MB
 MEM_STATIC part       400 MB
 A cutoff of  1.0D-12 yielded  10664 shell pairs
 There are     69303 function pairs (     73363 Cartesian)
 
 -------------------------------------------------------
 OpenMP Integral Computing Module                       
 Release: version 1.0, May 2013, Q-Chem Inc. Pittsburgh 
 -------------------------------------------------------
 Integral Job Info:
 Integral job number is                      11
 Integral operator is                         1
 short-range coefficients                     0
 long-range coefficients              100000000
 Omega coefficients                           0
 if combine SR and LR in K                    0
 Integral screening is                        0
 Integral computing path is                   2
 max size of driver memory is            800000
 size of driver memory is                593474
 size of scratch memory is              2361544
 max col of scratch BK array               1296
 max len of scratch array in speh3          155
 max len of scratch index in speh4           18
 max int batch size is                      520
 min int batch size is                       52
 fixed nKL is                                52
 max L of basis functions is                  2
 order of int derivative is                   0
 number of shells is                        164
 number of basis is                         434
 number of cartesian basis is               434
 number of contracted shell pairs         10664
 number of primitive shell pairs          23667
 maxK2 (contraction) of shell pair           36
 max number of K2 of shell pair               1
 max number of CS2 of shell pair           2029
 max number of PS2 of shell pair           3324
 mem total for path MDJ                  117498
 -------------------------------------------------------
 Smallest overlap matrix eigenvalue = 5.32E-07
 Linear dependence detected in AO basis
 Number of orthogonalized atomic orbitals = 419
 Maximum deviation from orthogonality = 1.181E-10

 Scale SEOQF with 1.000000e-01/1.000000e-01/1.000000e-01

 Standard Electronic Orientation quadrupole field applied
 Nucleus-field energy     =     0.0000000308 hartrees
 Guess from superposition of atomic densities
 Warning:  Energy on first SCF cycle will be non-variational
 A restricted hybrid HF-DFT SCF calculation will be
 performed using Pulay DIIS extrapolation
 Exchange:     0.2000 Hartree-Fock + 0.0800 Slater + 0.7200 B88
 Correlation:  0.1900 VWN1RPA + 0.8100 LYP
 Using SG-1 standard quadrature grid
 Dispersion:   Grimme D3
 SCF converges when DIIS error is below 1.0E-08
 using 4 threads for integral computing
 -------------------------------------------------------
 OpenMP Integral computing Module                
 Release: version 1.0, May 2013, Q-Chem Inc. Pittsburgh 
 -------------------------------------------------------
 -------------------------------------------------------
 OpenMP BLAS3 based DFT computing Module                
 Release: version 1.0, May 2013, Q-Chem Inc. Pittsburgh 
 -------------------------------------------------------
 ---------------------------------------
  Cycle       Energy         DIIS Error
 ---------------------------------------
    1    -546.3015337144      3.10E-02
    2    -542.9915895197      3.47E-03
    3    -542.9415933327      3.79E-03
    4    -543.2860019042      2.92E-04
    5    -543.2872936278      1.47E-04
    6    -543.2876625160      6.39E-05
    7    -543.2877448185      2.45E-05
    8    -543.2877594920      2.02E-06
    9    -543.2877595638      1.20E-06
   10    -543.2877595949      3.26E-07
   11    -543.2877595972      1.22E-07
   12    -543.2877595975      2.42E-08
   13    -543.2877595974      5.23E-09 Convergence criterion met
 ---------------------------------------
 SCF time:  CPU 332.39 s  wall 83.29 s
 SCF   energy in the final basis set = -543.28775960
 Total energy in the final basis set = -543.28775960
 
 --------------------------------------------------------------
 
                    Orbital Energies (a.u.)
 --------------------------------------------------------------
 
 Alpha MOs
 -- Occupied --
-10.182 -10.182 -10.171 -10.171 -10.169 -10.169 -10.168 -10.168
-10.168 -10.168 -10.166 -10.166 -10.166 -10.166  -0.855  -0.855
 -0.773  -0.773  -0.744  -0.744  -0.689  -0.689  -0.608  -0.608
 -0.588  -0.588  -0.518  -0.518  -0.462  -0.462  -0.460  -0.460
 -0.423  -0.421  -0.420  -0.420  -0.415  -0.415  -0.388  -0.388
 -0.355  -0.353  -0.348  -0.348  -0.340  -0.339  -0.252  -0.250
 -0.245  -0.243
 -- Virtual --
 -0.017  -0.013  -0.012  -0.010  -0.008   0.000   0.005   0.006
  0.017   0.022   0.023   0.027   0.038   0.039   0.044   0.048
  0.052   0.059   0.063   0.067   0.070   0.077   0.085   0.086
  0.089   0.102   0.105   0.107   0.109   0.111   0.117   0.118
  0.120   0.122   0.124   0.128   0.130   0.131   0.132   0.134
  0.134   0.135   0.138   0.143   0.149   0.150   0.152   0.154
  0.159   0.166   0.168   0.174   0.175   0.178   0.180   0.182
  0.182   0.188   0.190   0.194   0.196   0.211   0.212   0.214
  0.220   0.221   0.229   0.231   0.238   0.240   0.245   0.251
  0.255   0.261   0.262   0.263   0.271   0.273   0.274   0.281
  0.287   0.290   0.292   0.296   0.302   0.303   0.306   0.311
  0.312   0.319   0.327   0.329   0.347   0.350   0.356   0.360
  0.366   0.374   0.375   0.378   0.380   0.388   0.390   0.469
  0.476   0.480   0.498   0.518   0.530   0.533   0.538   0.540
  0.547   0.550   0.559   0.568   0.571   0.584   0.587   0.591
  0.595   0.608   0.611   0.618   0.622   0.627   0.632   0.638
  0.650   0.655   0.661   0.663   0.667   0.669   0.672   0.677
  0.689   0.690   0.697   0.707   0.715   0.729   0.732   0.733
  0.738   0.741   0.760   0.769   0.779   0.784   0.796   0.803
  0.809   0.830   0.839   0.855   0.855   0.869   0.874   0.890
  0.896   0.899   0.906   0.911   0.922   0.923   0.931   0.931
  0.938   0.944   0.946   0.966   0.977   1.004   1.016   1.018
  1.020   1.035   1.040   1.048   1.059   1.079   1.089   1.094
  1.106   1.127   1.130   1.147   1.151   1.321   1.333   1.359
  1.367   1.373   1.375   1.415   1.422   1.463   1.465   1.477
  1.484   1.531   1.539   1.540   1.546   1.552   1.556   1.562
  1.566   1.577   1.581   1.590   1.593   1.606   1.616   1.619
  1.627   1.642   1.657   1.659   1.669   1.677   1.684   1.715
  1.722   1.760   1.764   1.768   1.770   1.802   1.806   1.821
  1.826   1.842   1.852   1.858   1.867   1.899   1.902   1.918
  1.921   1.937   1.940   1.941   1.945   1.962   1.962   1.964
  1.966   2.026   2.029   2.033   2.036   2.040   2.044   2.102
  2.108   2.111   2.120   2.193   2.201   2.240   2.242   2.250
  2.255   2.322   2.326   2.402   2.405   2.413   2.420   2.445
  2.453   2.459   2.476   2.488   2.495   2.505   2.535   2.553
  2.557   2.564   2.567   2.589   2.615   2.635   2.641   2.673
  2.678   2.679   2.686   2.704   2.706   2.730   2.731   2.739
  2.743   2.749   2.758   2.762   2.769   2.772   2.784   2.795
  2.822   2.834   2.843   2.859   2.870   2.899   2.910   2.914
  2.923   2.941   2.945   2.953   2.958   2.996   3.005   3.006
  3.017   3.092   3.098   3.153   3.161   3.224   3.229   3.351
  3.361   3.386   3.398   3.511   3.521   3.545   3.554   3.654
  3.656   3.708   3.728   3.793   3.794   3.859   3.864   4.035
  4.039   4.123   4.125   4.186   4.191   4.203   4.209   4.344
  4.346   4.840   4.842  23.639  23.677  23.940  23.944  24.001
 24.007  24.008  24.017  24.098  24.099  24.111  24.111  24.207
 24.210
 --------------------------------------------------------------
 
          Ground-State Mulliken Net Atomic Charges

     Atom                 Charge (a.u.)
  ----------------------------------------
      1 C                    -0.053495
      2 C                    -0.423304
      3 C                    -0.320477
      4 C                    -0.099487
      5 C                    -0.645804
      6 C                     0.953065
      7 H                     0.142275
      8 H                     0.167201
      9 C                    -0.633697
     10 H                     0.146170
     11 H                     0.153928
     12 H                     0.145012
     13 H                     0.148524
     14 H                     0.157270
     15 H                     0.162394
     16 C                    -0.111790
     17 C                    -0.379704
     18 C                    -0.300331
     19 C                    -0.165560
     20 C                    -0.524304
     21 C                     0.894711
     22 H                     0.142949
     23 H                     0.168455
     24 C                    -0.644482
     25 H                     0.148116
     26 H                     0.157816
     27 H                     0.145171
     28 H                     0.148638
     29 H                     0.158691
     30 H                     0.162045
  ----------------------------------------
  Sum of atomic charges =     0.000000

 -----------------------------------------------------------------
                    Cartesian Multipole Moments
 -----------------------------------------------------------------
    Charge (ESU x 10^10)
                 0.0000
    Dipole Moment (Debye)
         X      -0.0072      Y       0.6657      Z       0.1320
       Tot       0.6787
    Quadrupole Moments (Debye-Ang)
        XX     -93.9177     XY       0.0405     YY     -77.1274
        XZ      -0.0304     YZ       0.0592     ZZ     -78.3946
    Octopole Moments (Debye-Ang^2)
       XXX      -0.5028    XXY      13.1871    XYY       0.0448
       YYY     -10.9792    XXZ       2.3954    XYZ      -0.0881
       YYZ       0.6273    XZZ       0.3953    YZZ      -1.6928
       ZZZ       0.2212
    Hexadecapole Moments (Debye-Ang^3)
      XXXX   -4059.5898   XXXY      -0.3556   XXYY    -788.9188
      XYYY       0.1506   YYYY   -1244.0335   XXXZ      -0.6647
      XXYZ       3.6828   XYYZ      -0.2154   YYYZ       0.3385
      XXZZ    -690.3832   XYZZ       1.5638   YYZZ    -298.8715
      XZZZ      -0.0568   YZZZ      -3.4952   ZZZZ    -579.5086
 -----------------------------------------------------------------
Archival summary:
1\1\vega01.cac.cornell.edu\SP\ProcedureUnspecified\BasisUnspecified\1416\jj585\TueApr1715:53:112018TueApr1715:53:112018\0\\#,ProcedureUnspecified,BasisUnspecified,\\0,1\C\C,1,1.39616\H,2,1.08475,1,118.991\C,2,1.38856,1,121.629,3,179.783,0\H,4,1.08495,2,119.453,1,179.671,0\C,4,1.3959,2,121.575,1,-0.129654,0\H,6,1.032,4,121.26,2,-179.84,0\C,6,1.40604,4,117.481,2,0.160349,0\H,8,1.032,6,119.504,4,179.742,0\C,1,1.40634,2,117.536,3,-179.6,0\H,10,1.032,1,119.607,2,179.72,0\C,1,1.50976,2,119.611,3,-0.341033,0\H,12,1.09144,1,110.135,2,-7.24194,0\H,12,1.09156,1,111.21,2,113.289,0\H,12,1.09291,1,111.796,2,-127.427,0\H,14,3.56783,12,151.238,1,-43.4514,0\C,16,1.09291,14,134.404,12,-19.3616,0\H,17,1.09144,16,108.09,14,-53.6386,0\H,17,1.09156,16,106.802,14,-170.408,0\C,17,1.50976,16,111.796,14,67.7368,0\C,20,1.39616,17,119.611,16,-127.427,0\H,21,1.08475,20,118.991,17,-0.341033,0\C,21,1.38856,20,121.629,17,179.442,0\H,23,1.08495,21,119.453,20,179.671,0\C,23,1.3959,21,121.575,20,-0.129654,0\H,25,1.032,23,121.26,21,-179.84,0\C,25,1.40604,23,117.481,21,0.160349,0\H,27,1.032,25,119.504,23,179.742,0\C,20,1.40634,17,122.848,16,51.7903,0\H,29,1.032,20,119.607,17,0.487832,0\\\@

 Total job time:  83.85s(wall), 334.31s(cpu) 
 Tue Apr 17 15:53:11 2018

        *************************************************************
        *                                                           *
        *  Thank you very much for using Q-Chem.  Have a nice day.  *
        *                                                           *
        *************************************************************


0 sent ACK to 0 
now end server 0 ... 
