mFile = /opt/software/qchem/qchem-5.0.1//bin/mpi/machines
Process 0 of 1 is on vega01.cac.cornell.edu - thread support 0
initial socket setup ...start
initial socket setup ...done 
now start server 0 ... 
localhost 127.0.0
Q-Chem Developer Version! Running on 127.0.0.*
                  Welcome to Q-Chem
     A Quantum Leap Into The Future Of Chemistry


 Q-Chem 5.0, Q-Chem, Inc., Pleasanton, CA (2017)

 Yihan Shao,  Zhengting Gan,  E. Epifanovsky,  A. T. B. Gilbert,  M. Wormit,  
 J. Kussmann,  A. W. Lange,  A. Behn,  Jia Deng,  Xintian Feng,  D. Ghosh,  
 M. Goldey,  P. R. Horn,  L. D. Jacobson,  I. Kaliman,  T. Kus,  A. Landau,  
 Jie Liu,  E. I. Proynov,  R. M. Richard,  R. P. Steele,  E. J. Sundstrom,  
 H. L. Woodcock III,  P. M. Zimmerman,  D. Zuev,  B. Albrecht,  E. Alguire,  
 S. A. Baeppler,  Z. Benda,  Y. A. Bernard,  E. J. Berquist,  K. B. Bravaya,  
 D. Casanova,  Chun-Min Chang,  Yunqing Chen,  A. Chien,  K. D. Closser,  
 M. P. Coons,  S. Dasgupta,  M. Diedenhofen,  Hainam Do,  R. G. Edgar,  
 Po-Tung Fang,  S. Fatehi,  Qingguo Feng,  Qinghui Ge,  A. Ghysels,  
 J. Gomes,  J. Gonthier,  A. Gunina,  M. W. D. Hanson-Heine,  
 P. H. P. Harbach,  A. W. Hauser,  J. E. Herr,  E. G. Hohenstein,  
 Z. C. Holden,  Kerwin Hui,  T.-C. Jagau,  Hyunjun Ji,  B. Kaduk,  
 K. Khistyaev,  Jaehoon Kim,  P. Klunzinger,  K. Koh,  D. Kosenkov,  
 T. Kowalczyk,  C. M. Krauter,  A. Kunitsa,  Ka Un Lao,  A. Laurent,  
 K. V. Lawler,  Joonho Lee,  D. Lefrancois,  S. Lehtola,  D. S. Levine,  
 Yi-Pei Li,  You-Sheng Lin,  Fenglai Liu,  E. Livshits,  A. Luenser,  
 P. Manohar,  E. Mansoor,  S. F. Manzer,  Shan-Ping Mao,  Yuezhi Mao,  
 N. Mardirossian,  A. V. Marenich,  L. A. Martinez-Martinez,  S. A. Maurer,  
 N. J. Mayhall,  S. C. McKenzie,  J.-M. Mewes,  A. F. Morrison,  K. Nanda,  
 T. S. Nguyen-Beck,  R. Olivares-Amaya,  J. A. Parkhill,  T. M. Perrine,  
 F. Plasser,  S. Prager,  A. Prociuk,  D. R. Rehn,  F. Rob,  M. Schneider,  
 N. Sergueev,  S. M. Sharada,  S. Sharma,  D. W. Small,  T. Stauch,  
 T. Stein,  Yu-Chuan Su,  A. J. W. Thom,  T. Tsuchimochi,  L. Vogt,  
 O. Vydrov,  M. A. Watson,  J. Wenzel,  M. de Wergifosse,  T. A. Wesolowski,  
 A. White,  J. Witte,  A. Yamada,  Jun Yang,  K. Yao,  S. Yeganeh,  
 S. R. Yost,  Zhi-Qiang You,  A. Zech,  Igor Ying Zhang,  Xing Zhang,  
 Yan Zhao,  Ying Zhu,  B. R. Brooks,  G. K. L. Chan,  C. J. Cramer,  
 M. S. Gordon,  W. J. Hehre,  A. Klamt,  M. W. Schmidt,  C. D. Sherrill,  
 D. G. Truhlar,  A. Aspuru-Guzik,  R. Baer,  A. T. Bell,  N. A. Besley,  
 Jeng-Da Chai,  A. Dreuw,  B. D. Dunietz,  T. R. Furlani,  Chao-Ping Hsu,  
 Yousung Jung,  Jing Kong,  D. S. Lambrecht,  WanZhen Liang,  C. Ochsenfeld,  
 V. A. Rassolov,  L. V. Slipchenko,  J. E. Subotnik,  T. Van Voorhis,  
 J. M. Herbert,  A. I. Krylov,  P. M. W. Gill,  M. Head-Gordon

 Contributors to earlier versions of Q-Chem not listed above: 
 R. D. Adamson,  B. Austin,  J. Baker,  G. J. O. Beran,  K. Brandhorst,  
 S. T. Brown,  E. F. C. Byrd,  A. K. Chakraborty,  C.-L. Cheng,  
 Siu Hung Chien,  D. M. Chipman,  D. L. Crittenden,  H. Dachsel,  
 R. A. DiStasio Jr.,  R. J. Doerksen,  A. D. Dutoi,  L. Fusti-Molnar,  
 W. A. Goddard III,  A. Golubeva-Zadorozhnaya,  S. R. Gwaltney,  G. Hawkins,  
 A. Heyden,  S. Hirata,  G. Kedziora,  F. J. Keil,  C. Kelley,  Jihan Kim,  
 R. A. King,  R. Z. Khaliullin,  P. P. Korambath,  W. Kurlancheek,  
 A. M. Lee,  M. S. Lee,  S. V. Levchenko,  Ching Yeh Lin,  D. Liotard,  
 R. C. Lochan,  I. Lotan,  P. E. Maslen,  N. Nair,  D. P. O'Neill,  
 D. Neuhauser,  E. Neuscamman,  C. M. Oana,  R. Olson,  B. Peters,  
 R. Peverati,  P. A. Pieniazek,  Y. M. Rhee,  J. Ritchie,  M. A. Rohrdanz,  
 E. Rosta,  N. J. Russ,  H. F. Schaefer III,  N. E. Schultz,  N. Shenvi,  
 A. C. Simmonett,  A. Sodt,  D. Stuck,  K. S. Thanthiriwatte,  V. Vanovschi,  
 Tao Wang,  A. Warshel,  C. F. Williams,  Q. Wu,  X. Xu,  W. Zhang

 Please cite Q-Chem as follows:
 Y. Shao et al., Mol. Phys. 113, 184-215 (2015)
 DOI: 10.1080/00268976.2014.952696

 Q-Chem 5.0.1 for Intel X86 EM64T Linux

 Parts of Q-Chem use Armadillo 5.200.1 (Boston Tea Smuggler).
 http://arma.sourceforge.net/

 Q-Chem begins on Tue Apr 17 15:44:12 2018  

Host: vega01.cac.cornell.edu
0

     Scratch files written to /scratch/jj585/vdw/01n00_distance_4.100_10.save//
 Parallel job on  1  processors

Checking the input file for inconsistencies... 	...done.

--------------------------------------------------------------
User input:
--------------------------------------------------------------
$molecule
0  1
C        -0.54444000        -0.68370000        -0.06689000
C        -0.55709000        +0.71878000        +0.05493000
C        -1.74320000        -1.41616000        -0.12552000
C        -2.93952000        -0.70056000        -0.05285000
C        -2.95313000        +0.68255000        +0.06934000
C        -1.77161000        +1.42404000        +0.12810000
H        -3.90354000        +1.20325000        +0.11710000
H        -3.87892000        -1.24211000        -0.08988000
C        -1.83960000        +2.92746000        +0.24839000
H        -1.24214000        +3.42352000        -0.52065000
H        -1.45503000        +3.26427000        +1.21284000
H        -2.87211000        +3.26623000        +0.14638000
H        -1.73878000        -2.44393000        -0.21875000
H        +0.35825000        -1.18166000        -0.11386000
H        +0.33551000        +1.23549000        +0.09097000
@C        -0.51623000        -1.04119000        +4.01740000
@C        -0.52888000        +0.36129000        +4.13922000
@C        -1.71499000        -1.77365000        +3.95877000
@C        -2.91131000        -1.05805000        +4.03144000
@C        -2.92492000        +0.32506000        +4.15363000
@C        -1.74340000        +1.06655000        +4.21239000
@H        -3.87533000        +0.84576000        +4.20139000
@H        -3.85071000        -1.59960000        +3.99441000
@C        -1.81139000        +2.56997000        +4.33268000
@H        -1.21393000        +3.06603000        +3.56364000
@H        -1.42682000        +2.90678000        +5.29713000
@H        -2.84390000        +2.90874000        +4.23067000
@H        -1.71057000        -2.80142000        +3.86554000
@H        +0.38646000        -1.53915000        +3.97043000
@H        +0.36372000        +0.87800000        +4.17526000
$end

$rem
JOBTYPE                   SP
METHOD                    B3LYP
DFT_D                     d3_op
BASIS                     6-311++G(d,p)
SYMMETRY                  False
THRESH                    12
SCF_CONVERGENCE           8
MAX_SUB_FILE_NUM          128
MEM_STATIC                400
MEM_TOTAL                 4000
$end
--------------------------------------------------------------
 Adding empirical dispersion correction 
 ----------------------------------------------------------------
 Doing -D3(op) with
 s6 =   1.00000
 s8 =   0.78311
 a1 =   0.30000
 a2 =   4.25000
 n  =  10.00000
 -D3 energy without 3body term =     -0.0113800034 hartrees
 ----------------------------------------------------------------
             Standard Nuclear Orientation (Angstroms)
    I     Atom           X                Y                Z
 ----------------------------------------------------------------
    1      C      -0.5444400000    -0.6837000000    -0.0668900000
    2      C      -0.5570900000     0.7187800000     0.0549300000
    3      C      -1.7432000000    -1.4161600000    -0.1255200000
    4      C      -2.9395200000    -0.7005600000    -0.0528500000
    5      C      -2.9531300000     0.6825500000     0.0693400000
    6      C      -1.7716100000     1.4240400000     0.1281000000
    7      H      -3.9035400000     1.2032500000     0.1171000000
    8      H      -3.8789200000    -1.2421100000    -0.0898800000
    9      C      -1.8396000000     2.9274600000     0.2483900000
   10      H      -1.2421400000     3.4235200000    -0.5206500000
   11      H      -1.4550300000     3.2642700000     1.2128400000
   12      H      -2.8721100000     3.2662300000     0.1463800000
   13      H      -1.7387800000    -2.4439300000    -0.2187500000
   14      H       0.3582500000    -1.1816600000    -0.1138600000
   15      H       0.3355100000     1.2354900000     0.0909700000
   16      GH     -0.5162300000    -1.0411900000     4.0174000000
   17      GH     -0.5288800000     0.3612900000     4.1392200000
   18      GH     -1.7149900000    -1.7736500000     3.9587700000
   19      GH     -2.9113100000    -1.0580500000     4.0314400000
   20      GH     -2.9249200000     0.3250600000     4.1536300000
   21      GH     -1.7434000000     1.0665500000     4.2123900000
   22      GH     -3.8753300000     0.8457600000     4.2013900000
   23      GH     -3.8507100000    -1.5996000000     3.9944100000
   24      GH     -1.8113900000     2.5699700000     4.3326800000
   25      GH     -1.2139300000     3.0660300000     3.5636400000
   26      GH     -1.4268200000     2.9067800000     5.2971300000
   27      GH     -2.8439000000     2.9087400000     4.2306700000
   28      GH     -1.7105700000    -2.8014200000     3.8655400000
   29      GH      0.3864600000    -1.5391500000     3.9704300000
   30      GH      0.3637200000     0.8780000000     4.1752600000
 ----------------------------------------------------------------
 Nuclear Repulsion Energy =   269.2168625664 hartrees
 There are       25 alpha and       25 beta electrons
 Requested basis set is 6-311++G(d,p)
 There are 164 shells and 420 basis functions

 Total QAlloc Memory Limit   4000 MB
 Mega-Array Size       392 MB
 MEM_STATIC part       400 MB
 A cutoff of  1.0D-12 yielded  11361 shell pairs
 There are     75900 function pairs (     80956 Cartesian)
 
 -------------------------------------------------------
 OpenMP Integral Computing Module                       
 Release: version 1.0, May 2013, Q-Chem Inc. Pittsburgh 
 -------------------------------------------------------
 Integral Job Info:
 Integral job number is                      11
 Integral operator is                         1
 short-range coefficients                     0
 long-range coefficients              100000000
 Omega coefficients                           0
 if combine SR and LR in K                    0
 Integral screening is                        0
 Integral computing path is                   2
 max size of driver memory is            800000
 size of driver memory is                593474
 size of scratch memory is              2361544
 max col of scratch BK array               1296
 max len of scratch array in speh3          155
 max len of scratch index in speh4           18
 max int batch size is                      520
 min int batch size is                       52
 fixed nKL is                                52
 max L of basis functions is                  2
 order of int derivative is                   0
 number of shells is                        164
 number of basis is                         434
 number of cartesian basis is               434
 number of contracted shell pairs         11361
 number of primitive shell pairs          24818
 maxK2 (contraction) of shell pair           36
 max number of K2 of shell pair               1
 max number of CS2 of shell pair           2147
 max number of PS2 of shell pair           3564
 mem total for path MDJ                  130616
 -------------------------------------------------------
 Smallest overlap matrix eigenvalue = 2.37E-07
 Linear dependence detected in AO basis
 Number of orthogonalized atomic orbitals = 418
 Maximum deviation from orthogonality = 3.713E-11

 Scale SEOQF with 1.000000e-01/1.000000e-01/1.000000e-02

 Standard Electronic Orientation quadrupole field applied
 Nucleus-field energy     =     0.0000000169 hartrees
 Guess from superposition of atomic densities
 Warning:  Energy on first SCF cycle will be non-variational

 Q-Chem warning in module /opt/software/qchem/qchem-5.0.1/libgen/Atomic_PolEc.C, line 58:

 No atomic polarizability available.


 Q-Chem warning in module /opt/software/qchem/qchem-5.0.1/libgen/Atomic_PolEc.C, line 73:

 No atomic polarizability available.


 Q-Chem warning in module /opt/software/qchem/qchem-5.0.1/libgen/Atomic_PolEc.C, line 58:

 No atomic polarizability available.


 Q-Chem warning in module /opt/software/qchem/qchem-5.0.1/libgen/Atomic_PolEc.C, line 73:

 No atomic polarizability available.


 Q-Chem warning in module /opt/software/qchem/qchem-5.0.1/libgen/Atomic_PolEc.C, line 58:

 No atomic polarizability available.


 Q-Chem warning in module /opt/software/qchem/qchem-5.0.1/libgen/Atomic_PolEc.C, line 73:

 No atomic polarizability available.


 Q-Chem warning in module /opt/software/qchem/qchem-5.0.1/libgen/Atomic_PolEc.C, line 58:

 No atomic polarizability available.


 Q-Chem warning in module /opt/software/qchem/qchem-5.0.1/libgen/Atomic_PolEc.C, line 73:

 No atomic polarizability available.


 Q-Chem warning in module /opt/software/qchem/qchem-5.0.1/libgen/Atomic_PolEc.C, line 58:

 No atomic polarizability available.


 Q-Chem warning in module /opt/software/qchem/qchem-5.0.1/libgen/Atomic_PolEc.C, line 73:

 No atomic polarizability available.


 Q-Chem warning in module /opt/software/qchem/qchem-5.0.1/libgen/Atomic_PolEc.C, line 58:

 No atomic polarizability available.


 Q-Chem warning in module /opt/software/qchem/qchem-5.0.1/libgen/Atomic_PolEc.C, line 73:

 No atomic polarizability available.


 Q-Chem warning in module /opt/software/qchem/qchem-5.0.1/libgen/Atomic_PolEc.C, line 58:

 No atomic polarizability available.


 Q-Chem warning in module /opt/software/qchem/qchem-5.0.1/libgen/Atomic_PolEc.C, line 73:

 No atomic polarizability available.


 Q-Chem warning in module /opt/software/qchem/qchem-5.0.1/libgen/Atomic_PolEc.C, line 58:

 No atomic polarizability available.


 Q-Chem warning in module /opt/software/qchem/qchem-5.0.1/libgen/Atomic_PolEc.C, line 73:

 No atomic polarizability available.


 Q-Chem warning in module /opt/software/qchem/qchem-5.0.1/libgen/Atomic_PolEc.C, line 58:

 No atomic polarizability available.


 Q-Chem warning in module /opt/software/qchem/qchem-5.0.1/libgen/Atomic_PolEc.C, line 73:

 No atomic polarizability available.


 Q-Chem warning in module /opt/software/qchem/qchem-5.0.1/libgen/Atomic_PolEc.C, line 58:

 No atomic polarizability available.


 Q-Chem warning in module /opt/software/qchem/qchem-5.0.1/libgen/Atomic_PolEc.C, line 73:

 No atomic polarizability available.


 Q-Chem warning in module /opt/software/qchem/qchem-5.0.1/libgen/Atomic_PolEc.C, line 58:

 No atomic polarizability available.


 Q-Chem warning in module /opt/software/qchem/qchem-5.0.1/libgen/Atomic_PolEc.C, line 73:

 No atomic polarizability available.


 Q-Chem warning in module /opt/software/qchem/qchem-5.0.1/libgen/Atomic_PolEc.C, line 58:

 No atomic polarizability available.


 Q-Chem warning in module /opt/software/qchem/qchem-5.0.1/libgen/Atomic_PolEc.C, line 73:

 No atomic polarizability available.


 Q-Chem warning in module /opt/software/qchem/qchem-5.0.1/libgen/Atomic_PolEc.C, line 58:

 No atomic polarizability available.


 Q-Chem warning in module /opt/software/qchem/qchem-5.0.1/libgen/Atomic_PolEc.C, line 73:

 No atomic polarizability available.


 Q-Chem warning in module /opt/software/qchem/qchem-5.0.1/libgen/Atomic_PolEc.C, line 58:

 No atomic polarizability available.


 Q-Chem warning in module /opt/software/qchem/qchem-5.0.1/libgen/Atomic_PolEc.C, line 73:

 No atomic polarizability available.


 Q-Chem warning in module /opt/software/qchem/qchem-5.0.1/libgen/Atomic_PolEc.C, line 58:

 No atomic polarizability available.


 Q-Chem warning in module /opt/software/qchem/qchem-5.0.1/libgen/Atomic_PolEc.C, line 73:

 No atomic polarizability available.

 A restricted hybrid HF-DFT SCF calculation will be
 performed using Pulay DIIS extrapolation
 Exchange:     0.2000 Hartree-Fock + 0.0800 Slater + 0.7200 B88
 Correlation:  0.1900 VWN1RPA + 0.8100 LYP
 Using SG-1 standard quadrature grid
 Dispersion:   Grimme D3
 SCF converges when DIIS error is below 1.0E-08
 using 4 threads for integral computing
 -------------------------------------------------------
 OpenMP Integral computing Module                
 Release: version 1.0, May 2013, Q-Chem Inc. Pittsburgh 
 -------------------------------------------------------
 -------------------------------------------------------
 OpenMP BLAS3 based DFT computing Module                
 Release: version 1.0, May 2013, Q-Chem Inc. Pittsburgh 
 -------------------------------------------------------
 ---------------------------------------
  Cycle       Energy         DIIS Error
 ---------------------------------------
    1    -273.1499870399      2.19E-02
    2    -271.4966479218      2.45E-03
    3    -271.4744915491      2.66E-03
    4    -271.6429056481      2.01E-04
    5    -271.6435130979      1.02E-04
    6    -271.6436903427      4.38E-05
    7    -271.6437291401      1.60E-05
    8    -271.6437353247      1.32E-06
    9    -271.6437353546      7.99E-07
   10    -271.6437353685      1.87E-07
   11    -271.6437353692      8.05E-08
   12    -271.6437353694      1.00E-08
   13    -271.6437353694      1.51E-09 Convergence criterion met
 ---------------------------------------
 SCF time:  CPU 378.34 s  wall 94.81 s
 SCF   energy in the final basis set = -271.64373537
 Total energy in the final basis set = -271.64373537
 
 --------------------------------------------------------------
 
                    Orbital Energies (a.u.)
 --------------------------------------------------------------
 
 Alpha MOs
 -- Occupied --
-10.185 -10.174 -10.172 -10.171 -10.170 -10.169 -10.169  -0.858
 -0.776  -0.747  -0.691  -0.611  -0.591  -0.521  -0.465  -0.462
 -0.424  -0.423  -0.418  -0.390  -0.358  -0.350  -0.342  -0.255
 -0.247
 -- Virtual --
 -0.017  -0.013  -0.008   0.005   0.009   0.019   0.028   0.031
  0.036   0.040   0.050   0.054   0.058   0.063   0.065   0.067
  0.078   0.084   0.089   0.092   0.095   0.102   0.105   0.109
  0.111   0.114   0.119   0.122   0.125   0.128   0.131   0.132
  0.138   0.141   0.144   0.147   0.155   0.160   0.161   0.165
  0.170   0.172   0.173   0.177   0.180   0.180   0.185   0.186
  0.195   0.197   0.204   0.212   0.213   0.216   0.217   0.223
  0.228   0.233   0.235   0.243   0.245   0.250   0.251   0.257
  0.265   0.266   0.271   0.275   0.278   0.280   0.284   0.292
  0.296   0.301   0.304   0.310   0.314   0.323   0.328   0.334
  0.337   0.341   0.357   0.367   0.372   0.374   0.380   0.396
  0.401   0.412   0.420   0.427   0.438   0.441   0.453   0.459
  0.472   0.477   0.485   0.502   0.511   0.517   0.523   0.545
  0.547   0.549   0.554   0.570   0.575   0.586   0.593   0.601
  0.612   0.615   0.619   0.619   0.622   0.635   0.637   0.638
  0.648   0.655   0.660   0.664   0.667   0.691   0.705   0.709
  0.715   0.728   0.732   0.738   0.747   0.753   0.763   0.773
  0.776   0.792   0.806   0.814   0.826   0.845   0.854   0.862
  0.882   0.892   0.897   0.908   0.928   0.931   0.939   0.943
  0.954   0.964   0.973   1.007   1.016   1.017   1.034   1.052
  1.063   1.081   1.102   1.111   1.130   1.131   1.150   1.157
  1.172   1.187   1.204   1.220   1.271   1.340   1.369   1.378
  1.409   1.431   1.439   1.448   1.457   1.478   1.502   1.507
  1.524   1.531   1.534   1.544   1.551   1.555   1.562   1.569
  1.581   1.587   1.608   1.623   1.629   1.654   1.666   1.680
  1.697   1.709   1.718   1.727   1.730   1.742   1.749   1.759
  1.770   1.773   1.786   1.796   1.808   1.811   1.831   1.852
  1.864   1.868   1.874   1.888   1.898   1.906   1.907   1.939
  1.942   1.950   1.958   1.962   1.969   1.972   1.986   2.010
  2.030   2.039   2.045   2.045   2.051   2.068   2.103   2.110
  2.120   2.142   2.165   2.204   2.244   2.252   2.255   2.305
  2.315   2.320   2.325   2.331   2.385   2.403   2.407   2.415
  2.419   2.421   2.442   2.452   2.483   2.489   2.495   2.499
  2.530   2.537   2.545   2.564   2.566   2.576   2.586   2.595
  2.621   2.632   2.649   2.677   2.691   2.714   2.728   2.738
  2.743   2.752   2.760   2.770   2.782   2.815   2.835   2.841
  2.869   2.898   2.906   2.913   2.922   2.932   2.950   2.955
  2.986   2.991   3.000   3.003   3.020   3.041   3.097   3.114
  3.157   3.171   3.201   3.227   3.245   3.280   3.334   3.355
  3.377   3.385   3.400   3.412   3.443   3.473   3.493   3.518
  3.526   3.547   3.558   3.581   3.591   3.625   3.656   3.665
  3.714   3.727   3.792   3.798   3.865   4.011   4.036   4.040
  4.123   4.182   4.188   4.206   4.344   4.636   4.733   4.836
  4.838   4.867   4.923   4.963   5.103   5.209   5.647   7.068
  7.113   7.149   7.209   7.226   7.360   7.616   7.723   7.726
  7.755   7.766   7.785   7.826   7.837   7.872   7.975   8.026
  8.047   8.165   8.478   8.905   9.710   9.995  10.183  10.203
 10.234  10.242  10.304  23.680  23.943  24.005  24.018  24.097
 24.109  24.206  69.932  69.967  70.144  70.151  70.172  70.175
 70.218
 --------------------------------------------------------------
 
          Ground-State Mulliken Net Atomic Charges

     Atom                 Charge (a.u.)
  ----------------------------------------
      1 C                    -0.186126
      2 C                    -0.265622
      3 C                    -0.268836
      4 C                    -0.283792
      5 C                    -0.238114
      6 C                     0.676566
      7 H                     0.158139
      8 H                     0.167777
      9 C                    -0.715275
     10 H                     0.150321
     11 H                     0.171380
     12 H                     0.141377
     13 H                     0.147872
     14 H                     0.160749
     15 H                     0.170889
     16 GH                   -0.023029
     17 GH                    0.043976
     18 GH                    0.006374
     19 GH                    0.005121
     20 GH                   -0.035974
     21 GH                   -0.016437
     22 GH                    0.001874
     23 GH                    0.004788
     24 GH                    0.019519
     25 GH                   -0.006648
     26 GH                   -0.000402
     27 GH                    0.001588
     28 GH                    0.002651
     29 GH                    0.003466
     30 GH                    0.005827
  ----------------------------------------
  Sum of atomic charges =     0.000000

 -----------------------------------------------------------------
                    Cartesian Multipole Moments
 -----------------------------------------------------------------
    Charge (ESU x 10^10)
                 0.0000
    Dipole Moment (Debye)
         X       0.0611      Y       0.3878      Z       0.0426
       Tot       0.3949
    Quadrupole Moments (Debye-Ang)
        XX     -39.3949     XY      -0.6307     YY     -38.1148
        XZ      -0.1073     YZ       0.7200     ZZ     -46.3723
    Octopole Moments (Debye-Ang^2)
       XXX     208.7653    XXY     -19.5341    XYY      67.9302
       YYY     -62.7974    XXZ      -1.6824    XYZ      -1.2358
       YYZ      -2.0807    XZZ      82.6739    YZZ     -19.5940
       ZZZ      -4.8446
    Hexadecapole Moments (Debye-Ang^3)
      XXXX   -1028.5379   XXXY     110.3985   XXYY    -280.4998
      XYYY     117.0955   YYYY    -684.7000   XXXZ      10.5755
      XXYZ      -6.4497   XYYZ       3.8773   YYYZ     -25.5226
      XXZZ    -217.3484   XYZZ      38.0760   YYZZ    -130.4829
      XZZZ      10.3883   YZZZ     -27.3480   ZZZZ     -68.1282
 -----------------------------------------------------------------
Archival summary:
1\1\vega01.cac.cornell.edu\SP\ProcedureUnspecified\BasisUnspecified\78h15\jj585\TueApr1715:45:482018TueApr1715:45:482018\0\\#,ProcedureUnspecified,BasisUnspecified,\\0,1\C\C,1,1.39616\H,2,1.08475,1,118.991\C,2,1.38856,1,121.629,3,179.783,0\H,4,1.08495,2,119.453,1,179.671,0\C,4,1.3959,2,121.575,1,-0.129654,0\H,6,1.032,4,121.26,2,-179.84,0\C,6,1.40604,4,117.481,2,0.160349,0\H,8,1.032,6,119.504,4,179.742,0\C,1,1.40634,2,117.536,3,-179.6,0\H,10,1.032,1,119.607,2,179.72,0\C,1,1.50976,2,119.611,3,-0.341033,0\H,12,1.09144,1,110.135,2,-7.24194,0\H,12,1.09156,1,111.21,2,113.289,0\H,12,1.09291,1,111.796,2,-127.427,0\Gh,14,2.37143,12,152.361,1,-40.3975,0\Gh,16,1.09291,14,132.836,12,-22.9496,0\Gh,17,1.09144,16,108.09,14,-52.3396,0\Gh,17,1.09156,16,106.802,14,-169.109,0\Gh,17,1.50976,16,111.796,14,69.0359,0\Gh,20,1.39616,17,119.611,16,-127.427,0\Gh,21,1.08475,20,118.991,17,-0.341033,0\Gh,21,1.38856,20,121.629,17,179.442,0\Gh,23,1.08495,21,119.453,20,179.671,0\Gh,23,1.3959,21,121.575,20,-0.129654,0\Gh,25,1.032,23,121.26,21,-179.84,0\Gh,25,1.40604,23,117.481,21,0.160349,0\Gh,27,1.032,25,119.504,23,179.742,0\Gh,20,1.40634,17,122.848,16,51.7903,0\Gh,29,1.032,20,119.607,17,0.487832,0\\\@

 Total job time:  95.40s(wall), 380.34s(cpu) 
 Tue Apr 17 15:45:48 2018

        *************************************************************
        *                                                           *
        *  Thank you very much for using Q-Chem.  Have a nice day.  *
        *                                                           *
        *************************************************************


0 sent ACK to 0 
now end server 0 ... 
