mFile = /opt/software/qchem/qchem-5.0.1//bin/mpi/machines
Process 0 of 1 is on vega02.cac.cornell.edu - thread support 0
initial socket setup ...start
initial socket setup ...done 
now start server 0 ... 
vega02.cac.cornell.edu 10.84.3
Q-Chem Developer Version! Running on 10.84.3.*
                  Welcome to Q-Chem
     A Quantum Leap Into The Future Of Chemistry


 Q-Chem 5.0, Q-Chem, Inc., Pleasanton, CA (2017)

 Yihan Shao,  Zhengting Gan,  E. Epifanovsky,  A. T. B. Gilbert,  M. Wormit,  
 J. Kussmann,  A. W. Lange,  A. Behn,  Jia Deng,  Xintian Feng,  D. Ghosh,  
 M. Goldey,  P. R. Horn,  L. D. Jacobson,  I. Kaliman,  T. Kus,  A. Landau,  
 Jie Liu,  E. I. Proynov,  R. M. Richard,  R. P. Steele,  E. J. Sundstrom,  
 H. L. Woodcock III,  P. M. Zimmerman,  D. Zuev,  B. Albrecht,  E. Alguire,  
 S. A. Baeppler,  Z. Benda,  Y. A. Bernard,  E. J. Berquist,  K. B. Bravaya,  
 D. Casanova,  Chun-Min Chang,  Yunqing Chen,  A. Chien,  K. D. Closser,  
 M. P. Coons,  S. Dasgupta,  M. Diedenhofen,  Hainam Do,  R. G. Edgar,  
 Po-Tung Fang,  S. Fatehi,  Qingguo Feng,  Qinghui Ge,  A. Ghysels,  
 J. Gomes,  J. Gonthier,  A. Gunina,  M. W. D. Hanson-Heine,  
 P. H. P. Harbach,  A. W. Hauser,  J. E. Herr,  E. G. Hohenstein,  
 Z. C. Holden,  Kerwin Hui,  T.-C. Jagau,  Hyunjun Ji,  B. Kaduk,  
 K. Khistyaev,  Jaehoon Kim,  P. Klunzinger,  K. Koh,  D. Kosenkov,  
 T. Kowalczyk,  C. M. Krauter,  A. Kunitsa,  Ka Un Lao,  A. Laurent,  
 K. V. Lawler,  Joonho Lee,  D. Lefrancois,  S. Lehtola,  D. S. Levine,  
 Yi-Pei Li,  You-Sheng Lin,  Fenglai Liu,  E. Livshits,  A. Luenser,  
 P. Manohar,  E. Mansoor,  S. F. Manzer,  Shan-Ping Mao,  Yuezhi Mao,  
 N. Mardirossian,  A. V. Marenich,  L. A. Martinez-Martinez,  S. A. Maurer,  
 N. J. Mayhall,  S. C. McKenzie,  J.-M. Mewes,  A. F. Morrison,  K. Nanda,  
 T. S. Nguyen-Beck,  R. Olivares-Amaya,  J. A. Parkhill,  T. M. Perrine,  
 F. Plasser,  S. Prager,  A. Prociuk,  D. R. Rehn,  F. Rob,  M. Schneider,  
 N. Sergueev,  S. M. Sharada,  S. Sharma,  D. W. Small,  T. Stauch,  
 T. Stein,  Yu-Chuan Su,  A. J. W. Thom,  T. Tsuchimochi,  L. Vogt,  
 O. Vydrov,  M. A. Watson,  J. Wenzel,  M. de Wergifosse,  T. A. Wesolowski,  
 A. White,  J. Witte,  A. Yamada,  Jun Yang,  K. Yao,  S. Yeganeh,  
 S. R. Yost,  Zhi-Qiang You,  A. Zech,  Igor Ying Zhang,  Xing Zhang,  
 Yan Zhao,  Ying Zhu,  B. R. Brooks,  G. K. L. Chan,  C. J. Cramer,  
 M. S. Gordon,  W. J. Hehre,  A. Klamt,  M. W. Schmidt,  C. D. Sherrill,  
 D. G. Truhlar,  A. Aspuru-Guzik,  R. Baer,  A. T. Bell,  N. A. Besley,  
 Jeng-Da Chai,  A. Dreuw,  B. D. Dunietz,  T. R. Furlani,  Chao-Ping Hsu,  
 Yousung Jung,  Jing Kong,  D. S. Lambrecht,  WanZhen Liang,  C. Ochsenfeld,  
 V. A. Rassolov,  L. V. Slipchenko,  J. E. Subotnik,  T. Van Voorhis,  
 J. M. Herbert,  A. I. Krylov,  P. M. W. Gill,  M. Head-Gordon

 Contributors to earlier versions of Q-Chem not listed above: 
 R. D. Adamson,  B. Austin,  J. Baker,  G. J. O. Beran,  K. Brandhorst,  
 S. T. Brown,  E. F. C. Byrd,  A. K. Chakraborty,  C.-L. Cheng,  
 Siu Hung Chien,  D. M. Chipman,  D. L. Crittenden,  H. Dachsel,  
 R. A. DiStasio Jr.,  R. J. Doerksen,  A. D. Dutoi,  L. Fusti-Molnar,  
 W. A. Goddard III,  A. Golubeva-Zadorozhnaya,  S. R. Gwaltney,  G. Hawkins,  
 A. Heyden,  S. Hirata,  G. Kedziora,  F. J. Keil,  C. Kelley,  Jihan Kim,  
 R. A. King,  R. Z. Khaliullin,  P. P. Korambath,  W. Kurlancheek,  
 A. M. Lee,  M. S. Lee,  S. V. Levchenko,  Ching Yeh Lin,  D. Liotard,  
 R. C. Lochan,  I. Lotan,  P. E. Maslen,  N. Nair,  D. P. O'Neill,  
 D. Neuhauser,  E. Neuscamman,  C. M. Oana,  R. Olson,  B. Peters,  
 R. Peverati,  P. A. Pieniazek,  Y. M. Rhee,  J. Ritchie,  M. A. Rohrdanz,  
 E. Rosta,  N. J. Russ,  H. F. Schaefer III,  N. E. Schultz,  N. Shenvi,  
 A. C. Simmonett,  A. Sodt,  D. Stuck,  K. S. Thanthiriwatte,  V. Vanovschi,  
 Tao Wang,  A. Warshel,  C. F. Williams,  Q. Wu,  X. Xu,  W. Zhang

 Please cite Q-Chem as follows:
 Y. Shao et al., Mol. Phys. 113, 184-215 (2015)
 DOI: 10.1080/00268976.2014.952696

 Q-Chem 5.0.1 for Intel X86 EM64T Linux

 Parts of Q-Chem use Armadillo 5.200.1 (Boston Tea Smuggler).
 http://arma.sourceforge.net/

 Q-Chem begins on Wed Apr 18 00:29:07 2018  

Host: vega02.cac.cornell.edu
0

     Scratch files written to /scratch/jj585/vdw/01n00_distance_4.100_11.save//
 Parallel job on  1  processors

Checking the input file for inconsistencies... 	...done.

--------------------------------------------------------------
User input:
--------------------------------------------------------------
$molecule
0  1
--
0  1
C        -0.55335000        -0.66344000        -0.04955000
C        -0.58369000        +0.72363000        +0.07143000
C        -1.74416000        -1.38805000        -0.12104000
C        -2.96100000        -0.71253000        -0.06974000
C        -2.98560000        +0.67733000        +0.05133000
C        -1.80096000        +1.41593000        +0.12202000
H        -3.93869000        +1.19496000        +0.09042000
H        -3.89285000        -1.26490000        -0.12448000
C        -1.82561000        +2.92062000        +0.24749000
H        -1.30124000        +3.39464000        -0.58804000
H        -1.33421000        +3.24931000        +1.16844000
H        -2.84892000        +3.30103000        +0.25949000
H        -1.72216000        -2.46788000        -0.21620000
H        +0.39889000        -1.18111000        -0.08841000
H        +0.34820000        +1.27792000        +0.12648000
--
0  1
C        -0.58049000        -1.01999000        +4.03483000
C        -0.61083000        +0.36708000        +4.15581000
C        -1.77130000        -1.74460000        +3.96334000
C        -2.98814000        -1.06908000        +4.01464000
C        -3.01274000        +0.32078000        +4.13571000
C        -1.82810000        +1.05938000        +4.20640000
H        -3.96583000        +0.83841000        +4.17480000
H        -3.91999000        -1.62145000        +3.95990000
C        -1.85275000        +2.56407000        +4.33187000
H        -1.32838000        +3.03809000        +3.49634000
H        -1.36135000        +2.89276000        +5.25282000
H        -2.87606000        +2.94448000        +4.34387000
H        -1.74930000        -2.82443000        +3.86818000
H        +0.37175000        -1.53766000        +3.99597000
H        +0.32106000        +0.92137000        +4.21086000
$end

$rem
JOBTYPE                   SP
METHOD                    B3LYP
DFT_D                     d3_op
BASIS                     6-311++G(d,p)
SYMMETRY                  False
THRESH                    12
SCF_CONVERGENCE           8
MAX_SUB_FILE_NUM          128
MEM_STATIC                400
MEM_TOTAL                 4000
$end
--------------------------------------------------------------
 Adding empirical dispersion correction 
 ----------------------------------------------------------------
 Doing -D3(op) with
 s6 =   1.00000
 s8 =   0.78311
 a1 =   0.30000
 a2 =   4.25000
 n  =  10.00000
 -D3 energy without 3body term =     -0.0290858252 hartrees
 ----------------------------------------------------------------
             Standard Nuclear Orientation (Angstroms)
    I     Atom           X                Y                Z
 ----------------------------------------------------------------
    1      C       2.0459939991    -1.1992959769     1.2062299971
    2      C       2.0486024924     0.1933557024     1.2003685345
    3      C       2.0449549420    -1.9063326118     0.0027778603
    4      C       2.0459109137    -1.2076262940    -1.2019906293
    5      C       2.0487155246     0.1877109603    -1.2020651217
    6      C       2.0517545022     0.9087177059    -0.0045514461
    7      H       2.0495309310     0.7234518890    -2.1459032357
    8      H       2.0452026506    -1.7461978649    -2.1434754504
    9      C       2.0603843421     2.4188052599    -0.0026954394
   10      H       2.9381745540     2.8074866373     0.5228332173
   11      H       1.1755507202     2.8192555757     0.5016546223
   12      H       2.0755218095     2.8167196165    -1.0192849072
   13      H       2.0438871171    -2.9905662097     0.0057137471
   14      H       2.0449403643    -1.7350413730     2.1492194491
   15      H       2.0491729347     0.7338662103     2.1419283808
   16      C      -2.0540012560    -1.1913352952     1.2061848629
   17      C      -2.0513927627     0.2013163841     1.2003234003
   18      C      -2.0550403131    -1.8983719300     0.0027327261
   19      C      -2.0540843415    -1.1996656122    -1.2020357635
   20      C      -2.0512797305     0.1956716420    -1.2021102559
   21      C      -2.0482407529     0.9166783877    -0.0045965804
   22      H      -2.0504643242     0.7314125708    -2.1459483699
   23      H      -2.0547926045    -1.7382371831    -2.1435205846
   24      C      -2.0396109130     2.4267659416    -0.0027405736
   25      H      -1.1618207012     2.8154473190     0.5227880831
   26      H      -2.9244445349     2.8272162575     0.5016094880
   27      H      -2.0244734456     2.8246802982    -1.0193300414
   28      H      -2.0561081380    -2.9826055279     0.0056686129
   29      H      -2.0550548908    -1.7270806912     2.1491743149
   30      H      -2.0508223205     0.7418268921     2.1418832465
 ----------------------------------------------------------------
 Molecular Point Group                 C1    NOp =  1
 Largest Abelian Subgroup              C1    NOp =  1
 Nuclear Repulsion Energy =   815.7159856170 hartrees
 There are       50 alpha and       50 beta electrons
 Requested basis set is 6-311++G(d,p)
 There are 164 shells and 420 basis functions

 Total QAlloc Memory Limit   4000 MB
 Mega-Array Size       392 MB
 MEM_STATIC part       400 MB
 A cutoff of  1.0D-12 yielded  11375 shell pairs
 There are     75915 function pairs (     80972 Cartesian)
 
 -------------------------------------------------------
 OpenMP Integral Computing Module                       
 Release: version 1.0, May 2013, Q-Chem Inc. Pittsburgh 
 -------------------------------------------------------
 Integral Job Info:
 Integral job number is                      11
 Integral operator is                         1
 short-range coefficients                     0
 long-range coefficients              100000000
 Omega coefficients                           0
 if combine SR and LR in K                    0
 Integral screening is                        0
 Integral computing path is                   2
 max size of driver memory is            800000
 size of driver memory is                593474
 size of scratch memory is              2361544
 max col of scratch BK array               1296
 max len of scratch array in speh3          155
 max len of scratch index in speh4           18
 max int batch size is                      520
 min int batch size is                       52
 fixed nKL is                                52
 max L of basis functions is                  2
 order of int derivative is                   0
 number of shells is                        164
 number of basis is                         434
 number of cartesian basis is               434
 number of contracted shell pairs         11375
 number of primitive shell pairs          24819
 maxK2 (contraction) of shell pair           36
 max number of K2 of shell pair               1
 max number of CS2 of shell pair           2151
 max number of PS2 of shell pair           3564
 mem total for path MDJ                  130616
 -------------------------------------------------------
 Smallest overlap matrix eigenvalue = 2.27E-07
 Linear dependence detected in AO basis
 Number of orthogonalized atomic orbitals = 418
 Maximum deviation from orthogonality = 9.477E-11

 Scale SEOQF with 1.000000e-01/1.000000e-01/1.000000e-01

 Standard Electronic Orientation quadrupole field applied
 Nucleus-field energy     =     0.0000000205 hartrees
 Guess from superposition of atomic densities
 Warning:  Energy on first SCF cycle will be non-variational
 A restricted hybrid HF-DFT SCF calculation will be
 performed using Pulay DIIS extrapolation
 Exchange:     0.2000 Hartree-Fock + 0.0800 Slater + 0.7200 B88
 Correlation:  0.1900 VWN1RPA + 0.8100 LYP
 Using SG-1 standard quadrature grid
 Dispersion:   Grimme D3
 SCF converges when DIIS error is below 1.0E-08
 using 4 threads for integral computing
 -------------------------------------------------------
 OpenMP Integral computing Module                
 Release: version 1.0, May 2013, Q-Chem Inc. Pittsburgh 
 -------------------------------------------------------
 -------------------------------------------------------
 OpenMP BLAS3 based DFT computing Module                
 Release: version 1.0, May 2013, Q-Chem Inc. Pittsburgh 
 -------------------------------------------------------
 ---------------------------------------
  Cycle       Energy         DIIS Error
 ---------------------------------------
    1    -546.2469490219      3.08E-02
    2    -543.0023613318      3.51E-03
    3    -542.9144991540      4.03E-03
    4    -543.3008673190      3.49E-04
    5    -543.3027293937      1.78E-04
    6    -543.3032724526      7.50E-05
    7    -543.3033852760      2.95E-05
    8    -543.3034065664      2.56E-06
    9    -543.3034066974      1.15E-06
   10    -543.3034067234      3.30E-07
   11    -543.3034067255      1.18E-07
   12    -543.3034067258      4.40E-08
   13    -543.3034067259      6.15E-09 Convergence criterion met
 ---------------------------------------
 SCF time:  CPU 402.89 s  wall 101.52 s
 SCF   energy in the final basis set = -543.30340673
 Total energy in the final basis set = -543.30340673
 
 --------------------------------------------------------------
 
                    Orbital Energies (a.u.)
 --------------------------------------------------------------
 
 Alpha MOs
 -- Occupied --
-10.181 -10.181 -10.171 -10.171 -10.171 -10.171 -10.169 -10.169
-10.169 -10.169 -10.168 -10.168 -10.168 -10.168  -0.856  -0.855
 -0.772  -0.771  -0.744  -0.743  -0.686  -0.685  -0.604  -0.604
 -0.584  -0.583  -0.511  -0.510  -0.461  -0.460  -0.454  -0.453
 -0.430  -0.420  -0.419  -0.415  -0.409  -0.408  -0.388  -0.386
 -0.361  -0.348  -0.343  -0.342  -0.340  -0.339  -0.257  -0.248
 -0.246  -0.237
 -- Virtual --
 -0.021  -0.015  -0.011  -0.005  -0.001  -0.000   0.004   0.010
  0.021   0.021   0.025   0.025   0.042   0.044   0.049   0.049
  0.057   0.063   0.068   0.071   0.077   0.082   0.087   0.095
  0.099   0.104   0.109   0.110   0.112   0.115   0.118   0.119
  0.122   0.123   0.125   0.128   0.132   0.133   0.137   0.138
  0.139   0.144   0.145   0.148   0.157   0.160   0.160   0.166
  0.169   0.172   0.172   0.175   0.178   0.178   0.184   0.186
  0.188   0.194   0.199   0.200   0.205   0.215   0.216   0.222
  0.226   0.238   0.244   0.246   0.252   0.256   0.263   0.265
  0.266   0.268   0.273   0.279   0.281   0.286   0.291   0.294
  0.297   0.300   0.305   0.310   0.311   0.315   0.316   0.324
  0.339   0.341   0.347   0.352   0.361   0.366   0.368   0.368
  0.375   0.381   0.384   0.388   0.399   0.408   0.466   0.473
  0.493   0.514   0.524   0.530   0.542   0.543   0.555   0.557
  0.561   0.565   0.574   0.577   0.585   0.599   0.602   0.602
  0.620   0.622   0.634   0.635   0.638   0.641   0.641   0.645
  0.648   0.656   0.661   0.667   0.674   0.680   0.693   0.708
  0.714   0.722   0.725   0.728   0.732   0.742   0.745   0.749
  0.750   0.770   0.780   0.781   0.797   0.803   0.811   0.824
  0.828   0.846   0.864   0.869   0.876   0.882   0.895   0.896
  0.903   0.906   0.918   0.926   0.940   0.945   0.956   0.959
  0.962   0.974   0.975   0.995   0.997   1.006   1.021   1.021
  1.043   1.047   1.070   1.082   1.084   1.095   1.118   1.130
  1.146   1.148   1.155   1.160   1.274   1.354   1.356   1.381
  1.397   1.402   1.410   1.454   1.455   1.485   1.496   1.505
  1.524   1.534   1.540   1.541   1.542   1.545   1.558   1.560
  1.567   1.596   1.604   1.615   1.627   1.638   1.646   1.647
  1.647   1.655   1.679   1.684   1.692   1.706   1.708   1.736
  1.744   1.753   1.775   1.777   1.797   1.806   1.810   1.832
  1.842   1.851   1.862   1.874   1.887   1.915   1.916   1.923
  1.936   1.938   1.943   1.949   1.953   1.966   1.992   2.000
  2.013   2.022   2.029   2.047   2.051   2.053   2.090   2.096
  2.107   2.141   2.183   2.215   2.231   2.233   2.244   2.260
  2.325   2.328   2.393   2.402   2.406   2.425   2.428   2.461
  2.463   2.465   2.490   2.497   2.501   2.507   2.541   2.545
  2.564   2.586   2.598   2.626   2.633   2.641   2.649   2.669
  2.684   2.690   2.694   2.706   2.731   2.742   2.756   2.756
  2.767   2.774   2.776   2.793   2.796   2.805   2.809   2.826
  2.827   2.855   2.867   2.878   2.887   2.899   2.908   2.923
  2.937   2.940   2.944   2.970   2.978   2.988   3.006   3.051
  3.083   3.143   3.160   3.184   3.211   3.256   3.338   3.372
  3.412   3.432   3.486   3.541   3.546   3.552   3.627   3.635
  3.719   3.731   3.794   3.809   3.841   3.850   4.008   4.008
  4.047   4.059   4.160   4.161   4.165   4.171   4.337   4.342
  4.849   4.854  23.630  23.656  23.938  23.941  23.986  23.987
 24.002  24.011  24.091  24.092  24.102  24.106  24.195  24.209
 --------------------------------------------------------------
 
          Ground-State Mulliken Net Atomic Charges

     Atom                 Charge (a.u.)
  ----------------------------------------
      1 C                    -0.213596
      2 C                    -0.210280
      3 C                    -0.292064
      4 C                    -0.274380
      5 C                    -0.221723
      6 C                     0.634523
      7 H                     0.158552
      8 H                     0.170447
      9 C                    -0.688258
     10 H                     0.153180
     11 H                     0.148221
     12 H                     0.139809
     13 H                     0.151890
     14 H                     0.167002
     15 H                     0.176291
     16 C                    -0.226544
     17 C                    -0.182278
     18 C                    -0.290418
     19 C                    -0.266047
     20 C                    -0.240050
     21 C                     0.635826
     22 H                     0.158211
     23 H                     0.170692
     24 C                    -0.692598
     25 H                     0.144049
     26 H                     0.153892
     27 H                     0.139362
     28 H                     0.151769
     29 H                     0.166707
     30 H                     0.177811
  ----------------------------------------
  Sum of atomic charges =     0.000000

 -----------------------------------------------------------------
                    Cartesian Multipole Moments
 -----------------------------------------------------------------
    Charge (ESU x 10^10)
                 0.0000
    Dipole Moment (Debye)
         X       0.0077      Y       0.6142      Z       0.0515
       Tot       0.6164
    Quadrupole Moments (Debye-Ang)
        XX     -94.4093     XY       0.0343     YY     -78.1905
        XZ      -0.0024     YZ       0.0564     ZZ     -78.5787
    Octopole Moments (Debye-Ang^2)
       XXX       0.1872    XXY      11.7943    XYY      -0.0469
       YYY      -9.7222    XXZ       1.5560    XYZ      -0.0104
       YYZ       0.0151    XZZ       0.0217    YZZ      -1.9732
       ZZZ      -1.0129
    Hexadecapole Moments (Debye-Ang^3)
      XXXX   -2488.9820   XXXY       0.5035   XXYY    -576.3337
      XYYY      -0.0879   YYYY   -1249.9140   XXXZ       0.0260
      XXYZ       4.0021   XYYZ      -0.0685   YYYZ      -0.8838
      XXZZ    -473.0860   XYZZ       0.1609   YYZZ    -299.9020
      XZZZ      -0.0296   YZZZ      -3.1227   ZZZZ    -588.9044
 -----------------------------------------------------------------
Archival summary:
1\1\vega02.cac.cornell.edu\SP\ProcedureUnspecified\BasisUnspecified\1416\jj585\WedApr1800:30:492018WedApr1800:30:492018\0\\#,ProcedureUnspecified,BasisUnspecified,\\0,1\C\C,1,1.39782\H,2,1.08529,1,119.368\C,2,1.39534,1,121.049,3,179.94,0\H,4,1.08464,2,119.768,1,-179.901,0\C,4,1.39272,2,120.115,1,0.0547342,0\H,6,1.08424,4,120.267,2,-179.932,0\C,6,1.39578,4,119.454,2,0.0391297,0\H,8,1.08455,6,119.963,4,179.98,0\C,8,1.39267,6,120.193,4,-0.0300908,0\H,10,1.08567,8,119.617,6,179.987,0\C,1,1.51011,2,121.122,3,-0.187779,0\H,12,1.0918,1,111.308,2,-0.672818,0\H,12,1.09438,1,111.214,2,119.648,0\H,12,1.09443,1,111.119,2,-120.898,0\H,14,2.33747,12,144.298,1,-56.3841,0\C,16,1.09443,14,142.964,12,-3.02039,0\H,17,1.0918,16,107.852,14,-62.1776,0\H,17,1.09438,16,107.291,14,-178.154,0\C,17,1.51011,16,111.119,14,60.0751,0\C,20,1.39782,17,121.122,16,-120.898,0\H,21,1.08529,20,119.368,17,-0.187779,0\C,21,1.39534,20,121.049,17,179.752,0\H,23,1.08464,21,119.768,20,-179.901,0\C,23,1.39272,21,120.115,20,0.0547342,0\H,25,1.08424,23,120.267,21,-179.932,0\C,25,1.39578,23,119.454,21,0.0391297,0\H,27,1.08455,25,119.963,23,179.98,0\C,27,1.39267,25,120.193,23,-0.0300908,0\H,29,1.08567,27,119.617,25,179.987,0\\\@

 Total job time:  102.28s(wall), 405.25s(cpu) 
 Wed Apr 18 00:30:49 2018

        *************************************************************
        *                                                           *
        *  Thank you very much for using Q-Chem.  Have a nice day.  *
        *                                                           *
        *************************************************************


0 sent ACK to 0 
now end server 0 ... 
