mFile = /opt/software/qchem/qchem-5.0.1//bin/mpi/machines
Process 0 of 1 is on vega03.cac.cornell.edu - thread support 0
initial socket setup ...start
initial socket setup ...done 
now start server 0 ... 
vega03 10.84.3
Q-Chem Developer Version! Running on 10.84.3.*
                  Welcome to Q-Chem
     A Quantum Leap Into The Future Of Chemistry


 Q-Chem 5.0, Q-Chem, Inc., Pleasanton, CA (2017)

 Yihan Shao,  Zhengting Gan,  E. Epifanovsky,  A. T. B. Gilbert,  M. Wormit,  
 J. Kussmann,  A. W. Lange,  A. Behn,  Jia Deng,  Xintian Feng,  D. Ghosh,  
 M. Goldey,  P. R. Horn,  L. D. Jacobson,  I. Kaliman,  T. Kus,  A. Landau,  
 Jie Liu,  E. I. Proynov,  R. M. Richard,  R. P. Steele,  E. J. Sundstrom,  
 H. L. Woodcock III,  P. M. Zimmerman,  D. Zuev,  B. Albrecht,  E. Alguire,  
 S. A. Baeppler,  Z. Benda,  Y. A. Bernard,  E. J. Berquist,  K. B. Bravaya,  
 D. Casanova,  Chun-Min Chang,  Yunqing Chen,  A. Chien,  K. D. Closser,  
 M. P. Coons,  S. Dasgupta,  M. Diedenhofen,  Hainam Do,  R. G. Edgar,  
 Po-Tung Fang,  S. Fatehi,  Qingguo Feng,  Qinghui Ge,  A. Ghysels,  
 J. Gomes,  J. Gonthier,  A. Gunina,  M. W. D. Hanson-Heine,  
 P. H. P. Harbach,  A. W. Hauser,  J. E. Herr,  E. G. Hohenstein,  
 Z. C. Holden,  Kerwin Hui,  T.-C. Jagau,  Hyunjun Ji,  B. Kaduk,  
 K. Khistyaev,  Jaehoon Kim,  P. Klunzinger,  K. Koh,  D. Kosenkov,  
 T. Kowalczyk,  C. M. Krauter,  A. Kunitsa,  Ka Un Lao,  A. Laurent,  
 K. V. Lawler,  Joonho Lee,  D. Lefrancois,  S. Lehtola,  D. S. Levine,  
 Yi-Pei Li,  You-Sheng Lin,  Fenglai Liu,  E. Livshits,  A. Luenser,  
 P. Manohar,  E. Mansoor,  S. F. Manzer,  Shan-Ping Mao,  Yuezhi Mao,  
 N. Mardirossian,  A. V. Marenich,  L. A. Martinez-Martinez,  S. A. Maurer,  
 N. J. Mayhall,  S. C. McKenzie,  J.-M. Mewes,  A. F. Morrison,  K. Nanda,  
 T. S. Nguyen-Beck,  R. Olivares-Amaya,  J. A. Parkhill,  T. M. Perrine,  
 F. Plasser,  S. Prager,  A. Prociuk,  D. R. Rehn,  F. Rob,  M. Schneider,  
 N. Sergueev,  S. M. Sharada,  S. Sharma,  D. W. Small,  T. Stauch,  
 T. Stein,  Yu-Chuan Su,  A. J. W. Thom,  T. Tsuchimochi,  L. Vogt,  
 O. Vydrov,  M. A. Watson,  J. Wenzel,  M. de Wergifosse,  T. A. Wesolowski,  
 A. White,  J. Witte,  A. Yamada,  Jun Yang,  K. Yao,  S. Yeganeh,  
 S. R. Yost,  Zhi-Qiang You,  A. Zech,  Igor Ying Zhang,  Xing Zhang,  
 Yan Zhao,  Ying Zhu,  B. R. Brooks,  G. K. L. Chan,  C. J. Cramer,  
 M. S. Gordon,  W. J. Hehre,  A. Klamt,  M. W. Schmidt,  C. D. Sherrill,  
 D. G. Truhlar,  A. Aspuru-Guzik,  R. Baer,  A. T. Bell,  N. A. Besley,  
 Jeng-Da Chai,  A. Dreuw,  B. D. Dunietz,  T. R. Furlani,  Chao-Ping Hsu,  
 Yousung Jung,  Jing Kong,  D. S. Lambrecht,  WanZhen Liang,  C. Ochsenfeld,  
 V. A. Rassolov,  L. V. Slipchenko,  J. E. Subotnik,  T. Van Voorhis,  
 J. M. Herbert,  A. I. Krylov,  P. M. W. Gill,  M. Head-Gordon

 Contributors to earlier versions of Q-Chem not listed above: 
 R. D. Adamson,  B. Austin,  J. Baker,  G. J. O. Beran,  K. Brandhorst,  
 S. T. Brown,  E. F. C. Byrd,  A. K. Chakraborty,  C.-L. Cheng,  
 Siu Hung Chien,  D. M. Chipman,  D. L. Crittenden,  H. Dachsel,  
 R. A. DiStasio Jr.,  R. J. Doerksen,  A. D. Dutoi,  L. Fusti-Molnar,  
 W. A. Goddard III,  A. Golubeva-Zadorozhnaya,  S. R. Gwaltney,  G. Hawkins,  
 A. Heyden,  S. Hirata,  G. Kedziora,  F. J. Keil,  C. Kelley,  Jihan Kim,  
 R. A. King,  R. Z. Khaliullin,  P. P. Korambath,  W. Kurlancheek,  
 A. M. Lee,  M. S. Lee,  S. V. Levchenko,  Ching Yeh Lin,  D. Liotard,  
 R. C. Lochan,  I. Lotan,  P. E. Maslen,  N. Nair,  D. P. O'Neill,  
 D. Neuhauser,  E. Neuscamman,  C. M. Oana,  R. Olson,  B. Peters,  
 R. Peverati,  P. A. Pieniazek,  Y. M. Rhee,  J. Ritchie,  M. A. Rohrdanz,  
 E. Rosta,  N. J. Russ,  H. F. Schaefer III,  N. E. Schultz,  N. Shenvi,  
 A. C. Simmonett,  A. Sodt,  D. Stuck,  K. S. Thanthiriwatte,  V. Vanovschi,  
 Tao Wang,  A. Warshel,  C. F. Williams,  Q. Wu,  X. Xu,  W. Zhang

 Please cite Q-Chem as follows:
 Y. Shao et al., Mol. Phys. 113, 184-215 (2015)
 DOI: 10.1080/00268976.2014.952696

 Q-Chem 5.0.1 for Intel X86 EM64T Linux

 Parts of Q-Chem use Armadillo 5.200.1 (Boston Tea Smuggler).
 http://arma.sourceforge.net/

 Q-Chem begins on Tue Apr 17 00:49:28 2018  

Host: vega03.cac.cornell.edu
0

     Scratch files written to /scratch/jj585/vdw/01n00_distance_4.100_01.save//
 Parallel job on  1  processors

Checking the input file for inconsistencies... 	...done.

--------------------------------------------------------------
User input:
--------------------------------------------------------------
$molecule
0  1
C        -0.68457000        -0.97684000        +4.02022000
C        -0.69722000        +0.42564000        +4.14204000
C        -1.88333000        -1.70930000        +3.96159000
C        -3.07965000        -0.99370000        +4.03426000
C        -3.09326000        +0.38941000        +4.15645000
C        -1.91174000        +1.13090000        +4.21521000
H        -4.04367000        +0.91011000        +4.20421000
H        -4.01905000        -1.53525000        +3.99723000
C        -1.97973000        +2.63432000        +4.33550000
H        -1.38227000        +3.13038000        +3.56646000
H        -1.59516000        +2.97113000        +5.29995000
H        -3.01224000        +2.97309000        +4.23349000
H        -1.87891000        -2.73707000        +3.86836000
H        +0.21812000        -1.47480000        +3.97325000
H        +0.19538000        +0.94235000        +4.17808000
@C        -0.54444000        -0.68370000        -0.06689000
@C        -0.55709000        +0.71878000        +0.05493000
@C        -1.74320000        -1.41616000        -0.12552000
@C        -2.93952000        -0.70056000        -0.05285000
@C        -2.95313000        +0.68255000        +0.06934000
@C        -1.77161000        +1.42404000        +0.12810000
@H        -3.90354000        +1.20325000        +0.11710000
@H        -3.87892000        -1.24211000        -0.08988000
@C        -1.83960000        +2.92746000        +0.24839000
@H        -1.24214000        +3.42352000        -0.52065000
@H        -1.45503000        +3.26427000        +1.21284000
@H        -2.87211000        +3.26623000        +0.14638000
@H        -1.73878000        -2.44393000        -0.21875000
@H        +0.35825000        -1.18166000        -0.11386000
@H        +0.33551000        +1.23549000        +0.09097000
$end

$rem
JOBTYPE                   SP
METHOD                    B3LYP
DFT_D                     d3_op
BASIS                     6-311++G(d,p)
SYMMETRY                  False
THRESH                    12
SCF_CONVERGENCE           8
MAX_SUB_FILE_NUM          128
MEM_STATIC                400
MEM_TOTAL                 4000
$end
--------------------------------------------------------------
 Adding empirical dispersion correction 
 ----------------------------------------------------------------
 Doing -D3(op) with
 s6 =   1.00000
 s8 =   0.78311
 a1 =   0.30000
 a2 =   4.25000
 n  =  10.00000
 -D3 energy without 3body term =     -0.0113800034 hartrees
 ----------------------------------------------------------------
             Standard Nuclear Orientation (Angstroms)
    I     Atom           X                Y                Z
 ----------------------------------------------------------------
    1      C      -0.6845700000    -0.9768400000     4.0202200000
    2      C      -0.6972200000     0.4256400000     4.1420400000
    3      C      -1.8833300000    -1.7093000000     3.9615900000
    4      C      -3.0796500000    -0.9937000000     4.0342600000
    5      C      -3.0932600000     0.3894100000     4.1564500000
    6      C      -1.9117400000     1.1309000000     4.2152100000
    7      H      -4.0436700000     0.9101100000     4.2042100000
    8      H      -4.0190500000    -1.5352500000     3.9972300000
    9      C      -1.9797300000     2.6343200000     4.3355000000
   10      H      -1.3822700000     3.1303800000     3.5664600000
   11      H      -1.5951600000     2.9711300000     5.2999500000
   12      H      -3.0122400000     2.9730900000     4.2334900000
   13      H      -1.8789100000    -2.7370700000     3.8683600000
   14      H       0.2181200000    -1.4748000000     3.9732500000
   15      H       0.1953800000     0.9423500000     4.1780800000
   16      GH     -0.5444400000    -0.6837000000    -0.0668900000
   17      GH     -0.5570900000     0.7187800000     0.0549300000
   18      GH     -1.7432000000    -1.4161600000    -0.1255200000
   19      GH     -2.9395200000    -0.7005600000    -0.0528500000
   20      GH     -2.9531300000     0.6825500000     0.0693400000
   21      GH     -1.7716100000     1.4240400000     0.1281000000
   22      GH     -3.9035400000     1.2032500000     0.1171000000
   23      GH     -3.8789200000    -1.2421100000    -0.0898800000
   24      GH     -1.8396000000     2.9274600000     0.2483900000
   25      GH     -1.2421400000     3.4235200000    -0.5206500000
   26      GH     -1.4550300000     3.2642700000     1.2128400000
   27      GH     -2.8721100000     3.2662300000     0.1463800000
   28      GH     -1.7387800000    -2.4439300000    -0.2187500000
   29      GH      0.3582500000    -1.1816600000    -0.1138600000
   30      GH      0.3355100000     1.2354900000     0.0909700000
 ----------------------------------------------------------------
 Nuclear Repulsion Energy =   269.2168625664 hartrees
 There are       25 alpha and       25 beta electrons
 Requested basis set is 6-311++G(d,p)
 There are 164 shells and 420 basis functions

 Total QAlloc Memory Limit   4000 MB
 Mega-Array Size       392 MB
 MEM_STATIC part       400 MB
 A cutoff of  1.0D-12 yielded  11340 shell pairs
 There are     75846 function pairs (     80922 Cartesian)
 
 -------------------------------------------------------
 OpenMP Integral Computing Module                       
 Release: version 1.0, May 2013, Q-Chem Inc. Pittsburgh 
 -------------------------------------------------------
 Integral Job Info:
 Integral job number is                      11
 Integral operator is                         1
 short-range coefficients                     0
 long-range coefficients              100000000
 Omega coefficients                           0
 if combine SR and LR in K                    0
 Integral screening is                        0
 Integral computing path is                   2
 max size of driver memory is            800000
 size of driver memory is                593474
 size of scratch memory is              2361544
 max col of scratch BK array               1296
 max len of scratch array in speh3          155
 max len of scratch index in speh4           18
 max int batch size is                      520
 min int batch size is                       52
 fixed nKL is                                52
 max L of basis functions is                  2
 order of int derivative is                   0
 number of shells is                        164
 number of basis is                         434
 number of cartesian basis is               434
 number of contracted shell pairs         11340
 number of primitive shell pairs          24798
 maxK2 (contraction) of shell pair           36
 max number of K2 of shell pair               1
 max number of CS2 of shell pair           2123
 max number of PS2 of shell pair           3564
 mem total for path MDJ                  130616
 -------------------------------------------------------
 Smallest overlap matrix eigenvalue = 2.57E-07
 Linear dependence detected in AO basis
 Number of orthogonalized atomic orbitals = 418
 Maximum deviation from orthogonality = 4.676E-11

 Scale SEOQF with 1.000000e-01/1.000000e-01/1.000000e-02

 Standard Electronic Orientation quadrupole field applied
 Nucleus-field energy     =     0.0000000080 hartrees
 Guess from superposition of atomic densities
 Warning:  Energy on first SCF cycle will be non-variational

 Q-Chem warning in module /opt/software/qchem/qchem-5.0.1/libgen/Atomic_PolEc.C, line 58:

 No atomic polarizability available.


 Q-Chem warning in module /opt/software/qchem/qchem-5.0.1/libgen/Atomic_PolEc.C, line 73:

 No atomic polarizability available.


 Q-Chem warning in module /opt/software/qchem/qchem-5.0.1/libgen/Atomic_PolEc.C, line 58:

 No atomic polarizability available.


 Q-Chem warning in module /opt/software/qchem/qchem-5.0.1/libgen/Atomic_PolEc.C, line 73:

 No atomic polarizability available.


 Q-Chem warning in module /opt/software/qchem/qchem-5.0.1/libgen/Atomic_PolEc.C, line 58:

 No atomic polarizability available.


 Q-Chem warning in module /opt/software/qchem/qchem-5.0.1/libgen/Atomic_PolEc.C, line 73:

 No atomic polarizability available.


 Q-Chem warning in module /opt/software/qchem/qchem-5.0.1/libgen/Atomic_PolEc.C, line 58:

 No atomic polarizability available.


 Q-Chem warning in module /opt/software/qchem/qchem-5.0.1/libgen/Atomic_PolEc.C, line 73:

 No atomic polarizability available.


 Q-Chem warning in module /opt/software/qchem/qchem-5.0.1/libgen/Atomic_PolEc.C, line 58:

 No atomic polarizability available.


 Q-Chem warning in module /opt/software/qchem/qchem-5.0.1/libgen/Atomic_PolEc.C, line 73:

 No atomic polarizability available.


 Q-Chem warning in module /opt/software/qchem/qchem-5.0.1/libgen/Atomic_PolEc.C, line 58:

 No atomic polarizability available.


 Q-Chem warning in module /opt/software/qchem/qchem-5.0.1/libgen/Atomic_PolEc.C, line 73:

 No atomic polarizability available.


 Q-Chem warning in module /opt/software/qchem/qchem-5.0.1/libgen/Atomic_PolEc.C, line 58:

 No atomic polarizability available.


 Q-Chem warning in module /opt/software/qchem/qchem-5.0.1/libgen/Atomic_PolEc.C, line 73:

 No atomic polarizability available.


 Q-Chem warning in module /opt/software/qchem/qchem-5.0.1/libgen/Atomic_PolEc.C, line 58:

 No atomic polarizability available.


 Q-Chem warning in module /opt/software/qchem/qchem-5.0.1/libgen/Atomic_PolEc.C, line 73:

 No atomic polarizability available.


 Q-Chem warning in module /opt/software/qchem/qchem-5.0.1/libgen/Atomic_PolEc.C, line 58:

 No atomic polarizability available.


 Q-Chem warning in module /opt/software/qchem/qchem-5.0.1/libgen/Atomic_PolEc.C, line 73:

 No atomic polarizability available.


 Q-Chem warning in module /opt/software/qchem/qchem-5.0.1/libgen/Atomic_PolEc.C, line 58:

 No atomic polarizability available.


 Q-Chem warning in module /opt/software/qchem/qchem-5.0.1/libgen/Atomic_PolEc.C, line 73:

 No atomic polarizability available.


 Q-Chem warning in module /opt/software/qchem/qchem-5.0.1/libgen/Atomic_PolEc.C, line 58:

 No atomic polarizability available.


 Q-Chem warning in module /opt/software/qchem/qchem-5.0.1/libgen/Atomic_PolEc.C, line 73:

 No atomic polarizability available.


 Q-Chem warning in module /opt/software/qchem/qchem-5.0.1/libgen/Atomic_PolEc.C, line 58:

 No atomic polarizability available.


 Q-Chem warning in module /opt/software/qchem/qchem-5.0.1/libgen/Atomic_PolEc.C, line 73:

 No atomic polarizability available.


 Q-Chem warning in module /opt/software/qchem/qchem-5.0.1/libgen/Atomic_PolEc.C, line 58:

 No atomic polarizability available.


 Q-Chem warning in module /opt/software/qchem/qchem-5.0.1/libgen/Atomic_PolEc.C, line 73:

 No atomic polarizability available.


 Q-Chem warning in module /opt/software/qchem/qchem-5.0.1/libgen/Atomic_PolEc.C, line 58:

 No atomic polarizability available.


 Q-Chem warning in module /opt/software/qchem/qchem-5.0.1/libgen/Atomic_PolEc.C, line 73:

 No atomic polarizability available.


 Q-Chem warning in module /opt/software/qchem/qchem-5.0.1/libgen/Atomic_PolEc.C, line 58:

 No atomic polarizability available.


 Q-Chem warning in module /opt/software/qchem/qchem-5.0.1/libgen/Atomic_PolEc.C, line 73:

 No atomic polarizability available.

 A restricted hybrid HF-DFT SCF calculation will be
 performed using Pulay DIIS extrapolation
 Exchange:     0.2000 Hartree-Fock + 0.0800 Slater + 0.7200 B88
 Correlation:  0.1900 VWN1RPA + 0.8100 LYP
 Using SG-1 standard quadrature grid
 Dispersion:   Grimme D3
 SCF converges when DIIS error is below 1.0E-08
 using 4 threads for integral computing
 -------------------------------------------------------
 OpenMP Integral computing Module                
 Release: version 1.0, May 2013, Q-Chem Inc. Pittsburgh 
 -------------------------------------------------------
 -------------------------------------------------------
 OpenMP BLAS3 based DFT computing Module                
 Release: version 1.0, May 2013, Q-Chem Inc. Pittsburgh 
 -------------------------------------------------------
 ---------------------------------------
  Cycle       Energy         DIIS Error
 ---------------------------------------
    1    -273.1499852006      2.19E-02
    2    -271.4966322407      2.45E-03
    3    -271.4744899442      2.66E-03
    4    -271.6428928431      2.00E-04
    5    -271.6435000225      1.01E-04
    6    -271.6436767247      4.37E-05
    7    -271.6437153035      1.60E-05
    8    -271.6437214880      1.32E-06
    9    -271.6437215180      7.99E-07
   10    -271.6437215318      1.87E-07
   11    -271.6437215325      8.06E-08
   12    -271.6437215327      9.92E-09 Convergence criterion met
 ---------------------------------------
 SCF time:  CPU 354.37 s  wall 88.88 s
 SCF   energy in the final basis set = -271.64372153
 Total energy in the final basis set = -271.64372153
 
 --------------------------------------------------------------
 
                    Orbital Energies (a.u.)
 --------------------------------------------------------------
 
 Alpha MOs
 -- Occupied --
-10.185 -10.174 -10.172 -10.171 -10.170 -10.169 -10.169  -0.858
 -0.776  -0.747  -0.691  -0.611  -0.591  -0.521  -0.465  -0.462
 -0.424  -0.423  -0.418  -0.390  -0.358  -0.350  -0.342  -0.255
 -0.247
 -- Virtual --
 -0.017  -0.013  -0.008   0.005   0.009   0.019   0.028   0.031
  0.036   0.041   0.048   0.054   0.059   0.062   0.065   0.068
  0.079   0.083   0.090   0.093   0.094   0.103   0.105   0.107
  0.113   0.114   0.120   0.126   0.126   0.129   0.130   0.131
  0.137   0.139   0.141   0.146   0.154   0.161   0.162   0.165
  0.168   0.174   0.175   0.178   0.180   0.182   0.187   0.187
  0.194   0.196   0.202   0.209   0.214   0.215   0.217   0.222
  0.231   0.234   0.237   0.240   0.245   0.247   0.251   0.257
  0.265   0.266   0.271   0.278   0.280   0.280   0.283   0.293
  0.297   0.303   0.305   0.310   0.313   0.317   0.330   0.332
  0.336   0.341   0.360   0.366   0.375   0.376   0.383   0.397
  0.406   0.410   0.416   0.420   0.434   0.439   0.446   0.461
  0.474   0.479   0.482   0.498   0.511   0.520   0.531   0.539
  0.547   0.550   0.557   0.571   0.579   0.583   0.593   0.603
  0.610   0.613   0.616   0.618   0.630   0.631   0.638   0.645
  0.646   0.655   0.660   0.667   0.679   0.694   0.702   0.707
  0.711   0.730   0.734   0.742   0.748   0.752   0.753   0.769
  0.778   0.798   0.809   0.813   0.824   0.843   0.857   0.865
  0.882   0.893   0.900   0.915   0.927   0.929   0.940   0.942
  0.955   0.970   0.978   1.007   1.015   1.017   1.018   1.047
  1.061   1.080   1.095   1.111   1.126   1.132   1.150   1.153
  1.175   1.187   1.202   1.220   1.279   1.338   1.367   1.374
  1.416   1.427   1.442   1.449   1.460   1.481   1.496   1.501
  1.524   1.532   1.536   1.546   1.549   1.554   1.558   1.570
  1.582   1.591   1.608   1.621   1.631   1.658   1.669   1.676
  1.698   1.706   1.719   1.727   1.733   1.744   1.747   1.760
  1.769   1.774   1.794   1.797   1.809   1.818   1.831   1.852
  1.859   1.868   1.877   1.892   1.896   1.908   1.909   1.936
  1.942   1.951   1.957   1.963   1.970   1.972   1.987   2.009
  2.030   2.038   2.044   2.046   2.052   2.066   2.092   2.106
  2.117   2.152   2.169   2.206   2.242   2.252   2.260   2.306
  2.315   2.319   2.323   2.331   2.386   2.403   2.407   2.412
  2.420   2.423   2.442   2.451   2.483   2.490   2.495   2.509
  2.531   2.537   2.547   2.563   2.567   2.577   2.586   2.600
  2.610   2.633   2.646   2.676   2.691   2.716   2.729   2.740
  2.745   2.748   2.759   2.772   2.782   2.816   2.832   2.843
  2.869   2.898   2.907   2.914   2.925   2.932   2.949   2.954
  2.987   2.991   3.001   3.002   3.016   3.042   3.097   3.112
  3.161   3.169   3.203   3.226   3.247   3.281   3.336   3.359
  3.373   3.384   3.398   3.412   3.444   3.484   3.505   3.512
  3.525   3.544   3.559   3.568   3.594   3.625   3.654   3.666
  3.711   3.730   3.793   3.797   3.865   4.011   4.037   4.040
  4.122   4.181   4.189   4.206   4.345   4.637   4.734   4.838
  4.852   4.863   4.917   4.964   5.104   5.209   5.649   7.062
  7.115   7.149   7.208   7.227   7.361   7.611   7.722   7.726
  7.753   7.773   7.784   7.828   7.844   7.870   7.975   8.024
  8.046   8.163   8.480   8.905   9.707   9.997  10.183  10.203
 10.234  10.243  10.304  23.682  23.944  24.005  24.017  24.096
 24.109  24.206  69.933  69.976  70.144  70.156  70.178  70.178
 70.220
 --------------------------------------------------------------
 
          Ground-State Mulliken Net Atomic Charges

     Atom                 Charge (a.u.)
  ----------------------------------------
      1 C                    -0.222419
      2 C                    -0.184432
      3 C                    -0.297380
      4 C                    -0.263151
      5 C                    -0.248696
      6 C                     0.633485
      7 H                     0.156954
      8 H                     0.173455
      9 C                    -0.691756
     10 H                     0.158162
     11 H                     0.160153
     12 H                     0.138785
     13 H                     0.146042
     14 H                     0.161924
     15 H                     0.172984
     16 GH                   -0.022328
     17 GH                   -0.008829
     18 GH                    0.007746
     19 GH                   -0.003640
     20 GH                    0.001015
     21 GH                    0.004473
     22 GH                    0.004829
     23 GH                    0.002689
     24 GH                    0.013161
     25 GH                    0.000086
     26 GH                   -0.001641
     27 GH                    0.002006
     28 GH                    0.004021
     29 GH                    0.001554
     30 GH                    0.000750
  ----------------------------------------
  Sum of atomic charges =     0.000000

 -----------------------------------------------------------------
                    Cartesian Multipole Moments
 -----------------------------------------------------------------
    Charge (ESU x 10^10)
                 0.0000
    Dipole Moment (Debye)
         X       0.0635      Y       0.3884      Z       0.0262
       Tot       0.3945
    Quadrupole Moments (Debye-Ang)
        XX     -39.4211     XY      -0.7060     YY     -38.3424
        XZ       0.1830     YZ       2.2983     ZZ     -46.1596
    Octopole Moments (Debye-Ang^2)
       XXX     225.3837    XXY      -7.7820    XYY      73.6946
       YYY     -29.1880    XXZ    -162.9209    XYZ      -4.1829
       YYZ    -159.2406    XZZ      89.6128    YZZ       6.2901
       ZZZ    -572.0558
    Hexadecapole Moments (Debye-Ang^3)
      XXXX   -1150.4849   XXXY      52.4376   XXYY    -292.3858
      XYYY      61.3025   YYYY    -630.7687   XXXZ     933.0384
      XXYZ     -37.4432   XYYZ     306.2381   YYYZ    -142.7211
      XXZZ    -914.6974   XYZZ      -7.6986   YYZZ    -784.1743
      XZZZ    1104.8707   YZZZ     -37.3685   ZZZZ   -4786.7729
 -----------------------------------------------------------------
Archival summary:
1\1\vega03.cac.cornell.edu\SP\ProcedureUnspecified\BasisUnspecified\78h15\jj585\TueApr1700:50:582018TueApr1700:50:582018\0\\#,ProcedureUnspecified,BasisUnspecified,\\0,1\C\C,1,1.39616\H,2,1.08475,1,118.991\C,2,1.38856,1,121.629,3,179.783,0\H,4,1.08495,2,119.453,1,179.671,0\C,4,1.3959,2,121.575,1,-0.129654,0\H,6,1.032,4,121.26,2,-179.84,0\C,6,1.40604,4,117.481,2,0.160349,0\H,8,1.032,6,119.504,4,179.742,0\C,1,1.40634,2,117.536,3,-179.6,0\H,10,1.032,1,119.607,2,179.72,0\C,1,1.50976,2,119.611,3,-0.341033,0\H,12,1.09144,1,110.135,2,-7.24194,0\H,12,1.09156,1,111.21,2,113.289,0\H,12,1.09291,1,111.796,2,-127.427,0\Gh,15,2.35855,12,135.324,1,64.0552,0\Gh,16,1.09156,15,151.052,12,-11.752,0\Gh,17,1.09144,16,108.669,15,72.2189,0\Gh,17,1.09291,16,106.802,15,-171.397,0\Gh,17,1.50976,16,111.21,15,-49.1728,0\Gh,20,1.39616,17,119.611,16,113.289,0\Gh,21,1.08475,20,118.991,17,-0.341033,0\Gh,21,1.38856,20,121.629,17,179.442,0\Gh,23,1.08495,21,119.453,20,179.671,0\Gh,23,1.3959,21,121.575,20,-0.129654,0\Gh,25,1.032,23,121.26,21,-179.84,0\Gh,25,1.40604,23,117.481,21,0.160349,0\Gh,27,1.032,25,119.504,23,179.742,0\Gh,20,1.40634,17,122.848,16,-67.4939,0\Gh,29,1.032,20,119.607,17,0.487832,0\\\@

 Total job time:  89.58s(wall), 356.57s(cpu) 
 Tue Apr 17 00:50:58 2018

        *************************************************************
        *                                                           *
        *  Thank you very much for using Q-Chem.  Have a nice day.  *
        *                                                           *
        *************************************************************


0 sent ACK to 0 
now end server 0 ... 
