mFile = /opt/software/qchem/qchem-5.0.1//bin/mpi/machines
Process 0 of 1 is on vega03.cac.cornell.edu - thread support 0
initial socket setup ...start
initial socket setup ...done 
now start server 0 ... 
vega03 10.84.3
Q-Chem Developer Version! Running on 10.84.3.*
                  Welcome to Q-Chem
     A Quantum Leap Into The Future Of Chemistry


 Q-Chem 5.0, Q-Chem, Inc., Pleasanton, CA (2017)

 Yihan Shao,  Zhengting Gan,  E. Epifanovsky,  A. T. B. Gilbert,  M. Wormit,  
 J. Kussmann,  A. W. Lange,  A. Behn,  Jia Deng,  Xintian Feng,  D. Ghosh,  
 M. Goldey,  P. R. Horn,  L. D. Jacobson,  I. Kaliman,  T. Kus,  A. Landau,  
 Jie Liu,  E. I. Proynov,  R. M. Richard,  R. P. Steele,  E. J. Sundstrom,  
 H. L. Woodcock III,  P. M. Zimmerman,  D. Zuev,  B. Albrecht,  E. Alguire,  
 S. A. Baeppler,  Z. Benda,  Y. A. Bernard,  E. J. Berquist,  K. B. Bravaya,  
 D. Casanova,  Chun-Min Chang,  Yunqing Chen,  A. Chien,  K. D. Closser,  
 M. P. Coons,  S. Dasgupta,  M. Diedenhofen,  Hainam Do,  R. G. Edgar,  
 Po-Tung Fang,  S. Fatehi,  Qingguo Feng,  Qinghui Ge,  A. Ghysels,  
 J. Gomes,  J. Gonthier,  A. Gunina,  M. W. D. Hanson-Heine,  
 P. H. P. Harbach,  A. W. Hauser,  J. E. Herr,  E. G. Hohenstein,  
 Z. C. Holden,  Kerwin Hui,  T.-C. Jagau,  Hyunjun Ji,  B. Kaduk,  
 K. Khistyaev,  Jaehoon Kim,  P. Klunzinger,  K. Koh,  D. Kosenkov,  
 T. Kowalczyk,  C. M. Krauter,  A. Kunitsa,  Ka Un Lao,  A. Laurent,  
 K. V. Lawler,  Joonho Lee,  D. Lefrancois,  S. Lehtola,  D. S. Levine,  
 Yi-Pei Li,  You-Sheng Lin,  Fenglai Liu,  E. Livshits,  A. Luenser,  
 P. Manohar,  E. Mansoor,  S. F. Manzer,  Shan-Ping Mao,  Yuezhi Mao,  
 N. Mardirossian,  A. V. Marenich,  L. A. Martinez-Martinez,  S. A. Maurer,  
 N. J. Mayhall,  S. C. McKenzie,  J.-M. Mewes,  A. F. Morrison,  K. Nanda,  
 T. S. Nguyen-Beck,  R. Olivares-Amaya,  J. A. Parkhill,  T. M. Perrine,  
 F. Plasser,  S. Prager,  A. Prociuk,  D. R. Rehn,  F. Rob,  M. Schneider,  
 N. Sergueev,  S. M. Sharada,  S. Sharma,  D. W. Small,  T. Stauch,  
 T. Stein,  Yu-Chuan Su,  A. J. W. Thom,  T. Tsuchimochi,  L. Vogt,  
 O. Vydrov,  M. A. Watson,  J. Wenzel,  M. de Wergifosse,  T. A. Wesolowski,  
 A. White,  J. Witte,  A. Yamada,  Jun Yang,  K. Yao,  S. Yeganeh,  
 S. R. Yost,  Zhi-Qiang You,  A. Zech,  Igor Ying Zhang,  Xing Zhang,  
 Yan Zhao,  Ying Zhu,  B. R. Brooks,  G. K. L. Chan,  C. J. Cramer,  
 M. S. Gordon,  W. J. Hehre,  A. Klamt,  M. W. Schmidt,  C. D. Sherrill,  
 D. G. Truhlar,  A. Aspuru-Guzik,  R. Baer,  A. T. Bell,  N. A. Besley,  
 Jeng-Da Chai,  A. Dreuw,  B. D. Dunietz,  T. R. Furlani,  Chao-Ping Hsu,  
 Yousung Jung,  Jing Kong,  D. S. Lambrecht,  WanZhen Liang,  C. Ochsenfeld,  
 V. A. Rassolov,  L. V. Slipchenko,  J. E. Subotnik,  T. Van Voorhis,  
 J. M. Herbert,  A. I. Krylov,  P. M. W. Gill,  M. Head-Gordon

 Contributors to earlier versions of Q-Chem not listed above: 
 R. D. Adamson,  B. Austin,  J. Baker,  G. J. O. Beran,  K. Brandhorst,  
 S. T. Brown,  E. F. C. Byrd,  A. K. Chakraborty,  C.-L. Cheng,  
 Siu Hung Chien,  D. M. Chipman,  D. L. Crittenden,  H. Dachsel,  
 R. A. DiStasio Jr.,  R. J. Doerksen,  A. D. Dutoi,  L. Fusti-Molnar,  
 W. A. Goddard III,  A. Golubeva-Zadorozhnaya,  S. R. Gwaltney,  G. Hawkins,  
 A. Heyden,  S. Hirata,  G. Kedziora,  F. J. Keil,  C. Kelley,  Jihan Kim,  
 R. A. King,  R. Z. Khaliullin,  P. P. Korambath,  W. Kurlancheek,  
 A. M. Lee,  M. S. Lee,  S. V. Levchenko,  Ching Yeh Lin,  D. Liotard,  
 R. C. Lochan,  I. Lotan,  P. E. Maslen,  N. Nair,  D. P. O'Neill,  
 D. Neuhauser,  E. Neuscamman,  C. M. Oana,  R. Olson,  B. Peters,  
 R. Peverati,  P. A. Pieniazek,  Y. M. Rhee,  J. Ritchie,  M. A. Rohrdanz,  
 E. Rosta,  N. J. Russ,  H. F. Schaefer III,  N. E. Schultz,  N. Shenvi,  
 A. C. Simmonett,  A. Sodt,  D. Stuck,  K. S. Thanthiriwatte,  V. Vanovschi,  
 Tao Wang,  A. Warshel,  C. F. Williams,  Q. Wu,  X. Xu,  W. Zhang

 Please cite Q-Chem as follows:
 Y. Shao et al., Mol. Phys. 113, 184-215 (2015)
 DOI: 10.1080/00268976.2014.952696

 Q-Chem 5.0.1 for Intel X86 EM64T Linux

 Parts of Q-Chem use Armadillo 5.200.1 (Boston Tea Smuggler).
 http://arma.sourceforge.net/

 Q-Chem begins on Tue Apr 17 01:13:44 2018  

Host: vega03.cac.cornell.edu
0

     Scratch files written to /scratch/jj585/vdw/01n10_distance_5.300_11.save//
 Parallel job on  1  processors

Checking the input file for inconsistencies... 	...done.

--------------------------------------------------------------
User input:
--------------------------------------------------------------
$molecule
0  1
--
0  1
C        -0.54444000        -0.68370000        -0.06689000
C        -0.55709000        +0.71878000        +0.05493000
C        -1.74320000        -1.41616000        -0.12552000
C        -2.93952000        -0.70056000        -0.05285000
C        -2.95313000        +0.68255000        +0.06934000
C        -1.77161000        +1.42404000        +0.12810000
H        -3.90354000        +1.20325000        +0.11710000
H        -3.87892000        -1.24211000        -0.08988000
C        -1.83960000        +2.92746000        +0.24839000
C        -1.78103000        -2.92226000        -0.24590000
H        -1.39752000        -3.25223000        -1.21323000
H        -2.80572000        -3.28175000        -0.13627000
H        -1.16958000        -3.40777000        +0.51926000
H        -1.24214000        +3.42352000        -0.52065000
H        -1.45503000        +3.26427000        +1.21284000
H        -2.87211000        +3.26623000        +0.14638000
H        +0.35825000        -1.18166000        -0.11386000
H        +0.33551000        +1.23549000        +0.09097000
--
0  1
C        -2.15966000        +0.19181000        +4.90448000
C        -2.17231000        +1.59429000        +5.02630000
C        -3.35842000        -0.54065000        +4.84585000
C        -4.55474000        +0.17495000        +4.91852000
C        -4.56835000        +1.55806000        +5.04071000
C        -3.38683000        +2.29955000        +5.09947000
H        -5.51876000        +2.07876000        +5.08847000
H        -5.49414000        -0.36660000        +4.88149000
C        -3.45482000        +3.80297000        +5.21976000
C        -3.39625000        -2.04675000        +4.72547000
H        -3.01274000        -2.37672000        +3.75814000
H        -4.42094000        -2.40624000        +4.83510000
H        -2.78480000        -2.53226000        +5.49063000
H        -2.85736000        +4.29903000        +4.45072000
H        -3.07025000        +4.13978000        +6.18421000
H        -4.48733000        +4.14174000        +5.11775000
H        -1.25697000        -0.30615000        +4.85751000
H        -1.27971000        +2.11100000        +5.06234000
$end

$rem
JOBTYPE                   SP
METHOD                    B3LYP
DFT_D                     d3_op
BASIS                     6-311++G(d,p)
SYMMETRY                  False
THRESH                    12
SCF_CONVERGENCE           8
MAX_SUB_FILE_NUM          128
MEM_STATIC                400
MEM_TOTAL                 4000
$end
--------------------------------------------------------------
 Adding empirical dispersion correction 
 ----------------------------------------------------------------
 Doing -D3(op) with
 s6 =   1.00000
 s8 =   0.78311
 a1 =   0.30000
 a2 =   4.25000
 n  =  10.00000
 -D3 energy without 3body term =     -0.0316247135 hartrees
 ----------------------------------------------------------------
             Standard Nuclear Orientation (Angstroms)
    I     Atom           X                Y                Z
 ----------------------------------------------------------------
    1      C       3.2942481334     0.1157243848     1.0326105572
    2      C       2.6804511683     1.3821201086     0.9945915903
    3      C       3.2248431598    -0.7558076207    -0.0685595382
    4      C       2.5218101170    -0.3188604155    -1.1925557624
    5      C       1.9143274938     0.9291956941    -1.2303672706
    6      C       1.9748654100     1.8061207987    -0.1456612322
    7      H       1.3816944097     1.2349364004    -2.1245223432
    8      H       2.4479714705    -0.9744292884    -2.0538903609
    9      C       1.3085110529     3.1575197435    -0.2408283667
   10      C       3.8583863107    -2.1279853852    -0.0718643708
   11      H       4.9477146481    -2.0615609405    -0.0465855972
   12      H       3.5633620095    -2.6752473237    -0.9689186754
   13      H       3.5570612202    -2.7181140715     0.7976252563
   14      H       1.9961784372     3.9678856149     0.0138817034
   15      H       0.4649596393     3.2312825228     0.4479959422
   16      H       0.9461973708     3.3271015257    -1.2563178388
   17      H       3.8027687052    -0.1773270229     1.8814611207
   18      H       2.7490944041     2.0067516547     1.8132162928
   19      C      -1.8961539145    -0.9287391641     1.2750885179
   20      C      -2.5099508796     0.3376565596     1.2370695510
   21      C      -1.9655588881    -1.8002711697     0.1739184225
   22      C      -2.6685919309    -1.3633239645    -0.9500778017
   23      C      -3.2760745541    -0.1152678549    -0.9878893099
   24      C      -3.2155366379     0.7616572497     0.0968167285
   25      H      -3.8087076382     0.1904728514    -1.8820443825
   26      H      -2.7424305774    -2.0188928374    -1.8114124002
   27      C      -3.8818909950     2.1130561945     0.0016495940
   28      C      -1.3320157372    -3.1724489342     0.1706135899
   29      H      -0.2426873998    -3.1060244895     0.1958923635
   30      H      -1.6270400384    -3.7197108727    -0.7264407147
   31      H      -1.6333408277    -3.7625776205     1.0401032170
   32      H      -3.1942236107     2.9234220659     0.2563596641
   33      H      -4.7254424086     2.1868189738     0.6904739028
   34      H      -4.2442046771     2.2826379767    -1.0138398781
   35      H      -1.3876333427    -1.2217905719     2.1239390814
   36      H      -2.4413076438     0.9622881057     2.0556942535
 ----------------------------------------------------------------
 Molecular Point Group                 C1    NOp =  1
 Largest Abelian Subgroup              C1    NOp =  1
 Nuclear Repulsion Energy =   981.4866920110 hartrees
 There are       58 alpha and       58 beta electrons
 Requested basis set is 6-311++G(d,p)
 There are 196 shells and 492 basis functions

 Total QAlloc Memory Limit   4000 MB
 Mega-Array Size       392 MB
 MEM_STATIC part       400 MB
 A cutoff of  1.0D-12 yielded  14931 shell pairs
 There are     93305 function pairs (     98693 Cartesian)
 
 -------------------------------------------------------
 OpenMP Integral Computing Module                       
 Release: version 1.0, May 2013, Q-Chem Inc. Pittsburgh 
 -------------------------------------------------------
 Integral Job Info:
 Integral job number is                      11
 Integral operator is                         1
 short-range coefficients                     0
 long-range coefficients              100000000
 Omega coefficients                           0
 if combine SR and LR in K                    0
 Integral screening is                        0
 Integral computing path is                   2
 max size of driver memory is            800000
 size of driver memory is                593474
 size of scratch memory is              2361544
 max col of scratch BK array               1296
 max len of scratch array in speh3          155
 max len of scratch index in speh4           18
 max int batch size is                      520
 min int batch size is                       52
 fixed nKL is                                52
 max L of basis functions is                  2
 order of int derivative is                   0
 number of shells is                        196
 number of basis is                         508
 number of cartesian basis is               508
 number of contracted shell pairs         14931
 number of primitive shell pairs          32054
 maxK2 (contraction) of shell pair           36
 max number of K2 of shell pair               1
 max number of CS2 of shell pair           2897
 max number of PS2 of shell pair           4644
 mem total for path MDJ                  148506
 -------------------------------------------------------
 Smallest overlap matrix eigenvalue = 6.14E-07
 Linear dependence detected in AO basis
 Number of orthogonalized atomic orbitals = 490
 Maximum deviation from orthogonality = 1.242E-10

 Scale SEOQF with 1.000000e-01/1.000000e-01/1.000000e-01

 Standard Electronic Orientation quadrupole field applied
 Nucleus-field energy     =     0.0000000479 hartrees
 Guess from superposition of atomic densities
 Warning:  Energy on first SCF cycle will be non-variational
 A restricted hybrid HF-DFT SCF calculation will be
 performed using Pulay DIIS extrapolation
 Exchange:     0.2000 Hartree-Fock + 0.0800 Slater + 0.7200 B88
 Correlation:  0.1900 VWN1RPA + 0.8100 LYP
 Using SG-1 standard quadrature grid
 Dispersion:   Grimme D3
 SCF converges when DIIS error is below 1.0E-08
 using 4 threads for integral computing
 -------------------------------------------------------
 OpenMP Integral computing Module                
 Release: version 1.0, May 2013, Q-Chem Inc. Pittsburgh 
 -------------------------------------------------------
 -------------------------------------------------------
 OpenMP BLAS3 based DFT computing Module                
 Release: version 1.0, May 2013, Q-Chem Inc. Pittsburgh 
 -------------------------------------------------------
 ---------------------------------------
  Cycle       Energy         DIIS Error
 ---------------------------------------
    1    -625.3068547640      2.83E-02
    2    -621.5970580478      3.26E-03
    3    -621.5456124632      3.50E-03
    4    -621.9510211505      2.78E-04
    5    -621.9524344303      1.77E-04
    6    -621.9532864094      4.98E-05
    7    -621.9533511567      2.33E-05
    8    -621.9533686054      2.68E-06
    9    -621.9533687717      1.32E-06
   10    -621.9533688222      3.29E-07
   11    -621.9533688253      1.30E-07
   12    -621.9533688258      2.18E-08
   13    -621.9533688257      6.52E-09 Convergence criterion met
 ---------------------------------------
 SCF time:  CPU 559.02 s  wall 140.23 s
 SCF   energy in the final basis set = -621.95336883
 Total energy in the final basis set = -621.95336883
 
 --------------------------------------------------------------
 
                    Orbital Energies (a.u.)
 --------------------------------------------------------------
 
 Alpha MOs
 -- Occupied --
-10.178 -10.178 -10.177 -10.177 -10.166 -10.166 -10.166 -10.166
-10.165 -10.165 -10.165 -10.165 -10.165 -10.164 -10.164 -10.164
 -0.856  -0.856  -0.785  -0.785  -0.743  -0.743  -0.719  -0.719
 -0.656  -0.656  -0.610  -0.610  -0.575  -0.574  -0.494  -0.493
 -0.470  -0.469  -0.458  -0.457  -0.424  -0.422  -0.418  -0.418
 -0.415  -0.414  -0.402  -0.402  -0.395  -0.395  -0.374  -0.374
 -0.344  -0.342  -0.340  -0.340  -0.337  -0.336  -0.250  -0.249
 -0.234  -0.234
 -- Virtual --
 -0.014  -0.012  -0.012  -0.008  -0.007  -0.004   0.004   0.011
  0.012   0.017   0.022   0.027   0.031   0.038   0.041   0.043
  0.048   0.053   0.055   0.057   0.059   0.067   0.070   0.072
  0.076   0.084   0.085   0.090   0.091   0.099   0.100   0.104
  0.111   0.114   0.116   0.118   0.119   0.121   0.124   0.127
  0.129   0.131   0.133   0.136   0.141   0.142   0.142   0.144
  0.149   0.150   0.152   0.155   0.158   0.159   0.160   0.164
  0.167   0.167   0.170   0.176   0.177   0.179   0.181   0.184
  0.186   0.192   0.196   0.203   0.206   0.207   0.210   0.210
  0.213   0.221   0.224   0.226   0.234   0.236   0.238   0.241
  0.243   0.248   0.250   0.252   0.258   0.261   0.264   0.266
  0.270   0.272   0.281   0.286   0.289   0.290   0.294   0.300
  0.300   0.307   0.308   0.311   0.314   0.320   0.322   0.329
  0.331   0.335   0.338   0.344   0.349   0.354   0.366   0.367
  0.376   0.383   0.386   0.388   0.394   0.397   0.428   0.430
  0.469   0.476   0.483   0.488   0.504   0.516   0.526   0.533
  0.537   0.540   0.549   0.553   0.556   0.561   0.565   0.574
  0.577   0.584   0.584   0.592   0.599   0.603   0.609   0.613
  0.620   0.630   0.634   0.643   0.649   0.650   0.656   0.658
  0.665   0.670   0.671   0.683   0.687   0.692   0.693   0.698
  0.700   0.713   0.717   0.722   0.724   0.731   0.740   0.744
  0.759   0.761   0.771   0.775   0.780   0.783   0.788   0.792
  0.804   0.815   0.820   0.822   0.838   0.843   0.851   0.884
  0.890   0.901   0.907   0.910   0.917   0.918   0.930   0.931
  0.943   0.950   0.958   0.960   0.965   0.966   0.974   0.987
  0.995   1.010   1.016   1.024   1.025   1.034   1.041   1.046
  1.087   1.093   1.099   1.106   1.110   1.119   1.124   1.127
  1.151   1.152   1.331   1.335   1.337   1.340   1.372   1.374
  1.380   1.381   1.423   1.425   1.451   1.454   1.465   1.467
  1.473   1.475   1.480   1.487   1.542   1.544   1.549   1.553
  1.555   1.559   1.567   1.575   1.579   1.584   1.588   1.596
  1.612   1.615   1.618   1.621   1.625   1.628   1.634   1.646
  1.652   1.657   1.678   1.683   1.698   1.704   1.733   1.735
  1.745   1.749   1.791   1.791   1.805   1.806   1.830   1.836
  1.844   1.847   1.853   1.855   1.861   1.865   1.907   1.912
  1.914   1.925   1.946   1.949   1.950   1.952   1.981   1.983
  1.984   1.988   2.018   2.025   2.039   2.045   2.092   2.094
  2.101   2.102   2.134   2.141   2.152   2.155   2.161   2.165
  2.214   2.222   2.232   2.235   2.305   2.309   2.312   2.315
  2.329   2.331   2.425   2.426   2.427   2.430   2.449   2.452
  2.479   2.494   2.495   2.498   2.500   2.512   2.536   2.543
  2.557   2.563   2.571   2.577   2.584   2.593   2.599   2.605
  2.633   2.638   2.651   2.660   2.664   2.668   2.691   2.691
  2.716   2.717   2.736   2.746   2.757   2.760   2.765   2.769
  2.774   2.785   2.799   2.806   2.810   2.816   2.826   2.845
  2.869   2.886   2.908   2.915   2.937   2.947   2.954   2.958
  2.963   2.971   2.981   3.000   3.011   3.016   3.026   3.033
  3.110   3.112   3.182   3.185   3.191   3.200   3.242   3.243
  3.370   3.376   3.444   3.447   3.526   3.532   3.615   3.617
  3.681   3.687   3.716   3.736   3.793   3.795   3.798   3.801
  3.854   3.855   3.875   3.876   4.052   4.054   4.194   4.197
  4.218   4.220   4.295   4.297   4.385   4.386   4.849   4.850
 23.637  23.662  23.932  23.936  23.954  23.955  24.005  24.008
 24.012  24.021  24.086  24.088  24.118  24.119  24.200  24.200
 --------------------------------------------------------------
 
          Ground-State Mulliken Net Atomic Charges

     Atom                 Charge (a.u.)
  ----------------------------------------
      1 C                    -0.168528
      2 C                    -0.360050
      3 C                     0.550871
      4 C                    -0.473410
      5 C                    -0.396109
      6 C                     0.638481
      7 H                     0.150897
      8 H                     0.141935
      9 C                    -0.669452
     10 C                    -0.642620
     11 H                     0.156038
     12 H                     0.144506
     13 H                     0.148984
     14 H                     0.142594
     15 H                     0.165708
     16 H                     0.138696
     17 H                     0.161971
     18 H                     0.166926
     19 C                    -0.304092
     20 C                    -0.197868
     21 C                     0.657597
     22 C                    -0.523513
     23 C                    -0.506916
     24 C                     0.614833
     25 H                     0.146769
     26 H                     0.153102
     27 C                    -0.624169
     28 C                    -0.646838
     29 H                     0.174752
     30 H                     0.139057
     31 H                     0.145605
     32 H                     0.149450
     33 H                     0.159067
     34 H                     0.144029
     35 H                     0.159702
     36 H                     0.161993
  ----------------------------------------
  Sum of atomic charges =     0.000000

 -----------------------------------------------------------------
                    Cartesian Multipole Moments
 -----------------------------------------------------------------
    Charge (ESU x 10^10)
                -0.0000
    Dipole Moment (Debye)
         X       0.0714      Y       0.0376      Z       0.1499
       Tot       0.1702
    Quadrupole Moments (Debye-Ang)
        XX    -102.2131     XY      -5.4769     YY     -92.4238
        XZ       4.1102     YZ       1.8569     ZZ     -93.8837
    Octopole Moments (Debye-Ang^2)
       XXX       3.3752    XXY       0.8169    XYY       0.7111
       YYY       0.6506    XXZ       2.3920    XYZ       0.1299
       YYZ       1.1101    XZZ      -1.4184    YZZ      -0.5196
       ZZZ       0.4081
    Hexadecapole Moments (Debye-Ang^3)
      XXXX   -4696.9479   XXXY    -138.0370   XXYY   -1090.5884
      XYYY      12.8326   YYYY   -1995.3945   XXXZ      86.4143
      XXYZ      22.8615   XYYZ       8.9294   YYYZ      10.6227
      XXZZ    -835.3044   XYZZ      -5.3556   YYZZ    -416.3783
      XZZZ      22.5343   YZZZ       7.3880   ZZZZ    -573.8593
 -----------------------------------------------------------------
Archival summary:
1\1\vega03.cac.cornell.edu\SP\ProcedureUnspecified\BasisUnspecified\1620\jj585\TueApr1701:16:052018TueApr1701:16:052018\0\\#,ProcedureUnspecified,BasisUnspecified,\\0,1\C\C,1,1.3959\H,2,1.08495,1,118.972\C,2,1.38856,1,121.575,3,179.801,0\H,4,1.08475,2,119.38,1,179.653,0\C,4,1.39616,2,121.629,1,-0.129654,0\C,1,1.40604,2,117.481,3,-179.641,0\H,7,1.032,1,119.504,2,179.742,0\C,6,1.40634,4,117.536,2,0.183585,0\H,9,1.032,6,119.607,4,179.72,0\C,6,1.50976,4,119.611,2,179.442,0\H,11,1.09144,6,110.135,4,-7.24194,0\H,11,1.09156,6,111.21,4,113.289,0\H,11,1.09291,6,111.796,4,-127.427,0\C,1,1.51138,2,119.574,3,-0.333436,0\H,15,1.09144,1,110.104,2,-7.00566,0\H,15,1.09164,1,111.284,2,113.49,0\H,15,1.09319,1,111.89,2,-127.081,0\H,14,3.67711,11,134.456,6,18.7456,0\C,19,1.09156,14,136.927,11,62.8381,0\H,20,1.09144,19,108.669,14,22.0566,0\H,20,1.09291,19,106.802,14,138.441,0\C,20,1.50976,19,111.21,14,-99.335,0\C,23,1.39616,20,119.611,19,113.289,0\H,24,1.08475,23,118.991,20,-0.341033,0\C,24,1.38856,23,121.629,20,179.442,0\H,26,1.08495,24,119.453,23,179.671,0\C,26,1.3959,24,121.575,23,-0.129654,0\C,28,1.40604,26,117.481,24,0.160349,0\H,29,1.032,28,119.504,26,179.742,0\C,23,1.40634,20,122.848,19,-67.4939,0\H,31,1.032,23,119.607,20,0.487832,0\C,28,1.51138,26,119.574,24,179.468,0\H,33,1.09144,28,110.104,26,-7.00566,0\H,33,1.09164,28,111.284,26,113.49,0\H,33,1.09319,28,111.89,26,-127.081,0\\\@

 Total job time:  141.02s(wall), 561.48s(cpu) 
 Tue Apr 17 01:16:05 2018

        *************************************************************
        *                                                           *
        *  Thank you very much for using Q-Chem.  Have a nice day.  *
        *                                                           *
        *************************************************************


0 sent ACK to 0 
now end server 0 ... 
