mFile = /opt/software/qchem/qchem-5.0.1//bin/mpi/machines
Process 0 of 1 is on vega02.cac.cornell.edu - thread support 0
initial socket setup ...start
initial socket setup ...done 
now start server 0 ... 
vega02.cac.cornell.edu 10.84.3
Q-Chem Developer Version! Running on 10.84.3.*
                  Welcome to Q-Chem
     A Quantum Leap Into The Future Of Chemistry


 Q-Chem 5.0, Q-Chem, Inc., Pleasanton, CA (2017)

 Yihan Shao,  Zhengting Gan,  E. Epifanovsky,  A. T. B. Gilbert,  M. Wormit,  
 J. Kussmann,  A. W. Lange,  A. Behn,  Jia Deng,  Xintian Feng,  D. Ghosh,  
 M. Goldey,  P. R. Horn,  L. D. Jacobson,  I. Kaliman,  T. Kus,  A. Landau,  
 Jie Liu,  E. I. Proynov,  R. M. Richard,  R. P. Steele,  E. J. Sundstrom,  
 H. L. Woodcock III,  P. M. Zimmerman,  D. Zuev,  B. Albrecht,  E. Alguire,  
 S. A. Baeppler,  Z. Benda,  Y. A. Bernard,  E. J. Berquist,  K. B. Bravaya,  
 D. Casanova,  Chun-Min Chang,  Yunqing Chen,  A. Chien,  K. D. Closser,  
 M. P. Coons,  S. Dasgupta,  M. Diedenhofen,  Hainam Do,  R. G. Edgar,  
 Po-Tung Fang,  S. Fatehi,  Qingguo Feng,  Qinghui Ge,  A. Ghysels,  
 J. Gomes,  J. Gonthier,  A. Gunina,  M. W. D. Hanson-Heine,  
 P. H. P. Harbach,  A. W. Hauser,  J. E. Herr,  E. G. Hohenstein,  
 Z. C. Holden,  Kerwin Hui,  T.-C. Jagau,  Hyunjun Ji,  B. Kaduk,  
 K. Khistyaev,  Jaehoon Kim,  P. Klunzinger,  K. Koh,  D. Kosenkov,  
 T. Kowalczyk,  C. M. Krauter,  A. Kunitsa,  Ka Un Lao,  A. Laurent,  
 K. V. Lawler,  Joonho Lee,  D. Lefrancois,  S. Lehtola,  D. S. Levine,  
 Yi-Pei Li,  You-Sheng Lin,  Fenglai Liu,  E. Livshits,  A. Luenser,  
 P. Manohar,  E. Mansoor,  S. F. Manzer,  Shan-Ping Mao,  Yuezhi Mao,  
 N. Mardirossian,  A. V. Marenich,  L. A. Martinez-Martinez,  S. A. Maurer,  
 N. J. Mayhall,  S. C. McKenzie,  J.-M. Mewes,  A. F. Morrison,  K. Nanda,  
 T. S. Nguyen-Beck,  R. Olivares-Amaya,  J. A. Parkhill,  T. M. Perrine,  
 F. Plasser,  S. Prager,  A. Prociuk,  D. R. Rehn,  F. Rob,  M. Schneider,  
 N. Sergueev,  S. M. Sharada,  S. Sharma,  D. W. Small,  T. Stauch,  
 T. Stein,  Yu-Chuan Su,  A. J. W. Thom,  T. Tsuchimochi,  L. Vogt,  
 O. Vydrov,  M. A. Watson,  J. Wenzel,  M. de Wergifosse,  T. A. Wesolowski,  
 A. White,  J. Witte,  A. Yamada,  Jun Yang,  K. Yao,  S. Yeganeh,  
 S. R. Yost,  Zhi-Qiang You,  A. Zech,  Igor Ying Zhang,  Xing Zhang,  
 Yan Zhao,  Ying Zhu,  B. R. Brooks,  G. K. L. Chan,  C. J. Cramer,  
 M. S. Gordon,  W. J. Hehre,  A. Klamt,  M. W. Schmidt,  C. D. Sherrill,  
 D. G. Truhlar,  A. Aspuru-Guzik,  R. Baer,  A. T. Bell,  N. A. Besley,  
 Jeng-Da Chai,  A. Dreuw,  B. D. Dunietz,  T. R. Furlani,  Chao-Ping Hsu,  
 Yousung Jung,  Jing Kong,  D. S. Lambrecht,  WanZhen Liang,  C. Ochsenfeld,  
 V. A. Rassolov,  L. V. Slipchenko,  J. E. Subotnik,  T. Van Voorhis,  
 J. M. Herbert,  A. I. Krylov,  P. M. W. Gill,  M. Head-Gordon

 Contributors to earlier versions of Q-Chem not listed above: 
 R. D. Adamson,  B. Austin,  J. Baker,  G. J. O. Beran,  K. Brandhorst,  
 S. T. Brown,  E. F. C. Byrd,  A. K. Chakraborty,  C.-L. Cheng,  
 Siu Hung Chien,  D. M. Chipman,  D. L. Crittenden,  H. Dachsel,  
 R. A. DiStasio Jr.,  R. J. Doerksen,  A. D. Dutoi,  L. Fusti-Molnar,  
 W. A. Goddard III,  A. Golubeva-Zadorozhnaya,  S. R. Gwaltney,  G. Hawkins,  
 A. Heyden,  S. Hirata,  G. Kedziora,  F. J. Keil,  C. Kelley,  Jihan Kim,  
 R. A. King,  R. Z. Khaliullin,  P. P. Korambath,  W. Kurlancheek,  
 A. M. Lee,  M. S. Lee,  S. V. Levchenko,  Ching Yeh Lin,  D. Liotard,  
 R. C. Lochan,  I. Lotan,  P. E. Maslen,  N. Nair,  D. P. O'Neill,  
 D. Neuhauser,  E. Neuscamman,  C. M. Oana,  R. Olson,  B. Peters,  
 R. Peverati,  P. A. Pieniazek,  Y. M. Rhee,  J. Ritchie,  M. A. Rohrdanz,  
 E. Rosta,  N. J. Russ,  H. F. Schaefer III,  N. E. Schultz,  N. Shenvi,  
 A. C. Simmonett,  A. Sodt,  D. Stuck,  K. S. Thanthiriwatte,  V. Vanovschi,  
 Tao Wang,  A. Warshel,  C. F. Williams,  Q. Wu,  X. Xu,  W. Zhang

 Please cite Q-Chem as follows:
 Y. Shao et al., Mol. Phys. 113, 184-215 (2015)
 DOI: 10.1080/00268976.2014.952696

 Q-Chem 5.0.1 for Intel X86 EM64T Linux

 Parts of Q-Chem use Armadillo 5.200.1 (Boston Tea Smuggler).
 http://arma.sourceforge.net/

 Q-Chem begins on Wed Apr 18 00:43:51 2018  

Host: vega02.cac.cornell.edu
0

     Scratch files written to /scratch/jj585/vdw/01n10_distance_4.100_01.save//
 Parallel job on  1  processors

Checking the input file for inconsistencies... 	...done.

--------------------------------------------------------------
User input:
--------------------------------------------------------------
$molecule
0  1
C        -0.54745000        -1.06780000        +4.00559000
C        -0.56142000        +0.31696000        +4.13911000
C        -1.73924000        -1.80214000        +3.94851000
C        -2.94119000        -1.09612000        +4.02492000
C        -2.95535000        +0.29253000        +4.15822000
C        -1.76804000        +1.02463000        +4.21555000
H        -3.90669000        +0.81217000        +4.21697000
H        -3.88155000        -1.63698000        +3.98081000
C        -1.77837000        +2.52986000        +4.33052000
C        -1.72023000        -3.30813000        +3.83463000
H        -0.99451000        -3.64409000        +3.08868000
H        -2.70003000        -3.69824000        +3.54998000
H        -1.44504000        -3.77164000        +4.78828000
H        -1.50297000        +2.99840000        +3.37956000
H        -1.06510000        +2.87767000        +5.08311000
H        -2.76756000        +2.90121000        +4.60715000
H        +0.40310000        -1.58932000        +3.94588000
H        +0.37885000        +0.85811000        +4.18335000
@C        -0.58454000        -0.67556000        -0.07544000
@C        -0.59851000        +0.70920000        +0.05808000
@C        -1.77633000        -1.40990000        -0.13252000
@C        -2.97828000        -0.70388000        -0.05611000
@C        -2.99244000        +0.68477000        +0.07719000
@C        -1.80513000        +1.41687000        +0.13452000
@H        -3.94378000        +1.20441000        +0.13594000
@H        -3.91864000        -1.24474000        -0.10022000
@C        -1.81546000        +2.92210000        +0.24949000
@C        -1.75732000        -2.91589000        -0.24640000
@H        -1.03160000        -3.25185000        -0.99235000
@H        -2.73712000        -3.30600000        -0.53105000
@H        -1.48213000        -3.37940000        +0.70725000
@H        -1.54006000        +3.39064000        -0.70147000
@H        -1.10219000        +3.26991000        +1.00208000
@H        -2.80465000        +3.29345000        +0.52612000
@H        +0.36601000        -1.19708000        -0.13515000
@H        +0.34176000        +1.25035000        +0.10232000
$end

$rem
JOBTYPE                   SP
METHOD                    B3LYP
DFT_D                     d3_op
BASIS                     6-311++G(d,p)
SYMMETRY                  False
THRESH                    12
SCF_CONVERGENCE           8
MAX_SUB_FILE_NUM          128
MEM_STATIC                400
MEM_TOTAL                 4000
$end
--------------------------------------------------------------
 Adding empirical dispersion correction 
 ----------------------------------------------------------------
 Doing -D3(op) with
 s6 =   1.00000
 s8 =   0.78311
 a1 =   0.30000
 a2 =   4.25000
 n  =  10.00000
 -D3 energy without 3body term =     -0.0145405323 hartrees
 ----------------------------------------------------------------
             Standard Nuclear Orientation (Angstroms)
    I     Atom           X                Y                Z
 ----------------------------------------------------------------
    1      C      -0.5474500000    -1.0678000000     4.0055900000
    2      C      -0.5614200000     0.3169600000     4.1391100000
    3      C      -1.7392400000    -1.8021400000     3.9485100000
    4      C      -2.9411900000    -1.0961200000     4.0249200000
    5      C      -2.9553500000     0.2925300000     4.1582200000
    6      C      -1.7680400000     1.0246300000     4.2155500000
    7      H      -3.9066900000     0.8121700000     4.2169700000
    8      H      -3.8815500000    -1.6369800000     3.9808100000
    9      C      -1.7783700000     2.5298600000     4.3305200000
   10      C      -1.7202300000    -3.3081300000     3.8346300000
   11      H      -0.9945100000    -3.6440900000     3.0886800000
   12      H      -2.7000300000    -3.6982400000     3.5499800000
   13      H      -1.4450400000    -3.7716400000     4.7882800000
   14      H      -1.5029700000     2.9984000000     3.3795600000
   15      H      -1.0651000000     2.8776700000     5.0831100000
   16      H      -2.7675600000     2.9012100000     4.6071500000
   17      H       0.4031000000    -1.5893200000     3.9458800000
   18      H       0.3788500000     0.8581100000     4.1833500000
   19      GH     -0.5845400000    -0.6755600000    -0.0754400000
   20      GH     -0.5985100000     0.7092000000     0.0580800000
   21      GH     -1.7763300000    -1.4099000000    -0.1325200000
   22      GH     -2.9782800000    -0.7038800000    -0.0561100000
   23      GH     -2.9924400000     0.6847700000     0.0771900000
   24      GH     -1.8051300000     1.4168700000     0.1345200000
   25      GH     -3.9437800000     1.2044100000     0.1359400000
   26      GH     -3.9186400000    -1.2447400000    -0.1002200000
   27      GH     -1.8154600000     2.9221000000     0.2494900000
   28      GH     -1.7573200000    -2.9158900000    -0.2464000000
   29      GH     -1.0316000000    -3.2518500000    -0.9923500000
   30      GH     -2.7371200000    -3.3060000000    -0.5310500000
   31      GH     -1.4821300000    -3.3794000000     0.7072500000
   32      GH     -1.5400600000     3.3906400000    -0.7014700000
   33      GH     -1.1021900000     3.2699100000     1.0020800000
   34      GH     -2.8046500000     3.2934500000     0.5261200000
   35      GH      0.3660100000    -1.1970800000    -0.1351500000
   36      GH      0.3417600000     1.2503500000     0.1023200000
 ----------------------------------------------------------------
 Nuclear Repulsion Energy =   339.7884744113 hartrees
 There are       29 alpha and       29 beta electrons
 Requested basis set is 6-311++G(d,p)
 There are 196 shells and 492 basis functions

 Total QAlloc Memory Limit   4000 MB
 Mega-Array Size       392 MB
 MEM_STATIC part       400 MB
 A cutoff of  1.0D-12 yielded  15735 shell pairs
 There are    100575 function pairs (    107006 Cartesian)
 
 -------------------------------------------------------
 OpenMP Integral Computing Module                       
 Release: version 1.0, May 2013, Q-Chem Inc. Pittsburgh 
 -------------------------------------------------------
 Integral Job Info:
 Integral job number is                      11
 Integral operator is                         1
 short-range coefficients                     0
 long-range coefficients              100000000
 Omega coefficients                           0
 if combine SR and LR in K                    0
 Integral screening is                        0
 Integral computing path is                   2
 max size of driver memory is            800000
 size of driver memory is                593474
 size of scratch memory is              2361544
 max col of scratch BK array               1296
 max len of scratch array in speh3          155
 max len of scratch index in speh4           18
 max int batch size is                      520
 min int batch size is                       52
 fixed nKL is                                52
 max L of basis functions is                  2
 order of int derivative is                   0
 number of shells is                        196
 number of basis is                         508
 number of cartesian basis is               508
 number of contracted shell pairs         15735
 number of primitive shell pairs          33539
 maxK2 (contraction) of shell pair           36
 max number of K2 of shell pair               1
 max number of CS2 of shell pair           3012
 max number of PS2 of shell pair           4944
 mem total for path MDJ                  165976
 -------------------------------------------------------
 Smallest overlap matrix eigenvalue = 1.85E-07
 Linear dependence detected in AO basis
 Number of orthogonalized atomic orbitals = 489
 Maximum deviation from orthogonality = 7.073E-11

 Scale SEOQF with 1.000000e-01/1.000000e-01/1.000000e-01

 Standard Electronic Orientation quadrupole field applied
 Nucleus-field energy     =    -0.0000000801 hartrees
 Guess from superposition of atomic densities
 Warning:  Energy on first SCF cycle will be non-variational

 Q-Chem warning in module /opt/software/qchem/qchem-5.0.1/libgen/Atomic_PolEc.C, line 58:

 No atomic polarizability available.


 Q-Chem warning in module /opt/software/qchem/qchem-5.0.1/libgen/Atomic_PolEc.C, line 73:

 No atomic polarizability available.


 Q-Chem warning in module /opt/software/qchem/qchem-5.0.1/libgen/Atomic_PolEc.C, line 58:

 No atomic polarizability available.


 Q-Chem warning in module /opt/software/qchem/qchem-5.0.1/libgen/Atomic_PolEc.C, line 73:

 No atomic polarizability available.


 Q-Chem warning in module /opt/software/qchem/qchem-5.0.1/libgen/Atomic_PolEc.C, line 58:

 No atomic polarizability available.


 Q-Chem warning in module /opt/software/qchem/qchem-5.0.1/libgen/Atomic_PolEc.C, line 73:

 No atomic polarizability available.


 Q-Chem warning in module /opt/software/qchem/qchem-5.0.1/libgen/Atomic_PolEc.C, line 58:

 No atomic polarizability available.


 Q-Chem warning in module /opt/software/qchem/qchem-5.0.1/libgen/Atomic_PolEc.C, line 73:

 No atomic polarizability available.


 Q-Chem warning in module /opt/software/qchem/qchem-5.0.1/libgen/Atomic_PolEc.C, line 58:

 No atomic polarizability available.


 Q-Chem warning in module /opt/software/qchem/qchem-5.0.1/libgen/Atomic_PolEc.C, line 73:

 No atomic polarizability available.


 Q-Chem warning in module /opt/software/qchem/qchem-5.0.1/libgen/Atomic_PolEc.C, line 58:

 No atomic polarizability available.


 Q-Chem warning in module /opt/software/qchem/qchem-5.0.1/libgen/Atomic_PolEc.C, line 73:

 No atomic polarizability available.


 Q-Chem warning in module /opt/software/qchem/qchem-5.0.1/libgen/Atomic_PolEc.C, line 58:

 No atomic polarizability available.


 Q-Chem warning in module /opt/software/qchem/qchem-5.0.1/libgen/Atomic_PolEc.C, line 73:

 No atomic polarizability available.


 Q-Chem warning in module /opt/software/qchem/qchem-5.0.1/libgen/Atomic_PolEc.C, line 58:

 No atomic polarizability available.


 Q-Chem warning in module /opt/software/qchem/qchem-5.0.1/libgen/Atomic_PolEc.C, line 73:

 No atomic polarizability available.


 Q-Chem warning in module /opt/software/qchem/qchem-5.0.1/libgen/Atomic_PolEc.C, line 58:

 No atomic polarizability available.


 Q-Chem warning in module /opt/software/qchem/qchem-5.0.1/libgen/Atomic_PolEc.C, line 73:

 No atomic polarizability available.


 Q-Chem warning in module /opt/software/qchem/qchem-5.0.1/libgen/Atomic_PolEc.C, line 58:

 No atomic polarizability available.


 Q-Chem warning in module /opt/software/qchem/qchem-5.0.1/libgen/Atomic_PolEc.C, line 73:

 No atomic polarizability available.


 Q-Chem warning in module /opt/software/qchem/qchem-5.0.1/libgen/Atomic_PolEc.C, line 58:

 No atomic polarizability available.


 Q-Chem warning in module /opt/software/qchem/qchem-5.0.1/libgen/Atomic_PolEc.C, line 73:

 No atomic polarizability available.


 Q-Chem warning in module /opt/software/qchem/qchem-5.0.1/libgen/Atomic_PolEc.C, line 58:

 No atomic polarizability available.


 Q-Chem warning in module /opt/software/qchem/qchem-5.0.1/libgen/Atomic_PolEc.C, line 73:

 No atomic polarizability available.


 Q-Chem warning in module /opt/software/qchem/qchem-5.0.1/libgen/Atomic_PolEc.C, line 58:

 No atomic polarizability available.


 Q-Chem warning in module /opt/software/qchem/qchem-5.0.1/libgen/Atomic_PolEc.C, line 73:

 No atomic polarizability available.


 Q-Chem warning in module /opt/software/qchem/qchem-5.0.1/libgen/Atomic_PolEc.C, line 58:

 No atomic polarizability available.


 Q-Chem warning in module /opt/software/qchem/qchem-5.0.1/libgen/Atomic_PolEc.C, line 73:

 No atomic polarizability available.


 Q-Chem warning in module /opt/software/qchem/qchem-5.0.1/libgen/Atomic_PolEc.C, line 58:

 No atomic polarizability available.


 Q-Chem warning in module /opt/software/qchem/qchem-5.0.1/libgen/Atomic_PolEc.C, line 73:

 No atomic polarizability available.


 Q-Chem warning in module /opt/software/qchem/qchem-5.0.1/libgen/Atomic_PolEc.C, line 58:

 No atomic polarizability available.


 Q-Chem warning in module /opt/software/qchem/qchem-5.0.1/libgen/Atomic_PolEc.C, line 73:

 No atomic polarizability available.


 Q-Chem warning in module /opt/software/qchem/qchem-5.0.1/libgen/Atomic_PolEc.C, line 58:

 No atomic polarizability available.


 Q-Chem warning in module /opt/software/qchem/qchem-5.0.1/libgen/Atomic_PolEc.C, line 73:

 No atomic polarizability available.


 Q-Chem warning in module /opt/software/qchem/qchem-5.0.1/libgen/Atomic_PolEc.C, line 58:

 No atomic polarizability available.


 Q-Chem warning in module /opt/software/qchem/qchem-5.0.1/libgen/Atomic_PolEc.C, line 73:

 No atomic polarizability available.

 A restricted hybrid HF-DFT SCF calculation will be
 performed using Pulay DIIS extrapolation
 Exchange:     0.2000 Hartree-Fock + 0.0800 Slater + 0.7200 B88
 Correlation:  0.1900 VWN1RPA + 0.8100 LYP
 Using SG-1 standard quadrature grid
 Dispersion:   Grimme D3
 SCF converges when DIIS error is below 1.0E-08
 using 4 threads for integral computing
 -------------------------------------------------------
 OpenMP Integral computing Module                
 Release: version 1.0, May 2013, Q-Chem Inc. Pittsburgh 
 -------------------------------------------------------
 -------------------------------------------------------
 OpenMP BLAS3 based DFT computing Module                
 Release: version 1.0, May 2013, Q-Chem Inc. Pittsburgh 
 -------------------------------------------------------
 ---------------------------------------
  Cycle       Energy         DIIS Error
 ---------------------------------------
    1    -312.6312834256      2.00E-02
    2    -310.8026604990      2.31E-03
    3    -310.7709432517      2.51E-03
    4    -310.9800025817      1.91E-04
    5    -310.9807390102      1.12E-04
    6    -310.9810761899      1.80E-05
    7    -310.9810832597      6.94E-06
    8    -310.9810846213      1.00E-06
    9    -310.9810846457      4.97E-07
   10    -310.9810846533      1.62E-07
   11    -310.9810846542      1.33E-08
   12    -310.9810846541      1.25E-08
   13    -310.9810846541      1.02E-09 Convergence criterion met
 ---------------------------------------
 SCF time:  CPU 664.69 s  wall 166.99 s
 SCF   energy in the final basis set = -310.98108465
 Total energy in the final basis set = -310.98108465
 
 --------------------------------------------------------------
 
                    Orbital Energies (a.u.)
 --------------------------------------------------------------
 
 Alpha MOs
 -- Occupied --
-10.180 -10.180 -10.171 -10.170 -10.170 -10.170 -10.167 -10.167
 -0.860  -0.787  -0.744  -0.721  -0.657  -0.608  -0.575  -0.494
 -0.473  -0.452  -0.425  -0.419  -0.417  -0.402  -0.398  -0.375
 -0.346  -0.342  -0.337  -0.254  -0.237
 -- Virtual --
 -0.015  -0.011  -0.008   0.001   0.008   0.020   0.021   0.029
  0.030   0.039   0.043   0.051   0.053   0.056   0.057   0.059
  0.064   0.073   0.079   0.081   0.086   0.089   0.092   0.095
  0.100   0.103   0.107   0.111   0.115   0.116   0.121   0.123
  0.127   0.128   0.130   0.134   0.143   0.145   0.147   0.148
  0.149   0.152   0.157   0.157   0.160   0.163   0.166   0.170
  0.177   0.178   0.182   0.183   0.187   0.191   0.196   0.197
  0.204   0.205   0.208   0.210   0.213   0.217   0.218   0.224
  0.227   0.232   0.235   0.237   0.242   0.251   0.253   0.259
  0.259   0.260   0.267   0.268   0.272   0.274   0.279   0.282
  0.287   0.288   0.296   0.298   0.300   0.307   0.315   0.319
  0.324   0.327   0.330   0.331   0.340   0.345   0.352   0.356
  0.371   0.374   0.381   0.383   0.389   0.402   0.411   0.418
  0.424   0.430   0.435   0.440   0.449   0.452   0.461   0.468
  0.477   0.480   0.494   0.499   0.512   0.518   0.525   0.533
  0.536   0.551   0.558   0.561   0.566   0.574   0.582   0.585
  0.589   0.598   0.602   0.611   0.616   0.619   0.621   0.630
  0.637   0.639   0.646   0.652   0.653   0.665   0.666   0.672
  0.680   0.686   0.693   0.703   0.705   0.709   0.716   0.728
  0.732   0.742   0.755   0.768   0.771   0.776   0.782   0.789
  0.801   0.805   0.813   0.818   0.838   0.846   0.869   0.883
  0.896   0.910   0.919   0.925   0.933   0.941   0.945   0.957
  0.962   0.974   0.983   1.006   1.016   1.021   1.028   1.037
  1.042   1.052   1.059   1.077   1.104   1.111   1.116   1.129
  1.140   1.152   1.157   1.188   1.210   1.215   1.229   1.236
  1.315   1.333   1.353   1.377   1.390   1.423   1.431   1.433
  1.454   1.467   1.480   1.486   1.497   1.503   1.516   1.523
  1.532   1.546   1.552   1.556   1.559   1.562   1.569   1.588
  1.590   1.613   1.618   1.622   1.628   1.632   1.645   1.671
  1.677   1.686   1.701   1.706   1.716   1.725   1.731   1.740
  1.746   1.748   1.760   1.765   1.785   1.786   1.794   1.805
  1.823   1.829   1.830   1.840   1.846   1.849   1.861   1.881
  1.893   1.895   1.905   1.920   1.927   1.935   1.939   1.950
  1.963   1.965   1.979   1.993   1.996   1.999   2.025   2.044
  2.052   2.052   2.065   2.085   2.090   2.107   2.113   2.122
  2.125   2.145   2.157   2.163   2.196   2.212   2.223   2.228
  2.268   2.298   2.303   2.304   2.316   2.322   2.336   2.339
  2.392   2.404   2.408   2.409   2.415   2.421   2.432   2.437
  2.456   2.470   2.482   2.485   2.499   2.502   2.522   2.535
  2.554   2.563   2.568   2.572   2.582   2.588   2.604   2.609
  2.630   2.632   2.653   2.667   2.676   2.683   2.690   2.738
  2.749   2.767   2.773   2.782   2.794   2.800   2.812   2.839
  2.844   2.846   2.859   2.872   2.915   2.917   2.930   2.936
  2.944   2.954   2.970   2.975   2.992   2.998   3.005   3.028
  3.059   3.065   3.091   3.118   3.134   3.182   3.190   3.203
  3.237   3.247   3.282   3.292   3.348   3.363   3.366   3.404
  3.411   3.451   3.460   3.475   3.486   3.518   3.524   3.565
  3.574   3.577   3.591   3.598   3.618   3.652   3.683   3.688
  3.707   3.764   3.780   3.808   3.811   3.829   3.848   3.998
  4.009   4.053   4.084   4.164   4.173   4.287   4.291   4.383
  4.630   4.677   4.803   4.834   4.854   4.854   4.861   4.869
  4.898   4.933   5.087   5.403   7.101   7.120   7.201   7.220
  7.247   7.386   7.605   7.658   7.726   7.769   7.775   7.792
  7.796   7.799   7.856   7.858   7.873   7.918   7.978   8.034
  8.137   8.388   8.532   8.934   9.680   9.988  10.000  10.174
 10.218  10.247  10.251  10.310  23.646  23.941  23.952  23.981
 24.027  24.085  24.109  24.195  69.893  69.967  69.970  70.130
 70.130  70.149  70.172  70.207
 --------------------------------------------------------------
 
          Ground-State Mulliken Net Atomic Charges

     Atom                 Charge (a.u.)
  ----------------------------------------
      1 C                    -0.324628
      2 C                    -0.380424
      3 C                     0.635099
      4 C                    -0.353010
      5 C                    -0.452570
      6 C                     0.580193
      7 H                     0.168840
      8 H                     0.160990
      9 C                    -0.696591
     10 C                    -0.590955
     11 H                     0.139883
     12 H                     0.136574
     13 H                     0.163462
     14 H                     0.180933
     15 H                     0.143139
     16 H                     0.137698
     17 H                     0.175562
     18 H                     0.177740
     19 GH                   -0.013342
     20 GH                    0.009377
     21 GH                   -0.067475
     22 GH                    0.023948
     23 GH                    0.000556
     24 GH                   -0.021384
     25 GH                    0.002767
     26 GH                    0.005226
     27 GH                    0.027199
     28 GH                    0.014795
     29 GH                   -0.000385
     30 GH                   -0.000668
     31 GH                    0.013501
     32 GH                   -0.000712
     33 GH                   -0.002710
     34 GH                    0.000744
     35 GH                    0.002600
     36 GH                    0.004027
  ----------------------------------------
  Sum of atomic charges =     0.000000

 -----------------------------------------------------------------
                    Cartesian Multipole Moments
 -----------------------------------------------------------------
    Charge (ESU x 10^10)
                 0.0000
    Dipole Moment (Debye)
         X       0.0596      Y       0.0012      Z      -0.0116
       Tot       0.0607
    Quadrupole Moments (Debye-Ang)
        XX     -46.3172     XY      -0.0299     YY     -44.8386
        XZ       0.2077     YZ       0.6238     ZZ     -52.8184
    Octopole Moments (Debye-Ang^2)
       XXX     242.0405    XXY      18.0327    XYY      78.6961
       YYY      52.2479    XXZ    -188.9766    XYZ      -1.2214
       YYZ    -183.5191    XZZ      93.9229    YZZ      25.5807
       ZZZ    -646.1873
    Hexadecapole Moments (Debye-Ang^3)
      XXXX   -1153.7193   XXXY     -90.5469   XXYY    -373.0561
      XYYY     -87.7172   YYYY   -1138.7001   XXXZ     988.9213
      XXYZ      65.2410   XYYZ     322.6393   YYYZ     169.4008
      XXZZ   -1011.2447   XYZZ     -44.5683   YYZZ    -954.8001
      XZZZ    1145.4379   YZZZ     235.2508   ZZZZ   -5359.0478
 -----------------------------------------------------------------
Archival summary:
1\1\vega02.cac.cornell.edu\SP\ProcedureUnspecified\BasisUnspecified\810h18\jj585\WedApr1800:46:392018WedApr1800:46:392018\0\\#,ProcedureUnspecified,BasisUnspecified,\\0,1\C\C,1,1.39605\H,2,1.0856,1,119.476\C,2,1.39511,1,121.149,3,179.917,0\H,4,1.0857,2,119.403,1,-179.853,0\C,4,1.39606,2,121.155,1,0.205671,0\C,1,1.40092,2,117.735,3,179.877,0\H,7,1.08578,1,119.465,2,-179.854,0\C,7,1.39125,1,121.109,2,0.234778,0\H,9,1.08586,7,119.479,1,179.822,0\C,1,1.50965,2,121.344,3,-1.22008,0\H,11,1.09221,1,111.376,2,14.1543,0\H,11,1.09367,1,111.41,2,134.753,0\H,11,1.09531,1,111.019,2,-105.715,0\C,6,1.51041,4,121.279,2,178.643,0\H,15,1.09235,6,111.373,4,15.5869,0\H,15,1.09361,6,111.474,4,136.192,0\H,15,1.09545,6,111.064,4,-104.227,0\Gh,14,2.42626,11,160.078,1,18.6341,0\Gh,19,1.09367,14,122.072,11,45.666,0\Gh,20,1.09221,19,107.954,14,49.5113,0\Gh,20,1.09531,19,107.303,14,165.21,0\Gh,20,1.50965,19,111.41,14,-73.0767,0\Gh,23,1.39605,20,121.344,19,134.753,0\Gh,24,1.0856,23,119.476,20,-1.22008,0\Gh,24,1.39511,23,121.149,20,178.696,0\Gh,26,1.0857,24,119.403,23,-179.853,0\Gh,26,1.39606,24,121.155,23,0.205671,0\Gh,23,1.40092,20,120.912,19,-46.3784,0\Gh,29,1.08578,23,119.465,20,1.23831,0\Gh,29,1.39125,23,121.109,20,-178.673,0\Gh,31,1.08586,29,119.479,23,179.822,0\Gh,28,1.51041,26,121.279,24,178.643,0\Gh,33,1.09235,28,111.373,26,15.5869,0\Gh,33,1.09361,28,111.474,26,136.192,0\Gh,33,1.09545,28,111.064,26,-104.227,0\\\@

 Total job time:  167.85s(wall), 667.16s(cpu) 
 Wed Apr 18 00:46:39 2018

        *************************************************************
        *                                                           *
        *  Thank you very much for using Q-Chem.  Have a nice day.  *
        *                                                           *
        *************************************************************


0 sent ACK to 0 
now end server 0 ... 
