mFile = /opt/software/qchem/qchem-5.0.1//bin/mpi/machines
Process 0 of 1 is on vega03.cac.cornell.edu - thread support 0
initial socket setup ...start
initial socket setup ...done 
now start server 0 ... 
vega03 10.84.3
Q-Chem Developer Version! Running on 10.84.3.*
                  Welcome to Q-Chem
     A Quantum Leap Into The Future Of Chemistry


 Q-Chem 5.0, Q-Chem, Inc., Pleasanton, CA (2017)

 Yihan Shao,  Zhengting Gan,  E. Epifanovsky,  A. T. B. Gilbert,  M. Wormit,  
 J. Kussmann,  A. W. Lange,  A. Behn,  Jia Deng,  Xintian Feng,  D. Ghosh,  
 M. Goldey,  P. R. Horn,  L. D. Jacobson,  I. Kaliman,  T. Kus,  A. Landau,  
 Jie Liu,  E. I. Proynov,  R. M. Richard,  R. P. Steele,  E. J. Sundstrom,  
 H. L. Woodcock III,  P. M. Zimmerman,  D. Zuev,  B. Albrecht,  E. Alguire,  
 S. A. Baeppler,  Z. Benda,  Y. A. Bernard,  E. J. Berquist,  K. B. Bravaya,  
 D. Casanova,  Chun-Min Chang,  Yunqing Chen,  A. Chien,  K. D. Closser,  
 M. P. Coons,  S. Dasgupta,  M. Diedenhofen,  Hainam Do,  R. G. Edgar,  
 Po-Tung Fang,  S. Fatehi,  Qingguo Feng,  Qinghui Ge,  A. Ghysels,  
 J. Gomes,  J. Gonthier,  A. Gunina,  M. W. D. Hanson-Heine,  
 P. H. P. Harbach,  A. W. Hauser,  J. E. Herr,  E. G. Hohenstein,  
 Z. C. Holden,  Kerwin Hui,  T.-C. Jagau,  Hyunjun Ji,  B. Kaduk,  
 K. Khistyaev,  Jaehoon Kim,  P. Klunzinger,  K. Koh,  D. Kosenkov,  
 T. Kowalczyk,  C. M. Krauter,  A. Kunitsa,  Ka Un Lao,  A. Laurent,  
 K. V. Lawler,  Joonho Lee,  D. Lefrancois,  S. Lehtola,  D. S. Levine,  
 Yi-Pei Li,  You-Sheng Lin,  Fenglai Liu,  E. Livshits,  A. Luenser,  
 P. Manohar,  E. Mansoor,  S. F. Manzer,  Shan-Ping Mao,  Yuezhi Mao,  
 N. Mardirossian,  A. V. Marenich,  L. A. Martinez-Martinez,  S. A. Maurer,  
 N. J. Mayhall,  S. C. McKenzie,  J.-M. Mewes,  A. F. Morrison,  K. Nanda,  
 T. S. Nguyen-Beck,  R. Olivares-Amaya,  J. A. Parkhill,  T. M. Perrine,  
 F. Plasser,  S. Prager,  A. Prociuk,  D. R. Rehn,  F. Rob,  M. Schneider,  
 N. Sergueev,  S. M. Sharada,  S. Sharma,  D. W. Small,  T. Stauch,  
 T. Stein,  Yu-Chuan Su,  A. J. W. Thom,  T. Tsuchimochi,  L. Vogt,  
 O. Vydrov,  M. A. Watson,  J. Wenzel,  M. de Wergifosse,  T. A. Wesolowski,  
 A. White,  J. Witte,  A. Yamada,  Jun Yang,  K. Yao,  S. Yeganeh,  
 S. R. Yost,  Zhi-Qiang You,  A. Zech,  Igor Ying Zhang,  Xing Zhang,  
 Yan Zhao,  Ying Zhu,  B. R. Brooks,  G. K. L. Chan,  C. J. Cramer,  
 M. S. Gordon,  W. J. Hehre,  A. Klamt,  M. W. Schmidt,  C. D. Sherrill,  
 D. G. Truhlar,  A. Aspuru-Guzik,  R. Baer,  A. T. Bell,  N. A. Besley,  
 Jeng-Da Chai,  A. Dreuw,  B. D. Dunietz,  T. R. Furlani,  Chao-Ping Hsu,  
 Yousung Jung,  Jing Kong,  D. S. Lambrecht,  WanZhen Liang,  C. Ochsenfeld,  
 V. A. Rassolov,  L. V. Slipchenko,  J. E. Subotnik,  T. Van Voorhis,  
 J. M. Herbert,  A. I. Krylov,  P. M. W. Gill,  M. Head-Gordon

 Contributors to earlier versions of Q-Chem not listed above: 
 R. D. Adamson,  B. Austin,  J. Baker,  G. J. O. Beran,  K. Brandhorst,  
 S. T. Brown,  E. F. C. Byrd,  A. K. Chakraborty,  C.-L. Cheng,  
 Siu Hung Chien,  D. M. Chipman,  D. L. Crittenden,  H. Dachsel,  
 R. A. DiStasio Jr.,  R. J. Doerksen,  A. D. Dutoi,  L. Fusti-Molnar,  
 W. A. Goddard III,  A. Golubeva-Zadorozhnaya,  S. R. Gwaltney,  G. Hawkins,  
 A. Heyden,  S. Hirata,  G. Kedziora,  F. J. Keil,  C. Kelley,  Jihan Kim,  
 R. A. King,  R. Z. Khaliullin,  P. P. Korambath,  W. Kurlancheek,  
 A. M. Lee,  M. S. Lee,  S. V. Levchenko,  Ching Yeh Lin,  D. Liotard,  
 R. C. Lochan,  I. Lotan,  P. E. Maslen,  N. Nair,  D. P. O'Neill,  
 D. Neuhauser,  E. Neuscamman,  C. M. Oana,  R. Olson,  B. Peters,  
 R. Peverati,  P. A. Pieniazek,  Y. M. Rhee,  J. Ritchie,  M. A. Rohrdanz,  
 E. Rosta,  N. J. Russ,  H. F. Schaefer III,  N. E. Schultz,  N. Shenvi,  
 A. C. Simmonett,  A. Sodt,  D. Stuck,  K. S. Thanthiriwatte,  V. Vanovschi,  
 Tao Wang,  A. Warshel,  C. F. Williams,  Q. Wu,  X. Xu,  W. Zhang

 Please cite Q-Chem as follows:
 Y. Shao et al., Mol. Phys. 113, 184-215 (2015)
 DOI: 10.1080/00268976.2014.952696

 Q-Chem 5.0.1 for Intel X86 EM64T Linux

 Parts of Q-Chem use Armadillo 5.200.1 (Boston Tea Smuggler).
 http://arma.sourceforge.net/

 Q-Chem begins on Mon Apr  2 15:16:31 2018  

Host: vega03.cac.cornell.edu
0

     Scratch files written to /scratch/jj585/vdw/10n01_distance_4.500_01.save//
 Parallel job on  1  processors

Checking the input file for inconsistencies... 	...done.

--------------------------------------------------------------
User input:
--------------------------------------------------------------
$molecule
0  1
C        -0.51347000        -1.07606000        +4.41587000
C        -0.52612000        +0.32642000        +4.53769000
C        +0.78066000        -1.83012000        +4.38902000
C        +0.75940000        +1.09200000        +4.54874000
O        +1.56742000        -1.48412000        +5.43089000
O        +1.07799000        -2.67641000        +3.58188000
O        +1.56881000        +0.69065000        +3.54399000
O        +1.04132000        +1.97861000        +5.31754000
C        +2.86546000        +1.30885000        +3.48918000
C        +2.85413000        -2.12444000        +5.48751000
C        -1.71223000        -1.80852000        +4.35724000
C        -2.90855000        -1.09292000        +4.42991000
C        -2.92216000        +0.29019000        +4.55210000
C        -1.74064000        +1.03168000        +4.61086000
H        +2.76932000        +2.38753000        +3.35812000
H        +2.73875000        -3.20555000        +5.57831000
H        -3.87257000        +0.81089000        +4.59986000
H        +3.42095000        +1.10857000        +4.40732000
H        +3.36281000        +0.86033000        +2.63209000
H        +3.34192000        -1.71517000        +6.36926000
H        +3.42986000        -1.90170000        +4.58735000
H        -3.84795000        -1.63447000        +4.39288000
H        -1.75789000        +2.05928000        +4.70452000
H        -1.70781000        -2.83629000        +4.26401000
@C        -0.54444000        -0.68370000        -0.06689000
@C        -0.55709000        +0.71878000        +0.05493000
@C        +0.74969000        -1.43776000        -0.09374000
@C        +0.72843000        +1.48436000        +0.06598000
@O        +1.53645000        -1.09176000        +0.94813000
@O        +1.04702000        -2.28405000        -0.90088000
@O        +1.53784000        +1.08301000        -0.93877000
@O        +1.01035000        +2.37097000        +0.83478000
@C        +2.83449000        +1.70121000        -0.99358000
@C        +2.82316000        -1.73208000        +1.00475000
@C        -1.74320000        -1.41616000        -0.12552000
@C        -2.93952000        -0.70056000        -0.05285000
@C        -2.95313000        +0.68255000        +0.06934000
@C        -1.77161000        +1.42404000        +0.12810000
@H        +2.73835000        +2.77989000        -1.12464000
@H        +2.70778000        -2.81319000        +1.09555000
@H        -3.90354000        +1.20325000        +0.11710000
@H        +3.38998000        +1.50093000        -0.07544000
@H        +3.33184000        +1.25269000        -1.85067000
@H        +3.31095000        -1.32281000        +1.88650000
@H        +3.39889000        -1.50934000        +0.10459000
@H        -3.87892000        -1.24211000        -0.08988000
@H        -1.78886000        +2.45164000        +0.22176000
@H        -1.73878000        -2.44393000        -0.21875000
$end

$rem
JOBTYPE                   SP
METHOD                    B3LYP
DFT_D                     d3_op
BASIS                     6-311++G(d,p)
SYMMETRY                  False
THRESH                    12
SCF_CONVERGENCE           8
MAX_SUB_FILE_NUM          128
MEM_STATIC                400
MEM_TOTAL                 4000
$end
--------------------------------------------------------------
 Adding empirical dispersion correction 
 ----------------------------------------------------------------
 Doing -D3(op) with
 s6 =   1.00000
 s8 =   0.78311
 a1 =   0.30000
 a2 =   4.25000
 n  =  10.00000
 -D3 energy without 3body term =     -0.0247543049 hartrees
 ----------------------------------------------------------------
             Standard Nuclear Orientation (Angstroms)
    I     Atom           X                Y                Z
 ----------------------------------------------------------------
    1      C      -0.5134700000    -1.0760600000     4.4158700000
    2      C      -0.5261200000     0.3264200000     4.5376900000
    3      C       0.7806600000    -1.8301200000     4.3890200000
    4      C       0.7594000000     1.0920000000     4.5487400000
    5      O       1.5674200000    -1.4841200000     5.4308900000
    6      O       1.0779900000    -2.6764100000     3.5818800000
    7      O       1.5688100000     0.6906500000     3.5439900000
    8      O       1.0413200000     1.9786100000     5.3175400000
    9      C       2.8654600000     1.3088500000     3.4891800000
   10      C       2.8541300000    -2.1244400000     5.4875100000
   11      C      -1.7122300000    -1.8085200000     4.3572400000
   12      C      -2.9085500000    -1.0929200000     4.4299100000
   13      C      -2.9221600000     0.2901900000     4.5521000000
   14      C      -1.7406400000     1.0316800000     4.6108600000
   15      H       2.7693200000     2.3875300000     3.3581200000
   16      H       2.7387500000    -3.2055500000     5.5783100000
   17      H      -3.8725700000     0.8108900000     4.5998600000
   18      H       3.4209500000     1.1085700000     4.4073200000
   19      H       3.3628100000     0.8603300000     2.6320900000
   20      H       3.3419200000    -1.7151700000     6.3692600000
   21      H       3.4298600000    -1.9017000000     4.5873500000
   22      H      -3.8479500000    -1.6344700000     4.3928800000
   23      H      -1.7578900000     2.0592800000     4.7045200000
   24      H      -1.7078100000    -2.8362900000     4.2640100000
   25      GH     -0.5444400000    -0.6837000000    -0.0668900000
   26      GH     -0.5570900000     0.7187800000     0.0549300000
   27      GH      0.7496900000    -1.4377600000    -0.0937400000
   28      GH      0.7284300000     1.4843600000     0.0659800000
   29      GH      1.5364500000    -1.0917600000     0.9481300000
   30      GH      1.0470200000    -2.2840500000    -0.9008800000
   31      GH      1.5378400000     1.0830100000    -0.9387700000
   32      GH      1.0103500000     2.3709700000     0.8347800000
   33      GH      2.8344900000     1.7012100000    -0.9935800000
   34      GH      2.8231600000    -1.7320800000     1.0047500000
   35      GH     -1.7432000000    -1.4161600000    -0.1255200000
   36      GH     -2.9395200000    -0.7005600000    -0.0528500000
   37      GH     -2.9531300000     0.6825500000     0.0693400000
   38      GH     -1.7716100000     1.4240400000     0.1281000000
   39      GH      2.7383500000     2.7798900000    -1.1246400000
   40      GH      2.7077800000    -2.8131900000     1.0955500000
   41      GH     -3.9035400000     1.2032500000     0.1171000000
   42      GH      3.3899800000     1.5009300000    -0.0754400000
   43      GH      3.3318400000     1.2526900000    -1.8506700000
   44      GH      3.3109500000    -1.3228100000     1.8865000000
   45      GH      3.3988900000    -1.5093400000     0.1045900000
   46      GH     -3.8789200000    -1.2421100000    -0.0898800000
   47      GH     -1.7888600000     2.4516400000     0.2217600000
   48      GH     -1.7387800000    -2.4439300000    -0.2187500000
 ----------------------------------------------------------------
 Nuclear Repulsion Energy =   900.9237854012 hartrees
 There are       51 alpha and       51 beta electrons
 Requested basis set is 6-311++G(d,p)
 There are 268 shells and 756 basis functions

 Total QAlloc Memory Limit   4000 MB
 Mega-Array Size       392 MB
 MEM_STATIC part       400 MB
 A cutoff of  1.0D-12 yielded  26237 shell pairs
 There are    212217 function pairs (    226149 Cartesian)
 
 -------------------------------------------------------
 OpenMP Integral Computing Module                       
 Release: version 1.0, May 2013, Q-Chem Inc. Pittsburgh 
 -------------------------------------------------------
 Integral Job Info:
 Integral job number is                      11
 Integral operator is                         1
 short-range coefficients                     0
 long-range coefficients              100000000
 Omega coefficients                           0
 if combine SR and LR in K                    0
 Integral screening is                        0
 Integral computing path is                   2
 max size of driver memory is            800000
 size of driver memory is                593474
 size of scratch memory is              2361544
 max col of scratch BK array               1296
 max len of scratch array in speh3          155
 max len of scratch index in speh4           18
 max int batch size is                      520
 min int batch size is                       52
 fixed nKL is                                52
 max L of basis functions is                  2
 order of int derivative is                   0
 number of shells is                        268
 number of basis is                         784
 number of cartesian basis is               784
 number of contracted shell pairs         26237
 number of primitive shell pairs          57896
 maxK2 (contraction) of shell pair           36
 max number of K2 of shell pair               1
 max number of CS2 of shell pair           4978
 max number of PS2 of shell pair          10368
 mem total for path MDJ                  433256
 -------------------------------------------------------
 Smallest overlap matrix eigenvalue = 1.65E-07
 Linear dependence detected in AO basis
 Number of orthogonalized atomic orbitals = 751
 Maximum deviation from orthogonality = 2.659E-10

 Scale SEOQF with 1.000000e-01/1.000000e-01/1.000000e-02

 Standard Electronic Orientation quadrupole field applied
 Nucleus-field energy     =     0.0000000102 hartrees
 Guess from superposition of atomic densities
 Warning:  Energy on first SCF cycle will be non-variational

 Q-Chem warning in module /opt/software/qchem/qchem-5.0.1/libgen/Atomic_PolEc.C, line 58:

 No atomic polarizability available.


 Q-Chem warning in module /opt/software/qchem/qchem-5.0.1/libgen/Atomic_PolEc.C, line 73:

 No atomic polarizability available.


 Q-Chem warning in module /opt/software/qchem/qchem-5.0.1/libgen/Atomic_PolEc.C, line 58:

 No atomic polarizability available.


 Q-Chem warning in module /opt/software/qchem/qchem-5.0.1/libgen/Atomic_PolEc.C, line 73:

 No atomic polarizability available.


 Q-Chem warning in module /opt/software/qchem/qchem-5.0.1/libgen/Atomic_PolEc.C, line 58:

 No atomic polarizability available.


 Q-Chem warning in module /opt/software/qchem/qchem-5.0.1/libgen/Atomic_PolEc.C, line 73:

 No atomic polarizability available.


 Q-Chem warning in module /opt/software/qchem/qchem-5.0.1/libgen/Atomic_PolEc.C, line 58:

 No atomic polarizability available.


 Q-Chem warning in module /opt/software/qchem/qchem-5.0.1/libgen/Atomic_PolEc.C, line 73:

 No atomic polarizability available.


 Q-Chem warning in module /opt/software/qchem/qchem-5.0.1/libgen/Atomic_PolEc.C, line 58:

 No atomic polarizability available.


 Q-Chem warning in module /opt/software/qchem/qchem-5.0.1/libgen/Atomic_PolEc.C, line 73:

 No atomic polarizability available.


 Q-Chem warning in module /opt/software/qchem/qchem-5.0.1/libgen/Atomic_PolEc.C, line 58:

 No atomic polarizability available.


 Q-Chem warning in module /opt/software/qchem/qchem-5.0.1/libgen/Atomic_PolEc.C, line 73:

 No atomic polarizability available.


 Q-Chem warning in module /opt/software/qchem/qchem-5.0.1/libgen/Atomic_PolEc.C, line 58:

 No atomic polarizability available.


 Q-Chem warning in module /opt/software/qchem/qchem-5.0.1/libgen/Atomic_PolEc.C, line 73:

 No atomic polarizability available.


 Q-Chem warning in module /opt/software/qchem/qchem-5.0.1/libgen/Atomic_PolEc.C, line 58:

 No atomic polarizability available.


 Q-Chem warning in module /opt/software/qchem/qchem-5.0.1/libgen/Atomic_PolEc.C, line 73:

 No atomic polarizability available.


 Q-Chem warning in module /opt/software/qchem/qchem-5.0.1/libgen/Atomic_PolEc.C, line 58:

 No atomic polarizability available.


 Q-Chem warning in module /opt/software/qchem/qchem-5.0.1/libgen/Atomic_PolEc.C, line 73:

 No atomic polarizability available.


 Q-Chem warning in module /opt/software/qchem/qchem-5.0.1/libgen/Atomic_PolEc.C, line 58:

 No atomic polarizability available.


 Q-Chem warning in module /opt/software/qchem/qchem-5.0.1/libgen/Atomic_PolEc.C, line 73:

 No atomic polarizability available.


 Q-Chem warning in module /opt/software/qchem/qchem-5.0.1/libgen/Atomic_PolEc.C, line 58:

 No atomic polarizability available.


 Q-Chem warning in module /opt/software/qchem/qchem-5.0.1/libgen/Atomic_PolEc.C, line 73:

 No atomic polarizability available.


 Q-Chem warning in module /opt/software/qchem/qchem-5.0.1/libgen/Atomic_PolEc.C, line 58:

 No atomic polarizability available.


 Q-Chem warning in module /opt/software/qchem/qchem-5.0.1/libgen/Atomic_PolEc.C, line 73:

 No atomic polarizability available.


 Q-Chem warning in module /opt/software/qchem/qchem-5.0.1/libgen/Atomic_PolEc.C, line 58:

 No atomic polarizability available.


 Q-Chem warning in module /opt/software/qchem/qchem-5.0.1/libgen/Atomic_PolEc.C, line 73:

 No atomic polarizability available.


 Q-Chem warning in module /opt/software/qchem/qchem-5.0.1/libgen/Atomic_PolEc.C, line 58:

 No atomic polarizability available.


 Q-Chem warning in module /opt/software/qchem/qchem-5.0.1/libgen/Atomic_PolEc.C, line 73:

 No atomic polarizability available.


 Q-Chem warning in module /opt/software/qchem/qchem-5.0.1/libgen/Atomic_PolEc.C, line 58:

 No atomic polarizability available.


 Q-Chem warning in module /opt/software/qchem/qchem-5.0.1/libgen/Atomic_PolEc.C, line 73:

 No atomic polarizability available.


 Q-Chem warning in module /opt/software/qchem/qchem-5.0.1/libgen/Atomic_PolEc.C, line 58:

 No atomic polarizability available.


 Q-Chem warning in module /opt/software/qchem/qchem-5.0.1/libgen/Atomic_PolEc.C, line 73:

 No atomic polarizability available.


 Q-Chem warning in module /opt/software/qchem/qchem-5.0.1/libgen/Atomic_PolEc.C, line 58:

 No atomic polarizability available.


 Q-Chem warning in module /opt/software/qchem/qchem-5.0.1/libgen/Atomic_PolEc.C, line 73:

 No atomic polarizability available.


 Q-Chem warning in module /opt/software/qchem/qchem-5.0.1/libgen/Atomic_PolEc.C, line 58:

 No atomic polarizability available.


 Q-Chem warning in module /opt/software/qchem/qchem-5.0.1/libgen/Atomic_PolEc.C, line 73:

 No atomic polarizability available.


 Q-Chem warning in module /opt/software/qchem/qchem-5.0.1/libgen/Atomic_PolEc.C, line 58:

 No atomic polarizability available.


 Q-Chem warning in module /opt/software/qchem/qchem-5.0.1/libgen/Atomic_PolEc.C, line 73:

 No atomic polarizability available.


 Q-Chem warning in module /opt/software/qchem/qchem-5.0.1/libgen/Atomic_PolEc.C, line 58:

 No atomic polarizability available.


 Q-Chem warning in module /opt/software/qchem/qchem-5.0.1/libgen/Atomic_PolEc.C, line 73:

 No atomic polarizability available.


 Q-Chem warning in module /opt/software/qchem/qchem-5.0.1/libgen/Atomic_PolEc.C, line 58:

 No atomic polarizability available.


 Q-Chem warning in module /opt/software/qchem/qchem-5.0.1/libgen/Atomic_PolEc.C, line 73:

 No atomic polarizability available.


 Q-Chem warning in module /opt/software/qchem/qchem-5.0.1/libgen/Atomic_PolEc.C, line 58:

 No atomic polarizability available.


 Q-Chem warning in module /opt/software/qchem/qchem-5.0.1/libgen/Atomic_PolEc.C, line 73:

 No atomic polarizability available.


 Q-Chem warning in module /opt/software/qchem/qchem-5.0.1/libgen/Atomic_PolEc.C, line 58:

 No atomic polarizability available.


 Q-Chem warning in module /opt/software/qchem/qchem-5.0.1/libgen/Atomic_PolEc.C, line 73:

 No atomic polarizability available.


 Q-Chem warning in module /opt/software/qchem/qchem-5.0.1/libgen/Atomic_PolEc.C, line 58:

 No atomic polarizability available.


 Q-Chem warning in module /opt/software/qchem/qchem-5.0.1/libgen/Atomic_PolEc.C, line 73:

 No atomic polarizability available.

 A restricted hybrid HF-DFT SCF calculation will be
 performed using Pulay DIIS extrapolation
 Exchange:     0.2000 Hartree-Fock + 0.0800 Slater + 0.7200 B88
 Correlation:  0.1900 VWN1RPA + 0.8100 LYP
 Using SG-1 standard quadrature grid
 Dispersion:   Grimme D3
 SCF converges when DIIS error is below 1.0E-08
 using 2 threads for integral computing
 -------------------------------------------------------
 OpenMP Integral computing Module                
 Release: version 1.0, May 2013, Q-Chem Inc. Pittsburgh 
 -------------------------------------------------------
 -------------------------------------------------------
 OpenMP BLAS3 based DFT computing Module                
 Release: version 1.0, May 2013, Q-Chem Inc. Pittsburgh 
 -------------------------------------------------------
 ---------------------------------------
  Cycle       Energy         DIIS Error
 ---------------------------------------
    1    -691.1651564214      1.68E-02
    2    -687.9416278852      2.16E-03
    3    -687.4071868115      3.91E-03
    4    -688.1665846620      8.63E-04
    5    -688.2087326629      2.37E-04
    6    -688.2112983376      8.28E-05
    7    -688.2116545230      2.01E-05
    8    -688.2116756752      5.88E-06
    9    -688.2116777298      1.61E-06
   10    -688.2116778500      8.61E-07
   11    -688.2116779058      1.22E-07
   12    -688.2116779060      1.17E-07
   13    -688.2116779067      1.24E-08
   14    -688.2116779066      5.73E-09 Convergence criterion met
 ---------------------------------------
 SCF time:  CPU 2565.92 s  wall 1298.68 s
 SCF   energy in the final basis set = -688.21167791
 Total energy in the final basis set = -688.21167791
 
 --------------------------------------------------------------
 
                    Orbital Energies (a.u.)
 --------------------------------------------------------------
 
 Alpha MOs
 -- Occupied --
-19.179 -19.178 -19.122 -19.122 -10.314 -10.314 -10.233 -10.233
-10.215 -10.214 -10.198 -10.198 -10.197 -10.197  -1.123  -1.116
 -1.033  -1.032  -0.887  -0.800  -0.787  -0.744  -0.733  -0.656
 -0.646  -0.596  -0.579  -0.555  -0.524  -0.516  -0.493  -0.492
 -0.485  -0.479  -0.472  -0.468  -0.440  -0.431  -0.416  -0.408
 -0.389  -0.387  -0.384  -0.369  -0.366  -0.324  -0.315  -0.301
 -0.297  -0.275  -0.272
 -- Virtual --
 -0.061  -0.046  -0.012  -0.007   0.003   0.004   0.013   0.016
  0.019   0.020   0.025   0.032   0.034   0.039   0.041   0.045
  0.050   0.052   0.056   0.060   0.062   0.064   0.068   0.073
  0.078   0.081   0.085   0.092   0.094   0.096   0.097   0.099
  0.103   0.106   0.107   0.108   0.112   0.115   0.119   0.122
  0.126   0.127   0.129   0.130   0.132   0.136   0.138   0.141
  0.143   0.144   0.145   0.149   0.151   0.156   0.156   0.157
  0.161   0.163   0.164   0.167   0.172   0.175   0.177   0.180
  0.183   0.184   0.189   0.194   0.195   0.198   0.199   0.203
  0.205   0.210   0.211   0.215   0.215   0.216   0.222   0.224
  0.228   0.230   0.232   0.236   0.237   0.240   0.242   0.246
  0.250   0.253   0.254   0.256   0.261   0.263   0.265   0.267
  0.271   0.273   0.275   0.277   0.278   0.280   0.285   0.290
  0.294   0.295   0.299   0.302   0.307   0.311   0.314   0.320
  0.323   0.323   0.324   0.330   0.331   0.336   0.338   0.343
  0.347   0.348   0.354   0.356   0.359   0.362   0.364   0.366
  0.368   0.373   0.376   0.384   0.385   0.386   0.390   0.394
  0.397   0.400   0.403   0.408   0.411   0.419   0.420   0.425
  0.428   0.433   0.435   0.436   0.440   0.446   0.455   0.456
  0.465   0.466   0.472   0.479   0.481   0.490   0.494   0.496
  0.498   0.505   0.511   0.515   0.521   0.529   0.530   0.539
  0.542   0.544   0.552   0.553   0.560   0.567   0.572   0.575
  0.584   0.589   0.595   0.597   0.602   0.606   0.612   0.616
  0.620   0.624   0.629   0.630   0.632   0.636   0.644   0.647
  0.654   0.660   0.668   0.670   0.674   0.680   0.683   0.687
  0.691   0.692   0.701   0.705   0.712   0.713   0.717   0.720
  0.728   0.733   0.735   0.740   0.744   0.752   0.755   0.764
  0.767   0.769   0.775   0.783   0.786   0.794   0.804   0.806
  0.808   0.811   0.820   0.826   0.836   0.841   0.845   0.865
  0.873   0.877   0.884   0.889   0.900   0.902   0.912   0.922
  0.928   0.938   0.948   0.962   0.965   0.972   0.981   0.984
  0.994   0.998   1.004   1.011   1.024   1.026   1.036   1.043
  1.047   1.048   1.052   1.057   1.070   1.083   1.084   1.090
  1.101   1.105   1.112   1.118   1.126   1.131   1.136   1.147
  1.158   1.163   1.168   1.173   1.184   1.195   1.206   1.213
  1.220   1.229   1.233   1.238   1.240   1.246   1.256   1.280
  1.285   1.290   1.295   1.299   1.308   1.313   1.323   1.331
  1.340   1.360   1.369   1.386   1.393   1.395   1.405   1.414
  1.423   1.458   1.468   1.474   1.485   1.493   1.500   1.507
  1.527   1.529   1.533   1.545   1.552   1.553   1.558   1.565
  1.568   1.572   1.582   1.592   1.595   1.598   1.615   1.617
  1.621   1.637   1.640   1.644   1.661   1.663   1.677   1.692
  1.697   1.706   1.715   1.724   1.730   1.732   1.741   1.743
  1.749   1.752   1.764   1.769   1.777   1.780   1.785   1.794
  1.801   1.813   1.815   1.815   1.823   1.834   1.835   1.842
  1.848   1.848   1.858   1.859   1.872   1.882   1.894   1.903
  1.907   1.914   1.919   1.933   1.937   1.945   1.952   1.956
  1.962   1.969   1.971   1.978   1.983   1.993   2.003   2.007
  2.011   2.014   2.020   2.021   2.041   2.069   2.074   2.082
  2.090   2.106   2.108   2.120   2.130   2.132   2.139   2.144
  2.154   2.169   2.178   2.181   2.192   2.198   2.213   2.271
  2.286   2.291   2.310   2.313   2.336   2.346   2.352   2.355
  2.358   2.370   2.386   2.392   2.402   2.405   2.412   2.438
  2.444   2.464   2.490   2.493   2.498   2.502   2.505   2.509
  2.513   2.518   2.523   2.530   2.536   2.541   2.563   2.573
  2.601   2.602   2.611   2.616   2.628   2.634   2.648   2.649
  2.656   2.668   2.679   2.684   2.692   2.699   2.700   2.717
  2.729   2.736   2.739   2.747   2.753   2.763   2.770   2.775
  2.778   2.787   2.791   2.801   2.809   2.829   2.839   2.855
  2.864   2.873   2.879   2.883   2.889   2.898   2.900   2.906
  2.909   2.917   2.925   2.931   2.957   2.961   2.971   2.980
  3.004   3.008   3.027   3.043   3.046   3.052   3.058   3.066
  3.078   3.083   3.088   3.094   3.111   3.118   3.142   3.147
  3.170   3.188   3.206   3.221   3.235   3.236   3.243   3.254
  3.260   3.267   3.283   3.291   3.293   3.302   3.324   3.347
  3.352   3.356   3.362   3.376   3.387   3.395   3.421   3.431
  3.433   3.438   3.483   3.493   3.500   3.534   3.549   3.554
  3.561   3.566   3.579   3.588   3.596   3.606   3.612   3.628
  3.657   3.662   3.666   3.687   3.744   3.782   3.794   3.802
  3.821   3.839   3.878   3.899   3.906   3.918   3.956   4.023
  4.031   4.048   4.076   4.088   4.097   4.126   4.162   4.174
  4.253   4.274   4.328   4.351   4.547   4.550   4.571   4.601
  4.666   4.721   4.736   4.780   4.799   4.820   4.826   4.836
  4.843   4.892   4.915   4.959   4.970   4.975   4.981   5.043
  5.070   5.132   5.161   5.173   5.182   5.187   5.235   5.247
  5.267   5.309   5.338   5.410   5.452   5.507   5.565   5.578
  5.624   5.632   5.698   5.735   5.888   5.910   6.114   6.140
  7.111   7.191   7.197   7.287   7.294   7.395   7.408   7.447
  7.716   7.726   7.791   7.796   7.802   7.815   7.826   7.844
  7.854   7.873   7.891   7.926   7.965   8.007   8.017   8.039
  8.062   8.094   8.267   8.391   8.637   8.952   9.761   9.995
 10.008  10.050  10.079  10.205  10.231  10.255  10.275  10.317
 13.557  13.615  13.631  13.698  13.708  13.732  13.879  13.945
 14.155  14.185  14.300  14.310  18.577  18.598  18.713  18.760
 23.662  23.856  23.869  23.932  23.950  23.957  24.006  24.055
 24.082  24.176  49.904  49.934  50.021  50.030  69.822  69.934
 69.962  69.968  70.030  70.041  70.065  70.077  70.087  70.124
139.754 139.784 139.830 139.861
 --------------------------------------------------------------
 
          Ground-State Mulliken Net Atomic Charges

     Atom                 Charge (a.u.)
  ----------------------------------------
      1 C                     0.727743
      2 C                     0.945969
      3 C                    -0.880555
      4 C                    -0.612138
      5 O                     0.110916
      6 O                    -0.104025
      7 O                     0.076472
      8 O                    -0.159505
      9 C                    -0.403042
     10 C                    -0.148295
     11 C                    -0.489834
     12 C                    -0.288693
     13 C                    -0.316417
     14 C                    -0.247349
     15 H                     0.210503
     16 H                     0.168170
     17 H                     0.182137
     18 H                     0.199475
     19 H                     0.116231
     20 H                     0.171871
     21 H                     0.184663
     22 H                     0.184430
     23 H                     0.207874
     24 H                     0.200858
     25 GH                   -0.073533
     26 GH                   -0.035852
     27 GH                   -0.008623
     28 GH                    0.066396
     29 GH                    0.001910
     30 GH                    0.001255
     31 GH                    0.000328
     32 GH                   -0.005682
     33 GH                   -0.014415
     34 GH                   -0.005916
     35 GH                    0.012901
     36 GH                   -0.004690
     37 GH                    0.007462
     38 GH                    0.018930
     39 GH                    0.001157
     40 GH                    0.004169
     41 GH                    0.000513
     42 GH                    0.002525
     43 GH                   -0.001115
     44 GH                   -0.007681
     45 GH                    0.001378
     46 GH                   -0.000099
     47 GH                    0.000098
     48 GH                    0.001128
  ----------------------------------------
  Sum of atomic charges =     0.000000

 -----------------------------------------------------------------
                    Cartesian Multipole Moments
 -----------------------------------------------------------------
    Charge (ESU x 10^10)
                 0.0000
    Dipole Moment (Debye)
         X      -0.0484      Y      -0.1169      Z       0.0524
       Tot       0.1369
    Quadrupole Moments (Debye-Ang)
        XX     -61.3917     XY      -0.0513     YY     -84.2511
        XZ      -0.0850     YZ     -10.2467     ZZ     -86.5381
    Octopole Moments (Debye-Ang^2)
       XXX     -34.6702    XXY      23.5880    XYY     -30.0084
       YYY      94.6789    XXZ    -274.4827    XYZ     -19.0184
       YYZ    -369.8878    XZZ      -8.4758    YZZ     -55.4126
       ZZZ   -1165.5341
    Hexadecapole Moments (Debye-Ang^3)
      XXXX   -1733.6033   XXXY      15.7516   XXYY    -483.1508
      XYYY      34.7026   YYYY   -1287.5469   XXXZ    -153.4362
      XXYZ      82.7643   XYYZ    -118.4932   YYYZ     379.1853
      XXZZ   -1604.9773   XYZZ    -164.8298   YYZZ   -1904.7327
      XZZZ    -109.8578   YZZZ    -122.7857   ZZZZ  -10750.1515
 -----------------------------------------------------------------
Archival summary:
1\1\vega03.cac.cornell.edu\SP\ProcedureUnspecified\BasisUnspecified\41010h24\jj585\MonApr215:38:122018MonApr215:38:122018\0\\#,ProcedureUnspecified,BasisUnspecified,\\0,1\O\C,1,1.3512\O,2,1.2069,1,123.501\C,1,1.43752,2,116.164,3,4.8931,0\H,4,1.08772,1,105.376,2,179.706,0\H,4,1.09086,1,110.507,2,-60.681,0\H,4,1.09163,1,110.367,2,60.0909,0\C,2,1.49626,1,110.928,3,178.057,0\C,8,1.40634,2,119.012,1,-130.615,0\H,9,1.032,8,121.232,2,-2.14291,0\C,9,1.39616,8,117.536,2,177.857,0\H,11,1.08475,9,118.991,8,-179.6,0\C,11,1.38856,9,121.629,8,0.183585,0\H,13,1.08495,11,119.453,9,179.671,0\C,13,1.3959,11,121.575,9,-0.129654,0\H,15,1.032,13,121.26,11,-179.84,0\C,15,1.40604,13,117.481,11,0.160349,0\C,17,1.49803,15,118.266,13,177.84,0\O,18,1.20668,17,125.302,15,50.5403,0\O,18,1.35063,17,111.128,15,-126.75,0\C,20,1.43835,18,115.94,17,-178.519,0\H,21,1.08762,20,105.403,18,179.104,0\H,21,1.09103,20,110.475,18,-61.3232,0\H,21,1.0915,20,110.399,18,59.3962,0\Gh,5,2.30753,4,129.379,1,-38.5296,0\Gh,25,1.08762,5,128.906,4,108.459,0\Gh,26,1.09103,25,110.661,5,-161.718,0\Gh,26,1.0915,25,110.808,5,77.1678,0\Gh,26,1.43835,25,105.403,5,-42.2688,0\Gh,29,1.35063,26,115.94,25,179.104,0\Gh,30,1.20668,29,123.512,26,4.13325,0\Gh,30,1.49803,29,111.128,26,-178.519,0\Gh,32,1.40604,30,118.266,29,-126.75,0\Gh,33,1.032,32,121.26,30,-2.16035,0\Gh,33,1.3959,32,117.481,30,177.84,0\Gh,35,1.08495,33,118.972,32,-179.641,0\Gh,35,1.38856,33,121.575,32,0.160349,0\Gh,37,1.08475,35,119.38,33,179.653,0\Gh,37,1.39616,35,121.629,33,-0.129654,0\Gh,39,1.032,37,121.232,35,-179.817,0\Gh,39,1.40634,37,117.536,35,0.183585,0\Gh,41,1.49626,39,119.012,37,177.857,0\Gh,42,1.2069,41,125.54,39,47.3939,0\Gh,42,1.3512,41,110.928,39,-130.615,0\Gh,44,1.43752,42,116.164,41,-177.05,0\Gh,45,1.08772,44,105.376,42,179.706,0\Gh,45,1.09086,44,110.507,42,-60.681,0\Gh,45,1.09163,44,110.367,42,60.0909,0\\\@

 Total job time:  1300.52s(wall), 2568.30s(cpu) 
 Mon Apr  2 15:38:12 2018

        *************************************************************
        *                                                           *
        *  Thank you very much for using Q-Chem.  Have a nice day.  *
        *                                                           *
        *************************************************************


0 sent ACK to 0 
now end server 0 ... 
