                  Welcome to Q-Chem
     A Quantum Leap Into The Future Of Chemistry


 Q-Chem 4.4, Q-Chem, Inc., Pleasanton, CA (2016)

 Y. Shao,  Z. Gan,  E. Epifanovsky,  A. T. B. Gilbert,  M. Wormit,  
 J. Kussmann,  A. W. Lange,  A. Behn,  J. Deng,  X. Feng,  D. Ghosh,  
 M. Goldey,  P. R. Horn,  L. D. Jacobson,  I. Kaliman,  R. Z. Khaliullin,  
 T. Kus,  A. Landau,  J. Liu,  E. I. Proynov,  Y. M. Rhee,  R. M. Richard,  
 M. A. Rohrdanz,  R. P. Steele,  E. J. Sundstrom,  H. L. Woodcock III,  
 P. M. Zimmerman,  D. Zuev,  B. Albrecht,  E. Alguire,  B. Austin,  
 S. A. Baeppler,  G. J. O. Beran,  Y. A. Bernard,  E. Berquist,  
 K. Brandhorst,  K. B. Bravaya,  S. T. Brown,  D. Casanova,  C.-M. Chang,  
 Y. Chen,  S. H. Chien,  K. D. Closser,  M. P. Coons,  D. L. Crittenden,  
 S. Dasgupta,  M. Diedenhofen,  R. A. DiStasio Jr.,  H. Do,  A. D. Dutoi,  
 R. G. Edgar,  P.-T. Fang,  S. Fatehi,  Q. Feng,  L. Fusti-Molnar,  
 A. Ghysels,  A. Golubeva-Zadorozhnaya,  J. Gomes,  A. Gunina,  
 M. W. D. Hanson-Heine,  P. H. P. Harbach,  A. W. Hauser,  E. G. Hohenstein,  
 Z. C. Holden,  K. Hui,  T.-C. Jagau,  H. Ji,  B. Kaduk,  K. Khistyaev,  
 Jaehoon Kim,  Jihan Kim,  R. A. King,  P. Klunzinger,  D. Kosenkov,  
 T. Kowalczyk,  C. M. Krauter,  A. Kunitsa,  K. U. Lao,  A. Laurent,  
 K. V. Lawler,  D. Lefrancois,  S. Lehtola,  S. V. Levchenko,  C. Y. Lin,  
 Y.-S. Lin,  F. Liu,  E. Livshits,  R. C. Lochan,  A. Luenser,  P. Manohar,  
 S. F. Manzer,  S.-P. Mao,  Y. Mao,  N. Mardirossian,  A. V. Marenich,  
 L. A. Martinez-Martinez,  S. A. Maurer,  N. J. Mayhall,  J.-M. Mewes,  
 A. F. Morrison,  K. Nanda,  C. M. Oana,  R. Olivares-Amaya,  D. P. O'Neill,  
 J. A. Parkhill,  T. M. Perrine,  R. Peverati,  P. A. Pieniazek,  F. Plasser,  
 A. Prociuk,  D. R. Rehn,  E. Rosta,  N. J. Russ,  N. Sergueev,  
 S. M. Sharada,  S. Sharma,  D. W. Small,  A. Sodt,  T. Stauch,  T. Stein,  
 D. Stuck,  Y.-C. Su,  A. J. W. Thom,  T. Tsuchimochi,  L. Vogt,  O. Vydrov,  
 T. Wang,  M. A. Watson,  J. Wenzel,  A. White,  C. F. Williams,  
 V. Vanovschi,  S. Yeganeh,  S. R. Yost,  Z.-Q. You,  I. Y. Zhang,  X. Zhang,  
 Y. Zhao,  B. R. Brooks,  G. K. L. Chan,  D. M. Chipman,  C. J. Cramer,  
 W. A. Goddard III,  M. S. Gordon,  W. J. Hehre,  A. Klamt,  
 H. F. Schaefer III,  M. W. Schmidt,  C. D. Sherrill,  D. G. Truhlar,  
 A. Warshel,  X. Xu,  A. Aspuru-Guzik,  R. Baer,  A. T. Bell,  N. A. Besley,  
 J.-D. Chai,  A. Dreuw,  B. D. Dunietz,  T. R. Furlani,  S. R. Gwaltney,  
 C.-P. Hsu,  Y. Jung,  J. Kong,  D. S. Lambrecht,  W. Liang,  C. Ochsenfeld,  
 V. A. Rassolov,  L. V. Slipchenko,  J. E. Subotnik,  T. Van Voorhis,  
 J. M. Herbert,  A. I. Krylov,  P. M. W. Gill,  M. Head-Gordon

 Contributors to earlier versions of Q-Chem not listed above: 
 R. D. Adamson,  J. Baker,  E. F. C. Byrd,  A. K. Chakraborty,  C.-L. Cheng,  
 H. Dachsel,  R. J. Doerksen,  G. Hawkins,  A. Heyden,  S. Hirata,  
 G. Kedziora,  F. J. Keil,  C. Kelley,  P. P. Korambath,  W. Kurlancheek,  
 A. M. Lee,  M. S. Lee,  D. Liotard,  I. Lotan,  P. E. Maslen,  N. Nair,  
 D. Neuhauser,  R. Olson,  B. Peters,  J. Ritchie,  N. E. Schultz,  
 N. Shenvi,  A. C. Simmonett,  K. S. Thanthiriwatte,  Q. Wu,  W. Zhang

 Please cite Q-Chem as follows:
 Y. Shao et al., Mol. Phys. 113, 184-215 (2015)
 DOI: 10.1080/00268976.2014.952696

 Q-Chem 4.3.0 for Intel X86 EM64T Linux

 Parts of Q-Chem use Armadillo 5.200.1 (Boston Tea Smuggler).
 http://arma.sourceforge.net/

 Q-Chem begins on Mon Oct  2 21:29:33 2017  

Host: nid03798
0

     Scratch files written to /global/cscratch1/sd/junteng/scratch/14/opt_1101.save//

Checking the input file for inconsistencies... 	...done.

--------------------------------------------------------------
User input:
--------------------------------------------------------------
$molecule
0  1
C    0.711  -1.958   0.589
C   -0.299  -1.995   1.756
C    1.089  -0.603   0.022
C   -0.528  -0.668   2.454
O    2.255  -0.726  -0.682
O    0.458   0.435   0.138
O    0.672  -0.221   2.944
O   -1.603  -0.140   2.687
C    0.580   1.027   3.634
C    2.698   0.490  -1.286
C   -0.031  -2.720  -0.508
C   -0.144  -4.202  -0.153
C   -1.210  -4.188   0.944
C   -1.515  -2.680   1.086
O   -1.391  -2.278  -0.299
H    1.639  -2.461   0.888
H    0.068  -2.659   2.552
H   -0.050   0.928   4.523
H    1.951   0.864  -1.993
H   -0.511  -4.776  -1.011
H    0.804  -4.638   0.173
H   -2.087  -4.746   0.595
H   -0.869  -4.649   1.876
H    1.587   1.311   3.953
H    0.196   1.807   2.969
H    3.619   0.278  -1.837
H    2.918   1.240  -0.519
H    0.300  -2.531  -1.532
C   -2.908  -2.427   1.624
H   -3.642  -3.061   1.114
H   -2.968  -2.632   2.696
H   -3.235  -1.402   1.426
$end


$opt
CONSTRAINT
tors    2    1    3    5    162.3
tors    1    2    4    7    -60.0
ENDCONSTRAINT
$end

$rem
JOBTYPE                   OPT
METHOD                    B3LYP
DFT_D                     EMPIRICAL_GRIMME3
BASIS                     6-31G*
GEOM_OPT_MAX_CYCLES       500
GEOM_OPT_TOL_GRADIENT     5
GEOM_OPT_TOL_DISPLACEMENT 5
GEOM_OPT_TOL_ENERGY       5
SYMMETRY                  False
THRESH                    12
SCF_CONVERGENCE           8
MAX_SUB_FILE_NUM          128
MEM_STATIC                400
MEM_TOTAL                 4000
$end

--------------------------------------------------------------
 ----------------------------------------------------------------
             Standard Nuclear Orientation (Angstroms)
    I     Atom           X                Y                Z
 ----------------------------------------------------------------
    1      C      -0.1011848019     0.8054220658     0.6072204492
    2      C       0.6620154878    -0.5364971559     0.5955533906
    3      C      -1.4015644380     0.8875516009    -0.1690949129
    4      C      -0.1410572282    -1.7318799813     0.1194146361
    5      O      -2.1190916287     1.9620046977     0.2792423188
    6      O      -1.7586593461     0.1451011244    -1.0692679610
    7      O      -1.2361871469    -1.8724092621     0.9323420513
    8      O       0.1839039632    -2.5367797787    -0.7380435496
    9      C      -2.0705618232    -2.9788079980     0.5833882767
   10      C      -3.3601324547     2.1543130106    -0.4008725103
   11      C       0.8921947687     1.7507805700    -0.0666573788
   12      C       2.1006898551     1.9956119456     0.8359583888
   13      C       2.8581814059     0.6714609442     0.7228580976
   14      C       1.9353848860    -0.1568246325    -0.1989024928
   15      O       1.4677351984     0.8937269451    -1.0780214566
   16      H      -0.3158357451     1.0989107000     1.6422969653
   17      H       0.9675145382    -0.8059543627     1.6169564177
   18      H      -1.5277085504    -3.9211288805     0.7032368423
   19      H      -3.1925366947     2.3218430413    -1.4693196780
   20      H       2.7207990583     2.8058706669     0.4368664437
   21      H       1.8242280680     2.2474343817     1.8632024401
   22      H       3.8327460722     0.8578355890     0.2561866896
   23      H       3.0366664167     0.1979666648     1.6931015044
   24      H      -2.9267737949    -2.9833521908     1.2640838105
   25      H      -2.4439876414    -2.8714877839    -0.4398988433
   26      H      -3.8403685125     3.0440784321     0.0168317195
   27      H      -4.0212059080     1.2961810682    -0.2403095674
   28      H       0.4702491978     2.6594561976    -0.5026946926
   29      C       2.6945415386    -1.2278384490    -0.9542253256
   30      H       3.6222933193    -0.8229488311    -1.3739312116
   31      H       2.9531506788    -2.0694657777    -0.3064647586
   32      H       2.1281180017    -1.5881402477    -1.8179990175
 ----------------------------------------------------------------
 Molecular Point Group                 C1    NOp =  1
 Largest Abelian Subgroup              C1    NOp =  1
 Nuclear Repulsion Energy =  1248.6097327267 hartrees
 There are       61 alpha and       61 beta electrons
 Requested basis set is 6-31G(d)
 There are 96 shells and 272 basis functions

 Total QAlloc Memory Limit   4000 MB
 Mega-Array Size       392 MB
 MEM_STATIC part       400 MB
 A cutoff of  1.0D-12 yielded   3731 shell pairs
 There are     32140 function pairs
 
 -------------------------------------------------------
 OpenMP Integral Computing Module                       
 Release: version 1.0, May 2013, Q-Chem Inc. Pittsburgh 
 -------------------------------------------------------
 Integral Job Info:
 Integral job number is                      11
 Integral operator is                         1
 short-range coefficients                     0
 long-range coefficients              100000000
 Omega coefficients                           0
 if combine SR and LR in K                    0
 Integral screening is                        0
 Integral computing path is                   2
 max size of driver memory is            800000
 size of driver memory is                593474
 size of scratch memory is              2260544
 max col of scratch BK array               1296
 max len of scratch array in speh3          155
 max len of scratch index in speh4           18
 max int batch size is                      520
 min int batch size is                       52
 fixed nKL is                                52
 max L of basis functions is                  2
 order of int derivative is                   0
 number of shells is                         96
 number of basis is                         272
 number of cartesian basis is               272
 number of contracted shell pairs          3731
 number of primitive shell pairs          12856
 maxK2 (contraction) of shell pair           36
 max number of K2 of shell pair               1
 max number of CS2 of shell pair            467
 max number of PS2 of shell pair           2016
 mem total for path MDJ                   89848
 -------------------------------------------------------
 Smallest overlap matrix eigenvalue = 8.86E-04

 Scale SEOQF with 1.000000e-01/1.000000e-01/1.000000e-01

 Standard Electronic Orientation quadrupole field applied
 Nucleus-field energy     =     0.0000000345 hartrees
 Guess from superposition of atomic densities
 Warning:  Energy on first SCF cycle will be non-variational
 A restricted hybrid HF-DFT SCF calculation will be
 performed using Pulay DIIS extrapolation
 Exchange:     0.2000 Hartree-Fock + 0.0800 Slater + 0.7200 B88
 Correlation:  0.1900 VWN1RPA + 0.8100 LYP
 Using SG-1 standard quadrature grid
 Dispersion:   Grimme D3
 SCF converges when DIIS error is below 1.0E-08
 using 24 threads for integral computing 
 -------------------------------------------------------
 OpenMP BLAS3 based DFT computing Module                
 Release: version 1.0, May 2013, Q-Chem Inc. Pittsburgh 
 -------------------------------------------------------
 ---------------------------------------
  Cycle       Energy         DIIS Error
 ---------------------------------------
    1    -808.1289451472      4.81E-02
    2    -804.6366665363      6.34E-03
    3    -804.0480725194      1.12E-02
    4    -804.9039932081      2.50E-03
    5    -804.9503002540      6.28E-04
    6    -804.9525805685      2.48E-04
    7    -804.9530206606      5.55E-05
    8    -804.9530424483      1.61E-05
    9    -804.9530444295      4.71E-06
   10    -804.9530445410      2.65E-06
   11    -804.9530445885      6.30E-07
   12    -804.9530445914      2.01E-07
   13    -804.9530445916      6.13E-08
   14    -804.9530445917      1.94E-08
   15    -804.9530445917      4.41E-09 Convergence criterion met
 ---------------------------------------
 SCF time:  CPU 268.52 s  wall 27.55 s
 SCF   energy in the final basis set = -804.9530445917
 Total energy in the final basis set = -804.9530445917
 
 --------------------------------------------------------------
 
                    Orbital Energies (a.u.)
 --------------------------------------------------------------
 
 Alpha MOs
 -- Occupied --
-19.199 -19.186 -19.143 -19.142 -19.132 -10.320 -10.314 -10.243
-10.243 -10.242 -10.232 -10.213 -10.211 -10.186 -10.183 -10.165
 -1.103  -1.090  -1.046  -1.016  -1.006  -0.826  -0.786  -0.775
 -0.737  -0.714  -0.679  -0.642  -0.596  -0.581  -0.561  -0.542
 -0.523  -0.503  -0.493  -0.480  -0.479  -0.473  -0.468  -0.461
 -0.450  -0.426  -0.414  -0.409  -0.408  -0.395  -0.381  -0.370
 -0.362  -0.357  -0.356  -0.350  -0.346  -0.335  -0.323  -0.318
 -0.308  -0.293  -0.277  -0.261  -0.257
 -- Virtual --
 -0.002   0.018   0.067   0.088   0.109   0.116   0.124   0.128
  0.134   0.144   0.148   0.151   0.155   0.156   0.163   0.171
  0.174   0.177   0.181   0.194   0.202   0.203   0.221   0.226
  0.232   0.249   0.265   0.273   0.294   0.297   0.327   0.336
  0.375   0.387   0.397   0.495   0.503   0.512   0.530   0.532
  0.545   0.555   0.555   0.563   0.570   0.583   0.591   0.598
  0.609   0.621   0.632   0.636   0.643   0.651   0.686   0.693
  0.707   0.723   0.747   0.749   0.760   0.765   0.787   0.813
  0.821   0.830   0.835   0.840   0.848   0.851   0.862   0.862
  0.870   0.872   0.881   0.890   0.905   0.921   0.924   0.933
  0.938   0.948   0.955   0.957   0.972   0.983   0.996   1.008
  1.025   1.035   1.039   1.071   1.099   1.103   1.146   1.161
  1.188   1.215   1.244   1.258   1.280   1.320   1.332   1.349
  1.356   1.387   1.403   1.422   1.433   1.460   1.482   1.507
  1.522   1.557   1.580   1.618   1.630   1.635   1.663   1.690
  1.705   1.721   1.726   1.754   1.760   1.789   1.805   1.816
  1.826   1.849   1.866   1.870   1.902   1.917   1.920   1.948
  1.959   1.963   1.976   1.990   1.992   2.011   2.031   2.036
  2.047   2.054   2.058   2.099   2.100   2.110   2.126   2.137
  2.146   2.177   2.208   2.223   2.238   2.268   2.290   2.295
  2.303   2.318   2.330   2.333   2.361   2.381   2.394   2.420
  2.437   2.477   2.498   2.548   2.550   2.569   2.582   2.633
  2.636   2.651   2.673   2.707   2.721   2.743   2.764   2.808
  2.843   2.852   2.881   2.950   2.955   2.972   3.052   3.064
  3.092   3.147   3.188   3.983   4.017   4.062   4.144   4.221
  4.242   4.261   4.280   4.330   4.405   4.497   4.569   4.589
  4.671   4.768   4.982
 --------------------------------------------------------------
 
          Ground-State Mulliken Net Atomic Charges

     Atom                 Charge (a.u.)
  ----------------------------------------
      1 C                    -0.180853
      2 C                    -0.203972
      3 C                     0.633554
      4 C                     0.655977
      5 O                    -0.460439
      6 O                    -0.474818
      7 O                    -0.466242
      8 O                    -0.482317
      9 C                    -0.217980
     10 C                    -0.219882
     11 C                     0.099754
     12 C                    -0.279618
     13 C                    -0.287230
     14 C                     0.317363
     15 O                    -0.497104
     16 H                     0.165154
     17 H                     0.168646
     18 H                     0.164187
     19 H                     0.172727
     20 H                     0.151519
     21 H                     0.135788
     22 H                     0.150692
     23 H                     0.132128
     24 H                     0.155770
     25 H                     0.180304
     26 H                     0.163360
     27 H                     0.169089
     28 H                     0.153870
     29 C                    -0.474977
     30 H                     0.138696
     31 H                     0.145410
     32 H                     0.191442
  ----------------------------------------
  Sum of atomic charges =     0.000000

 -----------------------------------------------------------------
                    Cartesian Multipole Moments
 -----------------------------------------------------------------
    Charge (ESU x 10^10)
                -0.0000
    Dipole Moment (Debye)
         X      -0.9786      Y       1.8569      Z       3.2428
       Tot       3.8628
    Quadrupole Moments (Debye-Ang)
        XX     -81.9187     XY      -0.3677     YY     -89.0661
        XZ       2.1001     YZ      -4.4837     ZZ     -97.3994
    Octopole Moments (Debye-Ang^2)
       XXX     -48.5589    XXY       5.3097    XYY     -30.7245
       YYY       3.3054    XXZ      -0.8539    XYZ       7.8467
       YYZ       4.6365    XZZ      -4.0882    YZZ      -0.7061
       ZZZ      -0.3564
    Hexadecapole Moments (Debye-Ang^3)
      XXXX   -2071.9206   XXXY     -48.0586   XXYY    -566.1766
      XYYY      28.5513   YYYY   -1658.9205   XXXZ     -11.8800
      XXYZ     -19.5675   XYYZ       5.9475   YYYZ     -60.4658
      XXZZ    -449.5356   XYZZ      -9.8982   YYZZ    -357.1428
      XZZZ      -1.5411   YZZZ       0.8851   ZZZZ    -407.0209
 -----------------------------------------------------------------
 Calculating analytic gradient of the SCF energy
 Gradient of SCF Energy
            1           2           3           4           5           6
    1   0.0161705  -0.0040370   0.0053388  -0.0032306  -0.0058084  -0.0031534
    2  -0.0046518   0.0055258   0.0117192   0.0137630   0.0090109  -0.0141378
    3  -0.0161233   0.0000565   0.0037697   0.0047605   0.0048151  -0.0126139
            7           8           9          10          11          12
    1  -0.0084440   0.0120364   0.0082761   0.0091422  -0.0183463  -0.0024048
    2  -0.0003265  -0.0125562   0.0052540  -0.0053663   0.0015145  -0.0137332
    3   0.0085132  -0.0148338  -0.0007593   0.0027506   0.0094521  -0.0092777
           13          14          15          16          17          18
    1  -0.0053224  -0.0149250   0.0088224   0.0009170   0.0042953  -0.0006479
    2   0.0041473  -0.0039500  -0.0009609  -0.0032224  -0.0017814   0.0000179
    3  -0.0105690   0.0105175   0.0068597   0.0035631   0.0003709   0.0037141
           19          20          21          22          23          24
    1   0.0009641   0.0040190   0.0010032   0.0024037  -0.0008086  -0.0027144
    2   0.0039993  -0.0018182  -0.0021656   0.0063234   0.0015474  -0.0044455
    3   0.0002852  -0.0009850  -0.0009489   0.0015947  -0.0004261  -0.0021638
           25          26          27          28          29          30
    1  -0.0034122  -0.0046806  -0.0015893   0.0017734   0.0005538  -0.0012010
    2   0.0014432   0.0003202   0.0009302   0.0037611  -0.0001119  -0.0035610
    3   0.0005922  -0.0031667   0.0036247   0.0020873   0.0156591  -0.0048613
           31          32
    1   0.0022030   0.0028072
    2   0.0005817   0.0029294
    3  -0.0000041  -0.0062532
 Max gradient component =       1.835E-02
 RMS gradient           =       6.723E-03
 Gradient time:  CPU 86.50 s  wall 4.96 s
 Geometry Optimization Parameters
   NAtoms,    NIC,     NZ,  NCons,   NDum,   NFix, NCnnct, MaxDiis
       32     251       0       2       0       0       0       0


** CONSTRAINED OPTIMIZATION IN DELOCALIZED INTERNAL COORDINATES **
   Searching for a Minimum

   Optimization Cycle:   1

                       Coordinates (Angstroms)
     ATOM                X               Y               Z
      1  C        -0.1011848019    0.8054220658    0.6072204492
      2  C         0.6620154878   -0.5364971559    0.5955533906
      3  C        -1.4015644380    0.8875516009   -0.1690949129
      4  C        -0.1410572282   -1.7318799813    0.1194146361
      5  O        -2.1190916287    1.9620046977    0.2792423188
      6  O        -1.7586593461    0.1451011244   -1.0692679610
      7  O        -1.2361871469   -1.8724092621    0.9323420513
      8  O         0.1839039632   -2.5367797787   -0.7380435496
      9  C        -2.0705618232   -2.9788079980    0.5833882767
     10  C        -3.3601324547    2.1543130106   -0.4008725103
     11  C         0.8921947687    1.7507805700   -0.0666573788
     12  C         2.1006898551    1.9956119456    0.8359583888
     13  C         2.8581814059    0.6714609442    0.7228580976
     14  C         1.9353848860   -0.1568246325   -0.1989024928
     15  O         1.4677351984    0.8937269451   -1.0780214566
     16  H        -0.3158357451    1.0989107000    1.6422969653
     17  H         0.9675145382   -0.8059543627    1.6169564177
     18  H        -1.5277085504   -3.9211288805    0.7032368423
     19  H        -3.1925366947    2.3218430413   -1.4693196780
     20  H         2.7207990583    2.8058706669    0.4368664437
     21  H         1.8242280680    2.2474343817    1.8632024401
     22  H         3.8327460722    0.8578355890    0.2561866896
     23  H         3.0366664167    0.1979666648    1.6931015044
     24  H        -2.9267737949   -2.9833521908    1.2640838105
     25  H        -2.4439876414   -2.8714877839   -0.4398988433
     26  H        -3.8403685125    3.0440784321    0.0168317195
     27  H        -4.0212059080    1.2961810682   -0.2403095674
     28  H         0.4702491978    2.6594561976   -0.5026946926
     29  C         2.6945415386   -1.2278384490   -0.9542253256
     30  H         3.6222933193   -0.8229488311   -1.3739312116
     31  H         2.9531506788   -2.0694657777   -0.3064647586
     32  H         2.1281180017   -1.5881402477   -1.8179990175
   Point Group: c1    Number of degrees of freedom:    90


   Energy is   -804.953044592

              Constraints and their Current Values
                                        Value     Constraint
   Dihedral:        2   1   3   5      161.506      162.300
   Dihedral:        1   2   4   7      -58.727      -60.000

 Attempting to Generate Delocalized Internal Coordinates

   Using Lagrange Multiplier Algorithm


 92 Hessian modes will be used to form the next step
  Hessian Eigenvalues:
    -0.977753   -0.977753    0.045000    0.045000    0.045000    0.045000
     0.045000    0.045010    0.045298    0.045515    0.048619    0.059359
     0.061550    0.067521    0.068252    0.070602    0.073231    0.073438
     0.076637    0.079785    0.081436    0.082111    0.083599    0.083601
     0.084460    0.085259    0.090062    0.091363    0.091986    0.097105
     0.108323    0.112588    0.113785    0.113804    0.116926    0.116971
     0.122385    0.127205    0.139525    0.143598    0.160000    0.160000
     0.160000    0.160000    0.160000    0.160000    0.160000    0.160000
     0.160000    0.167195    0.181257    0.244222    0.248535    0.249951
     0.250000    0.250000    0.250000    0.250000    0.252783    0.262190
     0.267687    0.287879    0.290216    0.306804    0.306860    0.308963
     0.329030    0.337223    0.340066    0.340731    0.341491    0.341652
     0.341740    0.342327    0.342899    0.343079    0.343239    0.343448
     0.343570    0.343585    0.343737    0.344460    0.344599    0.345095
     0.411320    0.412508    0.507662    0.514426    0.952633    0.953292
     1.022753    1.022753

 Minimum Search - Taking P-RFO Step
 Searching for Lamda that Maximizes Along the Constraint modes Only
 Value Taken    Lamda =   0.00038053
 Searching for Lamda that Minimizes Along All other modes
 Value Taken    Lamda =  -0.01160325
 Step Taken.  Stepsize is  0.263150

                             Maximum     Tolerance    Cnvgd?
         Gradient            0.022216       0.000005      NO
         Displacement        0.072319       0.000005      NO
         Energy change     *********       0.000000      NO


 New Cartesian Coordinates Obtained by Inverse Iteration

 Displacement from previous Coordinates is:  0.838523
 ----------------------------------------------------------------
             Standard Nuclear Orientation (Angstroms)
    I     Atom           X                Y                Z
 ----------------------------------------------------------------
    1      C      -0.0835798072     0.8168319544     0.6376194077
    2      C       0.6857992248    -0.5342244085     0.6067222977
    3      C      -1.3828302651     0.8470395060    -0.1430504588
    4      C      -0.1522259290    -1.7094394534     0.1226819370
    5      O      -2.1412691418     1.8974621312     0.2595802960
    6      O      -1.7150824567     0.0943528713    -1.0301962117
    7      O      -1.2145573278    -1.8564249589     0.9584770121
    8      O       0.0959828540    -2.4973206974    -0.7588777499
    9      C      -2.1162995692    -2.9116113752     0.6033503804
   10      C      -3.3779389876     2.0547944818    -0.4500898687
   11      C       0.9338411687     1.7612607263    -0.0491161962
   12      C       2.1344755803     2.0135665294     0.8848497548
   13      C       2.8883240706     0.6593410011     0.7511652355
   14      C       1.9626619428    -0.1417069480    -0.2125438127
   15      O       1.4853376711     0.9161055062    -1.0772221893
   16      H      -0.3045276970     1.1309788204     1.6615495406
   17      H       0.9919247196    -0.8182247925     1.6207542640
   18      H      -1.6168731422    -3.8841977632     0.6415701661
   19      H      -3.2014477150     2.2022361730    -1.5193459857
   20      H       2.7413098921     2.8374340818     0.4987053245
   21      H       1.8404051599     2.2667306428     1.9094734426
   22      H       3.8609902617     0.8136352782     0.2777992343
   23      H       3.0607877198     0.1525297229     1.7075500481
   24      H      -2.9192444550    -2.8749749721     1.3434922574
   25      H      -2.5229472175    -2.7444648932    -0.3977978787
   26      H      -3.8523137271     2.9419460118    -0.0245538086
   27      H      -4.0213696548     1.1820807213    -0.3048849163
   28      H       0.5000105192     2.6556639443    -0.4968769301
   29      C       2.6896397930    -1.2009581851    -1.0145075413
   30      H       3.6157804614    -0.7746283030    -1.4180756645
   31      H       2.9410939148    -2.0608712577    -0.3884762615
   32      H       2.0876988789    -1.5429077821    -1.8566880390
 ----------------------------------------------------------------
 Molecular Point Group                 C1    NOp =  1
 Largest Abelian Subgroup              C1    NOp =  1
 Nuclear Repulsion Energy =  1249.6702076764 hartrees
 There are       61 alpha and       61 beta electrons
 Applying Cartesian multipole field
    Component          Value
    ---------          -----
     (2,0,0)        1.00000E-11
     (0,2,0)        2.00000E-11
     (0,0,2)       -3.00000E-11
 Nucleus-field energy     =     0.0000000334 hartrees
 Requested basis set is 6-31G(d)
 There are 96 shells and 272 basis functions
 A cutoff of  1.0D-12 yielded   3741 shell pairs
 There are     32158 function pairs
 Smallest overlap matrix eigenvalue = 9.38E-04
 Guess MOs from SCF MO coefficient file
 Reading MOs from coefficient file
 Reading MOs from coefficient file
 A restricted hybrid HF-DFT SCF calculation will be
 performed using Pulay DIIS extrapolation
 Exchange:     0.2000 Hartree-Fock + 0.0800 Slater + 0.7200 B88
 Correlation:  0.1900 VWN1RPA + 0.8100 LYP
 Using SG-1 standard quadrature grid
 Dispersion:   Grimme D3
 SCF converges when DIIS error is below 1.0E-08
 Geometry optimization detected.  Setting ReadMinima to 0
 Setting SaveMinima to 0
 using 24 threads for integral computing 
 -------------------------------------------------------
 OpenMP BLAS3 based DFT computing Module                
 Release: version 1.0, May 2013, Q-Chem Inc. Pittsburgh 
 -------------------------------------------------------
 ---------------------------------------
  Cycle       Energy         DIIS Error
 ---------------------------------------
    1    -804.9553249632      1.63E-03
    2    -804.9587497988      2.41E-04
    3    -804.9583380229      3.59E-04
    4    -804.9592397916      4.55E-05
    5    -804.9592500096      2.57E-05
    6    -804.9592541610      1.05E-05
    7    -804.9592548781      2.77E-06
    8    -804.9592549361      6.15E-07
    9    -804.9592549388      2.08E-07
   10    -804.9592549390      8.00E-08
   11    -804.9592549391      3.35E-08
   12    -804.9592549391      1.28E-08
   13    -804.9592549390      3.05E-09 Convergence criterion met
 ---------------------------------------
 SCF time:  CPU 231.28 s  wall 12.09 s
 SCF   energy in the final basis set = -804.9592549390
 Total energy in the final basis set = -804.9592549390
 
 --------------------------------------------------------------
 
                    Orbital Energies (a.u.)
 --------------------------------------------------------------
 
 Alpha MOs
 -- Occupied --
-19.196 -19.181 -19.145 -19.140 -19.127 -10.317 -10.309 -10.245
-10.244 -10.243 -10.231 -10.213 -10.210 -10.191 -10.187 -10.166
 -1.106  -1.092  -1.046  -1.017  -1.005  -0.823  -0.783  -0.772
 -0.737  -0.713  -0.678  -0.641  -0.595  -0.583  -0.560  -0.540
 -0.521  -0.500  -0.492  -0.479  -0.478  -0.471  -0.466  -0.457
 -0.448  -0.426  -0.414  -0.410  -0.406  -0.397  -0.381  -0.368
 -0.362  -0.358  -0.355  -0.349  -0.346  -0.340  -0.324  -0.318
 -0.306  -0.290  -0.276  -0.260  -0.258
 -- Virtual --
  0.002   0.026   0.069   0.090   0.110   0.115   0.126   0.129
  0.134   0.145   0.148   0.151   0.155   0.157   0.163   0.172
  0.173   0.176   0.181   0.191   0.200   0.203   0.217   0.224
  0.233   0.244   0.261   0.276   0.299   0.303   0.322   0.330
  0.375   0.388   0.400   0.496   0.500   0.514   0.529   0.532
  0.547   0.553   0.554   0.563   0.567   0.580   0.586   0.597
  0.606   0.619   0.628   0.641   0.645   0.651   0.679   0.688
  0.710   0.721   0.741   0.750   0.756   0.763   0.786   0.817
  0.822   0.830   0.838   0.841   0.846   0.853   0.861   0.863
  0.871   0.875   0.882   0.889   0.908   0.924   0.927   0.932
  0.939   0.947   0.952   0.960   0.970   0.983   0.996   1.010
  1.026   1.034   1.037   1.079   1.095   1.099   1.145   1.167
  1.195   1.218   1.237   1.254   1.285   1.324   1.340   1.349
  1.358   1.386   1.404   1.422   1.430   1.472   1.481   1.514
  1.529   1.566   1.589   1.618   1.637   1.642   1.665   1.692
  1.702   1.725   1.733   1.742   1.767   1.782   1.792   1.813
  1.819   1.848   1.857   1.869   1.895   1.910   1.928   1.942
  1.958   1.962   1.975   1.980   2.000   2.018   2.034   2.038
  2.049   2.061   2.063   2.094   2.105   2.114   2.121   2.142
  2.146   2.174   2.194   2.215   2.234   2.269   2.286   2.295
  2.302   2.317   2.324   2.327   2.353   2.382   2.398   2.428
  2.441   2.482   2.496   2.539   2.549   2.562   2.581   2.633
  2.636   2.646   2.676   2.707   2.721   2.742   2.761   2.803
  2.835   2.840   2.882   2.956   2.972   2.985   3.058   3.066
  3.089   3.161   3.195   3.978   4.022   4.071   4.146   4.217
  4.248   4.272   4.281   4.338   4.403   4.523   4.564   4.601
  4.670   4.769   4.966
 --------------------------------------------------------------
 
          Ground-State Mulliken Net Atomic Charges

     Atom                 Charge (a.u.)
  ----------------------------------------
      1 C                    -0.186618
      2 C                    -0.199954
      3 C                     0.634869
      4 C                     0.648600
      5 O                    -0.462009
      6 O                    -0.472411
      7 O                    -0.466233
      8 O                    -0.483371
      9 C                    -0.216581
     10 C                    -0.219002
     11 C                     0.099086
     12 C                    -0.281541
     13 C                    -0.290204
     14 C                     0.312368
     15 O                    -0.489519
     16 H                     0.164462
     17 H                     0.166513
     18 H                     0.164786
     19 H                     0.173795
     20 H                     0.153697
     21 H                     0.139554
     22 H                     0.150349
     23 H                     0.135809
     24 H                     0.154571
     25 H                     0.180304
     26 H                     0.163657
     27 H                     0.169765
     28 H                     0.150963
     29 C                    -0.474641
     30 H                     0.139315
     31 H                     0.145379
     32 H                     0.194244
  ----------------------------------------
  Sum of atomic charges =     0.000000

 -----------------------------------------------------------------
                    Cartesian Multipole Moments
 -----------------------------------------------------------------
    Charge (ESU x 10^10)
                 0.0000
    Dipole Moment (Debye)
         X      -0.8928      Y       1.9413      Z       3.1811
       Tot       3.8321
    Quadrupole Moments (Debye-Ang)
        XX     -81.3548     XY      -0.4678     YY     -89.5880
        XZ       2.3831     YZ      -4.2781     ZZ     -97.1756
    Octopole Moments (Debye-Ang^2)
       XXX     -50.7408    XXY       4.1677    XYY     -27.9913
       YYY       3.7201    XXZ      -2.1591    XYZ       8.5068
       YYZ       4.7757    XZZ      -5.1047    YZZ       0.3288
       ZZZ      -1.7331
    Hexadecapole Moments (Debye-Ang^3)
      XXXX   -2095.3641   XXXY     -65.0143   XXYY    -568.4347
      XYYY       9.0190   YYYY   -1605.7254   XXXZ      -9.5636
      XXYZ     -21.8203   XYYZ       5.0226   YYYZ     -57.3048
      XXZZ    -453.6981   XYZZ     -16.7722   YYZZ    -350.8580
      XZZZ      -3.0162   YZZZ      -2.1463   ZZZZ    -420.2888
 -----------------------------------------------------------------
 Calculating analytic gradient of the SCF energy
 Gradient of SCF Energy
            1           2           3           4           5           6
    1   0.0056392  -0.0030494   0.0017368  -0.0000070  -0.0034210  -0.0004658
    2  -0.0014892   0.0016899  -0.0008686   0.0060454   0.0020589  -0.0000377
    3  -0.0071676   0.0048001  -0.0008421  -0.0032848   0.0001947   0.0016541
            7           8           9          10          11          12
    1  -0.0017442  -0.0017364   0.0037421   0.0035343  -0.0061605  -0.0010336
    2  -0.0017174  -0.0022324   0.0005418  -0.0034727   0.0013406   0.0000925
    3  -0.0005134   0.0018215  -0.0015382  -0.0003097   0.0055984  -0.0000546
           13          14          15          16          17          18
    1   0.0004080  -0.0044062   0.0039740  -0.0001143   0.0025245  -0.0005643
    2  -0.0004990  -0.0010879  -0.0017900  -0.0014847  -0.0016781  -0.0004000
    3  -0.0034696   0.0020381  -0.0056405   0.0010531  -0.0003313   0.0011795
           19          20          21          22          23          24
    1  -0.0004656   0.0005507   0.0007298  -0.0003460   0.0009048  -0.0007797
    2   0.0013813  -0.0002419   0.0011545   0.0012035  -0.0001970  -0.0002932
    3   0.0000043  -0.0000110   0.0007565   0.0007563   0.0007124   0.0000783
           25          26          27          28          29          30
    1  -0.0011921  -0.0008016  -0.0008528   0.0013165  -0.0003668  -0.0001306
    2   0.0001689   0.0005569   0.0006804   0.0002451  -0.0019785   0.0001219
    3   0.0005408  -0.0002237   0.0009029   0.0002805   0.0052698  -0.0016313
           31          32
    1   0.0002806   0.0022964
    2   0.0006857   0.0015012
    3  -0.0000478  -0.0025755
 Max gradient component =       7.168E-03
 RMS gradient           =       2.259E-03
 Gradient time:  CPU 86.46 s  wall 5.00 s
 Geometry Optimization Parameters
   NAtoms,    NIC,     NZ,  NCons,   NDum,   NFix, NCnnct, MaxDiis
       32     251       0       2       0       0       0       0

 Cartesian Hessian Update
 Hessian Updated using BFGS Update


** CONSTRAINED OPTIMIZATION IN DELOCALIZED INTERNAL COORDINATES **
   Searching for a Minimum

   Optimization Cycle:   2

                       Coordinates (Angstroms)
     ATOM                X               Y               Z
      1  C        -0.0835798072    0.8168319544    0.6376194077
      2  C         0.6857992248   -0.5342244085    0.6067222977
      3  C        -1.3828302651    0.8470395060   -0.1430504588
      4  C        -0.1522259290   -1.7094394534    0.1226819370
      5  O        -2.1412691418    1.8974621312    0.2595802960
      6  O        -1.7150824567    0.0943528713   -1.0301962117
      7  O        -1.2145573278   -1.8564249589    0.9584770121
      8  O         0.0959828540   -2.4973206974   -0.7588777499
      9  C        -2.1162995692   -2.9116113752    0.6033503804
     10  C        -3.3779389876    2.0547944818   -0.4500898687
     11  C         0.9338411687    1.7612607263   -0.0491161962
     12  C         2.1344755803    2.0135665294    0.8848497548
     13  C         2.8883240706    0.6593410011    0.7511652355
     14  C         1.9626619428   -0.1417069480   -0.2125438127
     15  O         1.4853376711    0.9161055062   -1.0772221893
     16  H        -0.3045276970    1.1309788204    1.6615495406
     17  H         0.9919247196   -0.8182247925    1.6207542640
     18  H        -1.6168731422   -3.8841977632    0.6415701661
     19  H        -3.2014477150    2.2022361730   -1.5193459857
     20  H         2.7413098921    2.8374340818    0.4987053245
     21  H         1.8404051599    2.2667306428    1.9094734426
     22  H         3.8609902617    0.8136352782    0.2777992343
     23  H         3.0607877198    0.1525297229    1.7075500481
     24  H        -2.9192444550   -2.8749749721    1.3434922574
     25  H        -2.5229472175   -2.7444648932   -0.3977978787
     26  H        -3.8523137271    2.9419460118   -0.0245538086
     27  H        -4.0213696548    1.1820807213   -0.3048849163
     28  H         0.5000105192    2.6556639443   -0.4968769301
     29  C         2.6896397930   -1.2009581851   -1.0145075413
     30  H         3.6157804614   -0.7746283030   -1.4180756645
     31  H         2.9410939148   -2.0608712577   -0.3884762615
     32  H         2.0876988789   -1.5429077821   -1.8566880390
   Point Group: c1    Number of degrees of freedom:    90


   Energy is   -804.959254939

              Constraints and their Current Values
                                        Value     Constraint
   Dihedral:        2   1   3   5      162.293      162.300
   Dihedral:        1   2   4   7      -59.994      -60.000
 Hessian Updated using BFGS Update

   Using Lagrange Multiplier Algorithm


 80 Hessian modes will be used to form the next step
  Hessian Eigenvalues:
    -0.977831   -0.977121    0.042935    0.045006    0.045021    0.045180
     0.045537    0.048496    0.058881    0.061401    0.065831    0.068252
     0.070585    0.072306    0.073259    0.076581    0.079094    0.080173
     0.082052    0.082789    0.083606    0.084431    0.085377    0.089942
     0.090596    0.091969    0.096013    0.106780    0.110080    0.113613
     0.113794    0.116928    0.116974    0.122652    0.127973    0.140283
     0.142416    0.156953    0.161358    0.177606    0.181050    0.243281
     0.247311    0.249571    0.249965    0.250702    0.257978    0.262271
     0.277073    0.289192    0.295480    0.306854    0.307411    0.308996
     0.329199    0.337030    0.339914    0.340771    0.341477    0.341717
     0.342318    0.342891    0.343057    0.343088    0.343384    0.343450
     0.343549    0.343701    0.344263    0.344575    0.345012    0.354401
     0.410677    0.411877    0.507847    0.512025    0.952714    0.964106
     1.022728    1.025409

 Minimum Search - Taking P-RFO Step
 Searching for Lamda that Maximizes Along the Constraint modes Only
 Value Taken    Lamda =   0.00000979
 Searching for Lamda that Minimizes Along All other modes
 Value Taken    Lamda =  -0.00158329
 Step Taken.  Stepsize is  0.148848

                             Maximum     Tolerance    Cnvgd?
         Gradient            0.003836       0.000005      NO
         Displacement        0.049931       0.000005      NO
         Energy change     -0.006210       0.000000      NO


 New Cartesian Coordinates Obtained by Inverse Iteration

 Displacement from previous Coordinates is:  0.286382
 ----------------------------------------------------------------
             Standard Nuclear Orientation (Angstroms)
    I     Atom           X                Y                Z
 ----------------------------------------------------------------
    1      C      -0.0897267126     0.8220022495     0.6533880813
    2      C       0.6918851592    -0.5323721545     0.6218650231
    3      C      -1.3823078419     0.8469608478    -0.1387730127
    4      C      -0.1278127781    -1.7220394627     0.1409909806
    5      O      -2.1449982322     1.8891285020     0.2643802655
    6      O      -1.7002204803     0.1034876221    -1.0381175881
    7      O      -1.1859127809    -1.8799579532     0.9772242339
    8      O       0.1306239611    -2.4887697089    -0.7544443343
    9      C      -2.1033576257    -2.9164314611     0.6014126931
   10      C      -3.3738868669     2.0622142795    -0.4608245498
   11      C       0.9331834228     1.7622887538    -0.0468021672
   12      C       2.1355383984     2.0185752633     0.8857168926
   13      C       2.8901518579     0.6612073763     0.7548870074
   14      C       1.9619733685    -0.1381334013    -0.2096283731
   15      O       1.4694843184     0.9146362993    -1.0690403963
   16      H      -0.3131818610     1.1479704890     1.6715640811
   17      H       0.9904269164    -0.8059774336     1.6390869439
   18      H      -1.6077137320    -3.8914245662     0.5986168615
   19      H      -3.1758208299     2.2161879183    -1.5251224795
   20      H       2.7363497135     2.8455388125     0.4979814760
   21      H       1.8356301476     2.2706388479     1.9077910828
   22      H       3.8622946554     0.8022555727     0.2755039087
   23      H       3.0592754643     0.1520242340     1.7091563806
   24      H      -2.8963145820    -2.8899465190     1.3509627555
   25      H      -2.5056234712    -2.7154216379    -0.3951507994
   26      H      -3.8484371812     2.9422509026    -0.0244982740
   27      H      -4.0129945778     1.1821891207    -0.3456518494
   28      H       0.4879621188     2.6484941773    -0.5008078634
   29      C       2.6612041038    -1.2060739779    -1.0237778992
   30      H       3.5854399142    -0.7927645343    -1.4426774979
   31      H       2.9109232959    -2.0675640867    -0.3977287475
   32      H       2.0195194775    -1.5491400572    -1.8344457501
 ----------------------------------------------------------------
 Molecular Point Group                 C1    NOp =  1
 Largest Abelian Subgroup              C1    NOp =  1
 Nuclear Repulsion Energy =  1250.0804705729 hartrees
 There are       61 alpha and       61 beta electrons
 Applying Cartesian multipole field
    Component          Value
    ---------          -----
     (2,0,0)        1.00000E-11
     (0,2,0)        2.00000E-11
     (0,0,2)       -3.00000E-11
 Nucleus-field energy     =     0.0000000333 hartrees
 Requested basis set is 6-31G(d)
 There are 96 shells and 272 basis functions
 A cutoff of  1.0D-12 yielded   3745 shell pairs
 There are     32195 function pairs
 Smallest overlap matrix eigenvalue = 9.53E-04
 Guess MOs from SCF MO coefficient file
 Reading MOs from coefficient file
 Reading MOs from coefficient file
 A restricted hybrid HF-DFT SCF calculation will be
 performed using Pulay DIIS extrapolation
 Exchange:     0.2000 Hartree-Fock + 0.0800 Slater + 0.7200 B88
 Correlation:  0.1900 VWN1RPA + 0.8100 LYP
 Using SG-1 standard quadrature grid
 Dispersion:   Grimme D3
 SCF converges when DIIS error is below 1.0E-08
 Geometry optimization detected.  Setting ReadMinima to 0
 Setting SaveMinima to 0
 using 24 threads for integral computing 
 -------------------------------------------------------
 OpenMP BLAS3 based DFT computing Module                
 Release: version 1.0, May 2013, Q-Chem Inc. Pittsburgh 
 -------------------------------------------------------
 ---------------------------------------
  Cycle       Energy         DIIS Error
 ---------------------------------------
    1    -804.9617437517      6.12E-04
    2    -804.9600051261      7.88E-05
    3    -804.9599623289      1.18E-04
    4    -804.9600643495      2.61E-05
    5    -804.9600681851      1.13E-05
    6    -804.9600690643      2.97E-06
    7    -804.9600691133      1.38E-06
    8    -804.9600691271      2.40E-07
    9    -804.9600691274      1.43E-07
   10    -804.9600691275      3.56E-08
   11    -804.9600691275      1.12E-08
   12    -804.9600691276      3.62E-09 Convergence criterion met
 ---------------------------------------
 SCF time:  CPU 211.29 s  wall 10.86 s
 SCF   energy in the final basis set = -804.9600691276
 Total energy in the final basis set = -804.9600691276
 
 --------------------------------------------------------------
 
                    Orbital Energies (a.u.)
 --------------------------------------------------------------
 
 Alpha MOs
 -- Occupied --
-19.195 -19.182 -19.145 -19.138 -19.128 -10.315 -10.309 -10.245
-10.243 -10.243 -10.231 -10.212 -10.209 -10.191 -10.187 -10.165
 -1.106  -1.092  -1.048  -1.016  -1.006  -0.820  -0.783  -0.771
 -0.738  -0.713  -0.677  -0.641  -0.593  -0.583  -0.559  -0.541
 -0.520  -0.499  -0.492  -0.479  -0.478  -0.471  -0.466  -0.458
 -0.447  -0.426  -0.415  -0.410  -0.406  -0.396  -0.381  -0.368
 -0.362  -0.359  -0.355  -0.349  -0.347  -0.340  -0.323  -0.317
 -0.306  -0.291  -0.275  -0.260  -0.257
 -- Virtual --
  0.003   0.026   0.071   0.091   0.110   0.115   0.126   0.129
  0.134   0.146   0.149   0.152   0.157   0.158   0.163   0.171
  0.174   0.178   0.181   0.191   0.199   0.204   0.218   0.224
  0.234   0.245   0.261   0.277   0.302   0.303   0.321   0.329
  0.376   0.388   0.400   0.496   0.500   0.515   0.529   0.533
  0.548   0.552   0.554   0.562   0.567   0.581   0.585   0.597
  0.605   0.620   0.627   0.640   0.643   0.651   0.677   0.686
  0.712   0.721   0.741   0.751   0.754   0.763   0.787   0.818
  0.822   0.830   0.838   0.841   0.845   0.853   0.861   0.865
  0.871   0.876   0.883   0.890   0.910   0.926   0.928   0.933
  0.940   0.947   0.952   0.962   0.969   0.984   0.999   1.010
  1.026   1.034   1.040   1.080   1.096   1.098   1.149   1.167
  1.194   1.220   1.239   1.256   1.283   1.323   1.337   1.350
  1.361   1.389   1.406   1.424   1.426   1.475   1.479   1.516
  1.528   1.568   1.588   1.620   1.635   1.644   1.662   1.694
  1.701   1.726   1.732   1.740   1.766   1.779   1.791   1.813
  1.818   1.849   1.855   1.870   1.897   1.912   1.931   1.942
  1.960   1.964   1.979   1.983   2.002   2.015   2.034   2.036
  2.049   2.061   2.064   2.094   2.109   2.116   2.125   2.144
  2.146   2.177   2.194   2.216   2.233   2.268   2.286   2.293
  2.299   2.316   2.325   2.327   2.354   2.384   2.398   2.430
  2.442   2.481   2.496   2.538   2.551   2.561   2.584   2.637
  2.637   2.647   2.678   2.709   2.722   2.742   2.764   2.800
  2.830   2.840   2.879   2.950   2.974   2.985   3.058   3.066
  3.088   3.165   3.194   3.977   4.024   4.076   4.146   4.216
  4.249   4.271   4.285   4.341   4.405   4.522   4.562   4.609
  4.672   4.768   4.965
 --------------------------------------------------------------
 
          Ground-State Mulliken Net Atomic Charges

     Atom                 Charge (a.u.)
  ----------------------------------------
      1 C                    -0.186263
      2 C                    -0.202216
      3 C                     0.633209
      4 C                     0.649492
      5 O                    -0.461721
      6 O                    -0.474441
      7 O                    -0.466459
      8 O                    -0.481698
      9 C                    -0.218164
     10 C                    -0.219095
     11 C                     0.099795
     12 C                    -0.281855
     13 C                    -0.291026
     14 C                     0.310150
     15 O                    -0.486243
     16 H                     0.162976
     17 H                     0.164889
     18 H                     0.165871
     19 H                     0.174161
     20 H                     0.154015
     21 H                     0.139923
     22 H                     0.149575
     23 H                     0.136951
     24 H                     0.156010
     25 H                     0.181065
     26 H                     0.164537
     27 H                     0.170182
     28 H                     0.149941
     29 C                    -0.473433
     30 H                     0.138290
     31 H                     0.144010
     32 H                     0.197573
  ----------------------------------------
  Sum of atomic charges =     0.000000

 -----------------------------------------------------------------
                    Cartesian Multipole Moments
 -----------------------------------------------------------------
    Charge (ESU x 10^10)
                 0.0000
    Dipole Moment (Debye)
         X      -0.9794      Y       1.9067      Z       3.1596
       Tot       3.8180
    Quadrupole Moments (Debye-Ang)
        XX     -81.4273     XY      -0.3576     YY     -89.3095
        XZ       2.4354     YZ      -4.1979     ZZ     -97.2134
    Octopole Moments (Debye-Ang^2)
       XXX     -52.2026    XXY       4.3680    XYY     -28.9303
       YYY       3.5393    XXZ      -2.5009    XYZ       8.2606
       YYZ       4.1221    XZZ      -5.5883    YZZ       0.5386
       ZZZ      -2.4919
    Hexadecapole Moments (Debye-Ang^3)
      XXXX   -2081.9395   XXXY     -62.2872   XXYY    -566.9150
      XYYY      11.6813   YYYY   -1608.0947   XXXZ     -10.8534
      XXYZ     -22.3857   XYYZ       4.5425   YYYZ     -54.7285
      XXZZ    -451.6168   XYZZ     -15.2598   YYZZ    -352.3901
      XZZZ      -4.5704   YZZZ      -1.2374   ZZZZ    -424.2117
 -----------------------------------------------------------------
 Calculating analytic gradient of the SCF energy
 Gradient of SCF Energy
            1           2           3           4           5           6
    1   0.0018520  -0.0005622  -0.0003128   0.0001907  -0.0005968  -0.0000869
    2   0.0016389  -0.0004995  -0.0005275  -0.0005551  -0.0006289   0.0018696
    3  -0.0027181   0.0040686  -0.0017980  -0.0035564  -0.0004975   0.0021710
            7           8           9          10          11          12
    1  -0.0006522   0.0013384   0.0007532   0.0004148  -0.0016153  -0.0006484
    2  -0.0007990   0.0014674   0.0002485  -0.0004950   0.0014402   0.0012216
    3   0.0002985   0.0015871  -0.0000243  -0.0000801   0.0030270   0.0011887
           13          14          15          16          17          18
    1   0.0003188  -0.0012955   0.0007157  -0.0003371   0.0008302  -0.0000071
    2  -0.0007981  -0.0000313  -0.0011015  -0.0006462  -0.0014206   0.0000536
    3   0.0003924  -0.0013492  -0.0033322   0.0001347  -0.0010005   0.0000492
           19          20          21          22          23          24
    1  -0.0000943  -0.0001983   0.0002680  -0.0005392   0.0007763  -0.0000385
    2  -0.0000577  -0.0000579   0.0009585  -0.0001886  -0.0002509   0.0004079
    3   0.0000773  -0.0000979   0.0000617  -0.0000179   0.0001449   0.0003491
           25          26          27          28          29          30
    1   0.0002080   0.0001217   0.0000125   0.0002014  -0.0007216   0.0000549
    2  -0.0001209   0.0002325   0.0001146  -0.0005137  -0.0019390   0.0002844
    3   0.0001177   0.0002350  -0.0000320  -0.0005086   0.0019697  -0.0001259
           31          32
    1  -0.0002909  -0.0000595
    2   0.0001336   0.0005603
    3   0.0000733  -0.0008074
 Max gradient component =       4.069E-03
 RMS gradient           =       1.100E-03
 Gradient time:  CPU 87.12 s  wall 5.14 s
 Geometry Optimization Parameters
   NAtoms,    NIC,     NZ,  NCons,   NDum,   NFix, NCnnct, MaxDiis
       32     251       0       2       0       0       0       0

 Cartesian Hessian Update
 Hessian Updated using BFGS Update


** CONSTRAINED OPTIMIZATION IN DELOCALIZED INTERNAL COORDINATES **
   Searching for a Minimum

   Optimization Cycle:   3

                       Coordinates (Angstroms)
     ATOM                X               Y               Z
      1  C        -0.0897267126    0.8220022495    0.6533880813
      2  C         0.6918851592   -0.5323721545    0.6218650231
      3  C        -1.3823078419    0.8469608478   -0.1387730127
      4  C        -0.1278127781   -1.7220394627    0.1409909806
      5  O        -2.1449982322    1.8891285020    0.2643802655
      6  O        -1.7002204803    0.1034876221   -1.0381175881
      7  O        -1.1859127809   -1.8799579532    0.9772242339
      8  O         0.1306239611   -2.4887697089   -0.7544443343
      9  C        -2.1033576257   -2.9164314611    0.6014126931
     10  C        -3.3738868669    2.0622142795   -0.4608245498
     11  C         0.9331834228    1.7622887538   -0.0468021672
     12  C         2.1355383984    2.0185752633    0.8857168926
     13  C         2.8901518579    0.6612073763    0.7548870074
     14  C         1.9619733685   -0.1381334013   -0.2096283731
     15  O         1.4694843184    0.9146362993   -1.0690403963
     16  H        -0.3131818610    1.1479704890    1.6715640811
     17  H         0.9904269164   -0.8059774336    1.6390869439
     18  H        -1.6077137320   -3.8914245662    0.5986168615
     19  H        -3.1758208299    2.2161879183   -1.5251224795
     20  H         2.7363497135    2.8455388125    0.4979814760
     21  H         1.8356301476    2.2706388479    1.9077910828
     22  H         3.8622946554    0.8022555727    0.2755039087
     23  H         3.0592754643    0.1520242340    1.7091563806
     24  H        -2.8963145820   -2.8899465190    1.3509627555
     25  H        -2.5056234712   -2.7154216379   -0.3951507994
     26  H        -3.8484371812    2.9422509026   -0.0244982740
     27  H        -4.0129945778    1.1821891207   -0.3456518494
     28  H         0.4879621188    2.6484941773   -0.5008078634
     29  C         2.6612041038   -1.2060739779   -1.0237778992
     30  H         3.5854399142   -0.7927645343   -1.4426774979
     31  H         2.9109232959   -2.0675640867   -0.3977287475
     32  H         2.0195194775   -1.5491400572   -1.8344457501
   Point Group: c1    Number of degrees of freedom:    90


   Energy is   -804.960069128

              Constraints and their Current Values
                                        Value     Constraint
   Dihedral:        2   1   3   5      162.300      162.300
   Dihedral:        1   2   4   7      -60.000      -60.000
 Hessian Updated using BFGS Update

   Using Lagrange Multiplier Algorithm


 83 Hessian modes will be used to form the next step
  Hessian Eigenvalues:
    -0.977417   -0.973810    0.031243    0.045001    0.045015    0.045070
     0.045183    0.045542    0.048447    0.056513    0.061099    0.063226
     0.068293    0.070543    0.072748    0.073366    0.076210    0.079437
     0.080529    0.082055    0.082587    0.083860    0.084583    0.085466
     0.090013    0.091698    0.092139    0.096861    0.109726    0.111859
     0.113794    0.116250    0.116928    0.116975    0.122906    0.128774
     0.141372    0.143734    0.157209    0.160089    0.162975    0.178590
     0.192303    0.245103    0.246251    0.249883    0.249989    0.250322
     0.252465    0.262172    0.268163    0.277178    0.290649    0.303674
     0.306855    0.308824    0.326162    0.332404    0.339041    0.339746
     0.340871    0.341564    0.341704    0.342296    0.342823    0.342960
     0.343094    0.343388    0.343471    0.343693    0.344037    0.344562
     0.344937    0.346748    0.353337    0.410097    0.412662    0.507809
     0.515168    0.952597    0.965110    1.024983    1.029295

 Minimum Search - Taking P-RFO Step
 Searching for Lamda that Maximizes Along the Constraint modes Only
 Value Taken    Lamda =   0.00000661
 Searching for Lamda that Minimizes Along All other modes
 Value Taken    Lamda =  -0.00046680
 Step Taken.  Stepsize is  0.091797

                             Maximum     Tolerance    Cnvgd?
         Gradient            0.003267       0.000005      NO
         Displacement        0.032612       0.000005      NO
         Energy change     -0.000814       0.000000      NO


 New Cartesian Coordinates Obtained by Inverse Iteration

 Displacement from previous Coordinates is:  0.288774
 ----------------------------------------------------------------
             Standard Nuclear Orientation (Angstroms)
    I     Atom           X                Y                Z
 ----------------------------------------------------------------
    1      C      -0.0866704789     0.8150808197     0.6604944271
    2      C       0.7005496108    -0.5363357350     0.6227975589
    3      C      -1.3757264175     0.8308845949    -0.1364337507
    4      C      -0.1316465705    -1.7234715185     0.1505742696
    5      O      -2.1482120009     1.8650422022     0.2670094507
    6      O      -1.6781453673     0.0875814164    -1.0431589539
    7      O      -1.1788769750    -1.8764590667     0.9998801786
    8      O       0.0994059763    -2.4851258059    -0.7575034671
    9      C      -2.1247176938    -2.8855129438     0.6124030468
   10      C      -3.3722983626     2.0358627045    -0.4699393466
   11      C       0.9352472153     1.7586906546    -0.0436189163
   12      C       2.1367107414     2.0135142483     0.8893557492
   13      C       2.8965778814     0.6622219126     0.7549685128
   14      C       1.9718295621    -0.1353706250    -0.2123802084
   15      O       1.4696846214     0.9178956735    -1.0631674113
   16      H      -0.3088119834     1.1449470711     1.6772443912
   17      H       0.9958256200    -0.8026074422     1.6429558207
   18      H      -1.6461160909    -3.8681138156     0.5704970134
   19      H      -3.1612448346     2.1965875351    -1.5308502228
   20      H       2.7344707213     2.8460774428     0.5087657000
   21      H       1.8310205971     2.2535740568     1.9119180676
   22      H       3.8704098372     0.8073017280     0.2781485567
   23      H       3.0615563930     0.1489756715     1.7066768827
   24      H      -2.9047426702    -2.8675876015     1.3745055017
   25      H      -2.5364600989    -2.6482468995    -0.3725692841
   26      H      -3.8592979147     2.9075204736    -0.0325469727
   27      H      -4.0024247245     1.1472990925    -0.3710063184
   28      H       0.4830678506     2.6443916761    -0.4931814937
   29      C       2.6734689915    -1.1926877383    -1.0391988691
   30      H       3.5929970621    -0.7729353359    -1.4605342507
   31      H       2.9330571314    -2.0565075697    -0.4195789637
   32      H       2.0230691105    -1.5404525628    -1.8394896124
 ----------------------------------------------------------------
 Molecular Point Group                 C1    NOp =  1
 Largest Abelian Subgroup              C1    NOp =  1
 Nuclear Repulsion Energy =  1250.8754928139 hartrees
 There are       61 alpha and       61 beta electrons
 Applying Cartesian multipole field
    Component          Value
    ---------          -----
     (2,0,0)        1.00000E-11
     (0,2,0)        2.00000E-11
     (0,0,2)       -3.00000E-11
 Nucleus-field energy     =     0.0000000329 hartrees
 Requested basis set is 6-31G(d)
 There are 96 shells and 272 basis functions
 A cutoff of  1.0D-12 yielded   3748 shell pairs
 There are     32228 function pairs
 Smallest overlap matrix eigenvalue = 9.54E-04
 Guess MOs from SCF MO coefficient file
 Reading MOs from coefficient file
 Reading MOs from coefficient file
 A restricted hybrid HF-DFT SCF calculation will be
 performed using Pulay DIIS extrapolation
 Exchange:     0.2000 Hartree-Fock + 0.0800 Slater + 0.7200 B88
 Correlation:  0.1900 VWN1RPA + 0.8100 LYP
 Using SG-1 standard quadrature grid
 Dispersion:   Grimme D3
 SCF converges when DIIS error is below 1.0E-08
 Geometry optimization detected.  Setting ReadMinima to 0
 Setting SaveMinima to 0
 using 24 threads for integral computing 
 -------------------------------------------------------
 OpenMP BLAS3 based DFT computing Module                
 Release: version 1.0, May 2013, Q-Chem Inc. Pittsburgh 
 -------------------------------------------------------
 ---------------------------------------
  Cycle       Energy         DIIS Error
 ---------------------------------------
    1    -804.9575140851      5.80E-04
    2    -804.9602590138      5.63E-05
    3    -804.9602616764      6.44E-05
    4    -804.9602950959      1.79E-05
    5    -804.9602968878      8.33E-06
    6    -804.9602973203      2.93E-06
    7    -804.9602973742      1.07E-06
    8    -804.9602973823      1.87E-07
    9    -804.9602973826      5.72E-08
   10    -804.9602973826      3.22E-08
   11    -804.9602973825      1.16E-08
   12    -804.9602973827      2.80E-09 Convergence criterion met
 ---------------------------------------
 SCF time:  CPU 209.99 s  wall 10.90 s
 SCF   energy in the final basis set = -804.9602973827
 Total energy in the final basis set = -804.9602973827
 
 --------------------------------------------------------------
 
                    Orbital Energies (a.u.)
 --------------------------------------------------------------
 
 Alpha MOs
 -- Occupied --
-19.196 -19.182 -19.145 -19.138 -19.127 -10.315 -10.308 -10.245
-10.244 -10.243 -10.231 -10.212 -10.209 -10.191 -10.187 -10.165
 -1.105  -1.092  -1.050  -1.016  -1.005  -0.820  -0.783  -0.771
 -0.738  -0.713  -0.677  -0.641  -0.593  -0.584  -0.559  -0.541
 -0.520  -0.499  -0.493  -0.479  -0.478  -0.471  -0.465  -0.457
 -0.447  -0.426  -0.415  -0.411  -0.405  -0.396  -0.380  -0.368
 -0.363  -0.359  -0.355  -0.348  -0.347  -0.340  -0.323  -0.317
 -0.306  -0.291  -0.275  -0.260  -0.257
 -- Virtual --
  0.002   0.027   0.071   0.090   0.109   0.115   0.127   0.128
  0.133   0.146   0.149   0.153   0.157   0.158   0.163   0.171
  0.174   0.178   0.181   0.191   0.198   0.205   0.218   0.224
  0.234   0.245   0.260   0.276   0.302   0.304   0.320   0.330
  0.376   0.388   0.400   0.496   0.499   0.515   0.529   0.533
  0.548   0.551   0.554   0.562   0.566   0.580   0.585   0.597
  0.605   0.620   0.628   0.641   0.641   0.651   0.676   0.685
  0.716   0.720   0.741   0.751   0.752   0.762   0.789   0.818
  0.822   0.829   0.837   0.841   0.843   0.853   0.860   0.865
  0.871   0.876   0.884   0.890   0.910   0.927   0.929   0.933
  0.941   0.946   0.951   0.963   0.970   0.985   0.998   1.012
  1.026   1.035   1.040   1.082   1.096   1.097   1.150   1.170
  1.194   1.222   1.236   1.255   1.284   1.323   1.338   1.351
  1.360   1.387   1.407   1.422   1.426   1.476   1.478   1.516
  1.528   1.568   1.587   1.619   1.635   1.644   1.662   1.696
  1.701   1.727   1.734   1.738   1.768   1.779   1.791   1.813
  1.817   1.850   1.857   1.870   1.898   1.912   1.934   1.941
  1.962   1.965   1.977   1.983   2.003   2.014   2.033   2.034
  2.050   2.064   2.066   2.095   2.112   2.116   2.126   2.144
  2.149   2.179   2.194   2.216   2.233   2.269   2.285   2.292
  2.300   2.316   2.324   2.328   2.353   2.385   2.400   2.432
  2.443   2.481   2.496   2.536   2.550   2.562   2.583   2.637
  2.639   2.648   2.680   2.708   2.722   2.741   2.766   2.799
  2.829   2.840   2.879   2.951   2.975   2.982   3.058   3.066
  3.088   3.164   3.193   3.978   4.026   4.080   4.148   4.216
  4.251   4.272   4.288   4.345   4.404   4.527   4.561   4.609
  4.674   4.768   4.966
 --------------------------------------------------------------
 
          Ground-State Mulliken Net Atomic Charges

     Atom                 Charge (a.u.)
  ----------------------------------------
      1 C                    -0.188058
      2 C                    -0.201430
      3 C                     0.634504
      4 C                     0.648450
      5 O                    -0.462129
      6 O                    -0.475550
      7 O                    -0.466493
      8 O                    -0.483261
      9 C                    -0.218983
     10 C                    -0.219482
     11 C                     0.101095
     12 C                    -0.281940
     13 C                    -0.291505
     14 C                     0.311185
     15 O                    -0.483887
     16 H                     0.162854
     17 H                     0.163766
     18 H                     0.166848
     19 H                     0.174440
     20 H                     0.153971
     21 H                     0.139708
     22 H                     0.149283
     23 H                     0.137777
     24 H                     0.156022
     25 H                     0.181382
     26 H                     0.165095
     27 H                     0.170429
     28 H                     0.149437
     29 C                    -0.475276
     30 H                     0.139645
     31 H                     0.144166
     32 H                     0.197938
  ----------------------------------------
  Sum of atomic charges =    -0.000000

 -----------------------------------------------------------------
                    Cartesian Multipole Moments
 -----------------------------------------------------------------
    Charge (ESU x 10^10)
                -0.0000
    Dipole Moment (Debye)
         X      -0.9649      Y       1.9495      Z       3.1364
       Tot       3.8169
    Quadrupole Moments (Debye-Ang)
        XX     -81.0550     XY      -0.4368     YY     -89.5455
        XZ       2.3921     YZ      -4.2087     ZZ     -97.2998
    Octopole Moments (Debye-Ang^2)
       XXX     -52.5021    XXY       4.1588    XYY     -28.4874
       YYY       4.6098    XXZ      -3.0177    XYZ       8.4766
       YYZ       3.9185    XZZ      -5.5939    YZZ       0.9645
       ZZZ      -2.9711
    Hexadecapole Moments (Debye-Ang^3)
      XXXX   -2084.4675   XXXY     -66.3745   XXYY    -565.0746
      XYYY       5.3203   YYYY   -1590.3726   XXXZ      -9.9378
      XXYZ     -22.6066   XYYZ       4.1461   YYYZ     -53.3838
      XXZZ    -453.0106   XYZZ     -17.1544   YYZZ    -350.3751
      XZZZ      -3.6797   YZZZ      -0.8361   ZZZZ    -428.9624
 -----------------------------------------------------------------
 Calculating analytic gradient of the SCF energy
 Gradient of SCF Energy
            1           2           3           4           5           6
    1   0.0004605  -0.0003340  -0.0006375  -0.0010210   0.0005051   0.0002928
    2   0.0014695   0.0001748  -0.0001590  -0.0004750  -0.0006730   0.0000140
    3  -0.0005917   0.0025644  -0.0008660  -0.0012667   0.0001578   0.0004806
            7           8           9          10          11          12
    1   0.0009058  -0.0006200  -0.0006854  -0.0006638   0.0004526  -0.0003572
    2  -0.0004255   0.0002986   0.0002677   0.0009198   0.0005895  -0.0000301
    3  -0.0003589   0.0008660   0.0007887   0.0002676   0.0010980   0.0003448
           13          14          15          16          17          18
    1  -0.0001138   0.0006528  -0.0004502  -0.0000542   0.0000588   0.0001679
    2  -0.0003538   0.0009959  -0.0001959  -0.0001315  -0.0007501   0.0000297
    3   0.0013002  -0.0016567  -0.0000187  -0.0000629  -0.0005500  -0.0002522
           19          20          21          22          23          24
    1   0.0001041  -0.0001124  -0.0000858  -0.0000710   0.0002896   0.0001034
    2  -0.0004620  -0.0001018   0.0002607  -0.0001113  -0.0001136   0.0000937
    3  -0.0000070  -0.0002759  -0.0003601  -0.0003328  -0.0003173  -0.0001096
           25          26          27          28          29          30
    1   0.0003670   0.0002091   0.0002514  -0.0003656   0.0006748   0.0003574
    2  -0.0002843  -0.0000933  -0.0001689  -0.0004498  -0.0005124   0.0000914
    3  -0.0001854   0.0000464  -0.0002630  -0.0006245  -0.0005918   0.0005468
           31          32
    1  -0.0004381   0.0001571
    2  -0.0001203   0.0004063
    3  -0.0002057   0.0004356
 Max gradient component =       2.564E-03
 RMS gradient           =       5.850E-04
 Gradient time:  CPU 87.38 s  wall 4.99 s
 Geometry Optimization Parameters
   NAtoms,    NIC,     NZ,  NCons,   NDum,   NFix, NCnnct, MaxDiis
       32     251       0       2       0       0       0       0

 Cartesian Hessian Update
 Hessian Updated using BFGS Update


** CONSTRAINED OPTIMIZATION IN DELOCALIZED INTERNAL COORDINATES **
   Searching for a Minimum

   Optimization Cycle:   4

                       Coordinates (Angstroms)
     ATOM                X               Y               Z
      1  C        -0.0866704789    0.8150808197    0.6604944271
      2  C         0.7005496108   -0.5363357350    0.6227975589
      3  C        -1.3757264175    0.8308845949   -0.1364337507
      4  C        -0.1316465705   -1.7234715185    0.1505742696
      5  O        -2.1482120009    1.8650422022    0.2670094507
      6  O        -1.6781453673    0.0875814164   -1.0431589539
      7  O        -1.1788769750   -1.8764590667    0.9998801786
      8  O         0.0994059763   -2.4851258059   -0.7575034671
      9  C        -2.1247176938   -2.8855129438    0.6124030468
     10  C        -3.3722983626    2.0358627045   -0.4699393466
     11  C         0.9352472153    1.7586906546   -0.0436189163
     12  C         2.1367107414    2.0135142483    0.8893557492
     13  C         2.8965778814    0.6622219126    0.7549685128
     14  C         1.9718295621   -0.1353706250   -0.2123802084
     15  O         1.4696846214    0.9178956735   -1.0631674113
     16  H        -0.3088119834    1.1449470711    1.6772443912
     17  H         0.9958256200   -0.8026074422    1.6429558207
     18  H        -1.6461160909   -3.8681138156    0.5704970134
     19  H        -3.1612448346    2.1965875351   -1.5308502228
     20  H         2.7344707213    2.8460774428    0.5087657000
     21  H         1.8310205971    2.2535740568    1.9119180676
     22  H         3.8704098372    0.8073017280    0.2781485567
     23  H         3.0615563930    0.1489756715    1.7066768827
     24  H        -2.9047426702   -2.8675876015    1.3745055017
     25  H        -2.5364600989   -2.6482468995   -0.3725692841
     26  H        -3.8592979147    2.9075204736   -0.0325469727
     27  H        -4.0024247245    1.1472990925   -0.3710063184
     28  H         0.4830678506    2.6443916761   -0.4931814937
     29  C         2.6734689915   -1.1926877383   -1.0391988691
     30  H         3.5929970621   -0.7729353359   -1.4605342507
     31  H         2.9330571314   -2.0565075697   -0.4195789637
     32  H         2.0230691105   -1.5404525628   -1.8394896124
   Point Group: c1    Number of degrees of freedom:    90


   Energy is   -804.960297383

              Constraints and their Current Values
                                        Value     Constraint
   Dihedral:        2   1   3   5      162.300      162.300
   Dihedral:        1   2   4   7      -60.000      -60.000
 Hessian Updated using BFGS Update

 82 Hessian modes will be used to form the next step
  Hessian Eigenvalues:
     0.025270    0.045001    0.045003    0.045026    0.045100    0.045420
     0.045786    0.048490    0.056337    0.061119    0.063202    0.068296
     0.070966    0.073164    0.073389    0.076975    0.079689    0.080419
     0.082074    0.082664    0.083642    0.084538    0.085386    0.090127
     0.091432    0.092052    0.096854    0.110184    0.112590    0.113794
     0.116449    0.116929    0.117024    0.123222    0.128126    0.141381
     0.143541    0.158342    0.159939    0.160084    0.163105    0.178861
     0.197075    0.246008    0.248720    0.249256    0.249946    0.249998
     0.250135    0.258903    0.262187    0.269497    0.276924    0.292103
     0.302562    0.306814    0.308766    0.325477    0.336622    0.339463
     0.340050    0.340795    0.341333    0.341739    0.342244    0.342322
     0.342896    0.343078    0.343435    0.343501    0.343535    0.343711
     0.344480    0.344962    0.346713    0.397776    0.411446    0.416504
     0.510496    0.516622    0.953645    0.955310

 Minimum Search - Taking Simple RFO Step
 Searching for Lamda that Minimizes Along All modes
 Value Taken    Lamda =  -0.00009397
 Step Taken.  Stepsize is  0.038796

                             Maximum     Tolerance    Cnvgd?
         Gradient           0.001421      0.000005      NO
         Displacement       0.011433      0.000005      NO
         Energy change     -0.000228      0.000000      NO


 New Cartesian Coordinates Obtained by Inverse Iteration

 Displacement from previous Coordinates is:  0.072197
 ----------------------------------------------------------------
             Standard Nuclear Orientation (Angstroms)
    I     Atom           X                Y                Z
 ----------------------------------------------------------------
    1      C      -0.0865086678     0.8142279625     0.6630619159
    2      C       0.7022399455    -0.5352526112     0.6257597972
    3      C      -1.3756340718     0.8309378798    -0.1335118684
    4      C      -0.1279957563    -1.7230671903     0.1556132952
    5      O      -2.1507637102     1.8641761872     0.2687342654
    6      O      -1.6768182666     0.0891211473    -1.0424952333
    7      O      -1.1755093208    -1.8792012098     1.0047935601
    8      O       0.1034653488    -2.4823680115    -0.7551356712
    9      C      -2.1241357879    -2.8828499735     0.6083130582
   10      C      -3.3729374989     2.0318577036    -0.4724951152
   11      C       0.9356814750     1.7576990703    -0.0435344455
   12      C       2.1388454691     2.0131837105     0.8878860368
   13      C       2.8985029173     0.6636474006     0.7521656484
   14      C       1.9714828783    -0.1358882636    -0.2106680918
   15      O       1.4682306319     0.9163758317    -1.0622362131
   16      H      -0.3069485382     1.1456529275     1.6797493917
   17      H       0.9966210417    -0.7947628137     1.6484963028
   18      H      -1.6488502305    -3.8664209504     0.5547322569
   19      H      -3.1600343260     2.1963265416    -1.5325721367
   20      H       2.7361693804     2.8469384633     0.5089879346
   21      H       1.8346735906     2.2497043806     1.9120676428
   22      H       3.8727869409     0.8087398773     0.2762054066
   23      H       3.0620800947     0.1525474789     1.7054310162
   24      H      -2.9016567156    -2.8722214995     1.3732422415
   25      H      -2.5403473432    -2.6323862129    -0.3716060324
   26      H      -3.8642697171     2.9016541068    -0.0360361333
   27      H      -4.0023660384     1.1424706515    -0.3756542686
   28      H       0.4842903005     2.6457184114    -0.4893585142
   29      C       2.6689588473    -1.1945688828    -1.0384017970
   30      H       3.5846058528    -0.7761126889    -1.4686988636
   31      H       2.9351394806    -2.0550114125    -0.4164306126
   32      H       2.0145585340    -1.5488336979    -1.8333676877
 ----------------------------------------------------------------
 Molecular Point Group                 C1    NOp =  1
 Largest Abelian Subgroup              C1    NOp =  1
 Nuclear Repulsion Energy =  1251.0562884443 hartrees
 There are       61 alpha and       61 beta electrons
 Applying Cartesian multipole field
    Component          Value
    ---------          -----
     (2,0,0)        1.00000E-11
     (0,2,0)        2.00000E-11
     (0,0,2)       -3.00000E-11
 Nucleus-field energy     =     0.0000000329 hartrees
 Requested basis set is 6-31G(d)
 There are 96 shells and 272 basis functions
 A cutoff of  1.0D-12 yielded   3750 shell pairs
 There are     32230 function pairs
 Smallest overlap matrix eigenvalue = 9.50E-04
 Guess MOs from SCF MO coefficient file
 Reading MOs from coefficient file
 Reading MOs from coefficient file
 A restricted hybrid HF-DFT SCF calculation will be
 performed using Pulay DIIS extrapolation
 Exchange:     0.2000 Hartree-Fock + 0.0800 Slater + 0.7200 B88
 Correlation:  0.1900 VWN1RPA + 0.8100 LYP
 Using SG-1 standard quadrature grid
 Dispersion:   Grimme D3
 SCF converges when DIIS error is below 1.0E-08
 Geometry optimization detected.  Setting ReadMinima to 0
 Setting SaveMinima to 0
 using 24 threads for integral computing 
 -------------------------------------------------------
 OpenMP BLAS3 based DFT computing Module                
 Release: version 1.0, May 2013, Q-Chem Inc. Pittsburgh 
 -------------------------------------------------------
 ---------------------------------------
  Cycle       Energy         DIIS Error
 ---------------------------------------
    1    -804.9598909024      1.29E-04
    2    -804.9603539569      1.75E-05
    3    -804.9603535813      2.13E-05
    4    -804.9603570743      5.46E-06
    5    -804.9603572311      2.78E-06
    6    -804.9603572851      6.41E-07
    7    -804.9603572879      2.33E-07
    8    -804.9603572883      5.78E-08
    9    -804.9603572883      2.04E-08
   10    -804.9603572883      8.57E-09 Convergence criterion met
 ---------------------------------------
 SCF time:  CPU 177.56 s  wall 9.17 s
 SCF   energy in the final basis set = -804.9603572883
 Total energy in the final basis set = -804.9603572883
 
 --------------------------------------------------------------
 
                    Orbital Energies (a.u.)
 --------------------------------------------------------------
 
 Alpha MOs
 -- Occupied --
-19.196 -19.182 -19.145 -19.138 -19.127 -10.316 -10.308 -10.245
-10.244 -10.243 -10.231 -10.212 -10.209 -10.191 -10.187 -10.165
 -1.105  -1.092  -1.050  -1.016  -1.005  -0.820  -0.783  -0.771
 -0.738  -0.713  -0.677  -0.641  -0.593  -0.584  -0.559  -0.541
 -0.521  -0.500  -0.493  -0.479  -0.478  -0.471  -0.465  -0.458
 -0.447  -0.426  -0.415  -0.411  -0.405  -0.396  -0.380  -0.368
 -0.363  -0.359  -0.355  -0.348  -0.347  -0.340  -0.323  -0.317
 -0.306  -0.291  -0.275  -0.260  -0.257
 -- Virtual --
  0.002   0.026   0.070   0.090   0.109   0.115   0.127   0.128
  0.133   0.146   0.149   0.153   0.157   0.158   0.163   0.172
  0.174   0.178   0.181   0.191   0.198   0.205   0.218   0.224
  0.234   0.245   0.260   0.276   0.301   0.304   0.320   0.330
  0.376   0.388   0.400   0.496   0.499   0.515   0.529   0.532
  0.548   0.551   0.554   0.562   0.566   0.580   0.585   0.598
  0.606   0.620   0.628   0.640   0.641   0.650   0.676   0.685
  0.717   0.719   0.741   0.751   0.751   0.762   0.789   0.818
  0.822   0.829   0.836   0.841   0.843   0.852   0.860   0.865
  0.871   0.876   0.884   0.890   0.910   0.927   0.929   0.933
  0.941   0.946   0.951   0.964   0.970   0.985   0.999   1.012
  1.027   1.035   1.041   1.082   1.096   1.098   1.151   1.170
  1.194   1.222   1.237   1.255   1.283   1.323   1.337   1.351
  1.359   1.387   1.408   1.422   1.426   1.476   1.477   1.516
  1.527   1.567   1.586   1.619   1.634   1.643   1.662   1.696
  1.701   1.728   1.734   1.739   1.768   1.779   1.792   1.813
  1.817   1.850   1.857   1.870   1.898   1.913   1.934   1.942
  1.962   1.965   1.977   1.983   2.003   2.014   2.033   2.034
  2.050   2.065   2.066   2.096   2.111   2.115   2.127   2.144
  2.149   2.179   2.194   2.216   2.233   2.268   2.286   2.293
  2.300   2.316   2.325   2.328   2.353   2.386   2.400   2.432
  2.442   2.481   2.496   2.536   2.550   2.562   2.583   2.636
  2.640   2.648   2.680   2.707   2.721   2.741   2.767   2.799
  2.829   2.839   2.879   2.952   2.974   2.982   3.058   3.066
  3.088   3.163   3.192   3.978   4.026   4.081   4.148   4.216
  4.251   4.272   4.288   4.345   4.404   4.525   4.561   4.609
  4.674   4.769   4.967
 --------------------------------------------------------------
 
          Ground-State Mulliken Net Atomic Charges

     Atom                 Charge (a.u.)
  ----------------------------------------
      1 C                    -0.188313
      2 C                    -0.202000
      3 C                     0.634714
      4 C                     0.649351
      5 O                    -0.462342
      6 O                    -0.475841
      7 O                    -0.467014
      8 O                    -0.483170
      9 C                    -0.219218
     10 C                    -0.219384
     11 C                     0.101404
     12 C                    -0.282256
     13 C                    -0.291307
     14 C                     0.311694
     15 O                    -0.483450
     16 H                     0.162786
     17 H                     0.163871
     18 H                     0.167252
[...]
  2.049   2.058   2.067   2.096   2.110   2.117   2.125   2.143
  2.151   2.180   2.190   2.217   2.234   2.265   2.286   2.293
  2.300   2.313   2.321   2.333   2.354   2.384   2.398   2.429
  2.438   2.475   2.497   2.539   2.552   2.562   2.584   2.633
  2.639   2.649   2.679   2.708   2.721   2.741   2.766   2.799
  2.828   2.843   2.878   2.947   2.972   2.981   3.057   3.065
  3.089   3.161   3.190   3.983   4.020   4.075   4.150   4.218
  4.252   4.273   4.290   4.355   4.402   4.529   4.559   4.613
  4.673   4.770   4.963
 --------------------------------------------------------------
 
          Ground-State Mulliken Net Atomic Charges

     Atom                 Charge (a.u.)
  ----------------------------------------
      1 C                    -0.188360
      2 C                    -0.204031
      3 C                     0.638980
      4 C                     0.650029
      5 O                    -0.463645
      6 O                    -0.476776
      7 O                    -0.466882
      8 O                    -0.483633
      9 C                    -0.219432
     10 C                    -0.219312
     11 C                     0.101259
     12 C                    -0.285463
     13 C                    -0.287501
     14 C                     0.309825
     15 O                    -0.484675
     16 H                     0.162961
     17 H                     0.164811
     18 H                     0.168436
     19 H                     0.174165
     20 H                     0.153790
     21 H                     0.139483
     22 H                     0.149475
     23 H                     0.136957
     24 H                     0.156149
     25 H                     0.180544
     26 H                     0.164617
     27 H                     0.170407
     28 H                     0.149917
     29 C                    -0.474925
     30 H                     0.141264
     31 H                     0.143318
     32 H                     0.198247
  ----------------------------------------
  Sum of atomic charges =     0.000000

 -----------------------------------------------------------------
                    Cartesian Multipole Moments
 -----------------------------------------------------------------
    Charge (ESU x 10^10)
                 0.0000
    Dipole Moment (Debye)
         X      -0.8258      Y       2.0062      Z       3.0976
       Tot       3.7817
    Quadrupole Moments (Debye-Ang)
        XX     -81.0711     XY      -0.9561     YY     -89.9652
        XZ       2.0732     YZ      -4.2654     ZZ     -97.0053
    Octopole Moments (Debye-Ang^2)
       XXX     -49.8773    XXY       3.0972    XYY     -27.8079
       YYY      11.8215    XXZ      -1.8138    XYZ       9.4877
       YYZ       3.1123    XZZ      -4.8588    YZZ       0.4271
       ZZZ      -2.0395
    Hexadecapole Moments (Debye-Ang^3)
      XXXX   -2087.5193   XXXY     -35.8267   XXYY    -552.3665
      XYYY      11.0663   YYYY   -1587.5607   XXXZ     -11.4965
      XXYZ     -21.1823   XYYZ       5.0115   YYYZ     -49.8639
      XXZZ    -452.9120   XYZZ     -10.2246   YYZZ    -347.4238
      XZZZ      -2.4833   YZZZ       4.6259   ZZZZ    -440.8103
 -----------------------------------------------------------------
 Calculating analytic gradient of the SCF energy
 Gradient of SCF Energy
            1           2           3           4           5           6
    1   0.0000009  -0.0000028   0.0000018  -0.0000037   0.0000033   0.0000031
    2   0.0000000  -0.0000017   0.0000033   0.0000013   0.0000031   0.0000041
    3   0.0000001   0.0000011  -0.0000026  -0.0000018  -0.0000027  -0.0000038
            7           8           9          10          11          12
    1  -0.0000052  -0.0000028  -0.0000061   0.0000055   0.0000025   0.0000010
    2   0.0000015   0.0000009   0.0000047   0.0000069  -0.0000008  -0.0000045
    3  -0.0000043  -0.0000023  -0.0000073  -0.0000061   0.0000038   0.0000058
           13          14          15          16          17          18
    1  -0.0000005   0.0000007   0.0000045  -0.0000014  -0.0000048  -0.0000081
    2  -0.0000055  -0.0000034  -0.0000025  -0.0000003  -0.0000027   0.0000033
    3   0.0000056   0.0000031   0.0000041  -0.0000001   0.0000011  -0.0000069
           19          20          21          22          23          24
    1   0.0000080   0.0000036  -0.0000005   0.0000008  -0.0000037  -0.0000078
    2   0.0000066  -0.0000055  -0.0000047  -0.0000071  -0.0000067   0.0000051
    3  -0.0000048   0.0000076   0.0000053   0.0000086   0.0000061  -0.0000088
           25          26          27          28          29          30
    1  -0.0000036   0.0000062   0.0000036   0.0000059   0.0000004   0.0000020
    2   0.0000054   0.0000071   0.0000078  -0.0000005  -0.0000036  -0.0000051
    3  -0.0000079  -0.0000059  -0.0000074   0.0000030   0.0000050   0.0000064
           31          32
    1  -0.0000033   0.0000007
    2  -0.0000048  -0.0000016
    3   0.0000038   0.0000022
 Max gradient component =       8.818E-06
 RMS gradient           =       4.567E-06
 Gradient time:  CPU 104.84 s  wall 5.46 s
 Geometry Optimization Parameters
   NAtoms,    NIC,     NZ,  NCons,   NDum,   NFix, NCnnct, MaxDiis
       32     251       0       0       0       0       0       0

 Cartesian Hessian Update
 Hessian Updated using BFGS Update
**WARNING** Hereditary positive definiteness endangered
**WARNING** Small Scalar Product
 Hessian Update Skipped this cycle


** GEOMETRY OPTIMIZATION IN DELOCALIZED INTERNAL COORDINATES **
   Searching for a Minimum

   Optimization Cycle:  16

                       Coordinates (Angstroms)
     ATOM                X               Y               Z
      1  C        -0.0378596343    0.8140095491    0.6736221926
      2  C         0.6587968613   -0.5839975130    0.6166909794
      3  C        -1.3068942559    0.9288249344   -0.1468535134
      4  C        -0.2592792041   -1.7170821142    0.1800936588
      5  O        -2.0052966069    2.0224210098    0.2367377876
      6  O        -1.6487303779    0.2073597848   -1.0577144394
      7  O        -1.3271510993   -1.7538014167    1.0176928692
      8  O        -0.0775200703   -2.5281087397   -0.6966589523
      9  C        -2.3526315374   -2.6880446333    0.6441067818
     10  C        -3.1998597632    2.2777053544   -0.5225294592
     11  C         1.0537759379    1.6952671111   -0.0039075217
     12  C         2.2818274304    1.8138666836    0.9281489990
     13  C         2.9473367669    0.4263914418    0.7083847123
     14  C         1.9358363862   -0.2696597327   -0.2444968290
     15  O         1.5053601291    0.8468519567   -1.0568345747
     16  H        -0.2538816616    1.1417377275    1.6925745693
     17  H         0.9598786919   -0.8571133714    1.6344824969
     18  H        -1.9556900723   -3.7060023574    0.6028472693
     19  H        -2.9583106087    2.4375616026   -1.5771237539
     20  H         2.9320423829    2.6291709067    0.5994178663
     21  H         1.9996430659    2.0055159700    1.9682074263
     22  H         3.9089729202    0.5280847063    0.1970683540
     23  H         3.1160426191   -0.1314540072    1.6347453154
     24  H        -3.1209271617   -2.6054756603    1.4143394277
     25  H        -2.7572580586   -2.4182972616   -0.3356147136
     26  H        -3.6388618273    3.1758148964   -0.0867037260
     27  H        -3.8902928650    1.4330984954   -0.4434864806
     28  H         0.6785076865    2.6350891299   -0.4119415116
     29  C         2.5284577949   -1.3521022326   -1.1208124770
     30  H         3.4135616504   -0.9542490756   -1.6280343967
     31  H         2.8282081004   -2.2127250292   -0.5144490655
     32  H         1.8055965064   -1.6955244400   -1.8590172728
   Point Group: c1    Number of degrees of freedom:    90


   Energy is   -804.960495382

 Hessian Updated using BFGS Update
**WARNING** Hereditary positive definiteness endangered
**WARNING** Small Scalar Product
 Hessian Update Skipped this cycle

 90 Hessian modes will be used to form the next step
  Hessian Eigenvalues:
     0.001018    0.002122    0.006197    0.007511    0.009935    0.010534
     0.013301    0.021093    0.021834    0.022852    0.027066    0.033925
     0.035443    0.037091    0.041544    0.045252    0.045455    0.049575
     0.051114    0.052895    0.055564    0.057207    0.058834    0.059491
     0.059937    0.060859    0.064311    0.065707    0.067736    0.074743
     0.091532    0.098393    0.101228    0.101706    0.103379    0.105617
     0.105919    0.113812    0.131354    0.138513    0.158824    0.159742
     0.159937    0.159997    0.160000    0.160040    0.160276    0.160425
     0.160702    0.168714    0.199058    0.232784    0.240806    0.247013
     0.248711    0.250004    0.250322    0.252709    0.253701    0.261809
     0.276658    0.285714    0.298655    0.309198    0.323523    0.341708
     0.342275    0.342390    0.342673    0.343183    0.343426    0.343646
     0.343798    0.343939    0.344013    0.344213    0.344661    0.345691
     0.346467    0.346816    0.346925    0.347589    0.369550    0.397644
     0.403187    0.431672    0.535502    0.542509    0.993361    1.009682

 Minimum Search - Taking Simple RFO Step
 Searching for Lamda that Minimizes Along All modes
 Value Taken    Lamda =   0.00000000
 Step Taken.  Stepsize is  0.000114

                             Maximum     Tolerance    Cnvgd?
         Gradient           0.000001      0.000005     YES
         Displacement       0.000051      0.000005      NO
         Energy change     -0.000000      0.000000     YES

 Final energy is   -804.960495382288     


 ******************************
 **  OPTIMIZATION CONVERGED  **
 ******************************

                       Coordinates (Angstroms)
     ATOM                X               Y               Z
      1  C        -0.0378596343    0.8140095491    0.6736221926
      2  C         0.6587968613   -0.5839975130    0.6166909794
      3  C        -1.3068942559    0.9288249344   -0.1468535134
      4  C        -0.2592792041   -1.7170821142    0.1800936588
      5  O        -2.0052966069    2.0224210098    0.2367377876
      6  O        -1.6487303779    0.2073597848   -1.0577144394
      7  O        -1.3271510993   -1.7538014167    1.0176928692
      8  O        -0.0775200703   -2.5281087397   -0.6966589523
      9  C        -2.3526315374   -2.6880446333    0.6441067818
     10  C        -3.1998597632    2.2777053544   -0.5225294592
     11  C         1.0537759379    1.6952671111   -0.0039075217
     12  C         2.2818274304    1.8138666836    0.9281489990
     13  C         2.9473367669    0.4263914418    0.7083847123
     14  C         1.9358363862   -0.2696597327   -0.2444968290
     15  O         1.5053601291    0.8468519567   -1.0568345747
     16  H        -0.2538816616    1.1417377275    1.6925745693
     17  H         0.9598786919   -0.8571133714    1.6344824969
     18  H        -1.9556900723   -3.7060023574    0.6028472693
     19  H        -2.9583106087    2.4375616026   -1.5771237539
     20  H         2.9320423829    2.6291709067    0.5994178663
     21  H         1.9996430659    2.0055159700    1.9682074263
     22  H         3.9089729202    0.5280847063    0.1970683540
     23  H         3.1160426191   -0.1314540072    1.6347453154
     24  H        -3.1209271617   -2.6054756603    1.4143394277
     25  H        -2.7572580586   -2.4182972616   -0.3356147136
     26  H        -3.6388618273    3.1758148964   -0.0867037260
     27  H        -3.8902928650    1.4330984954   -0.4434864806
     28  H         0.6785076865    2.6350891299   -0.4119415116
     29  C         2.5284577949   -1.3521022326   -1.1208124770
     30  H         3.4135616504   -0.9542490756   -1.6280343967
     31  H         2.8282081004   -2.2127250292   -0.5144490655
     32  H         1.8055965064   -1.6955244400   -1.8590172728

Z-matrix Print:
$molecule
0 1
O 
C  1 1.425620
H  2 1.091139 1 110.202599
C  1 1.446306 2 97.982343 3 -179.609850 0
C  4 1.513543 1 110.086571 2 178.112003 0
H  5 1.088767 4 110.988802 1 58.516343 0
H  5 1.094623 4 110.412839 1 178.276182 0
H  5 1.094975 4 108.956262 1 -62.390780 0
C  2 1.546255 1 103.843470 3 124.424182 0
H  9 1.093419 2 110.380614 1 -86.851277 0
H  9 1.094568 2 112.423115 1 152.535994 0
C  4 1.554221 1 101.088912 2 56.251558 0
H  12 1.093860 4 109.098280 1 81.592676 0
H  12 1.094439 4 113.015922 1 -158.362850 0
C  2 1.557989 1 101.917989 3 -121.527508 0
H  15 1.091941 2 112.002984 1 -160.120125 0
C  15 1.515524 2 107.964369 1 80.525174 0
O  17 1.211211 15 126.750394 2 -91.736501 0
O  17 1.353093 15 109.874260 2 85.057467 0
C  19 1.438276 17 114.991847 15 -176.832010 0
H  20 1.090535 19 105.637264 17 -179.648237 0
H  20 1.093649 19 110.582322 17 60.505223 0
H  20 1.093758 19 110.430647 17 -59.952658 0
C  15 1.563008 2 100.240855 1 -40.045567 0
H  24 1.095966 15 108.150478 2 -108.514884 0
C  24 1.522288 15 114.041235 2 135.996496 0
O  26 1.208096 24 128.104300 15 -128.011814 0
O  26 1.357671 24 108.514774 15 56.479727 0
C  28 1.436658 26 114.745835 24 -173.822707 0
H  29 1.091034 28 105.655725 26 -179.266852 0
H  29 1.093391 28 110.861123 26 -59.343782 0
H  29 1.093774 28 109.670294 26 61.412155 0
$end

 
 --------------------------------------------------------------
 
                    Orbital Energies (a.u.)
 --------------------------------------------------------------
 
 Alpha MOs
 -- Occupied --
-19.195 -19.182 -19.145 -19.138 -19.128 -10.315 -10.309 -10.245
-10.244 -10.243 -10.231 -10.212 -10.209 -10.191 -10.187 -10.165
 -1.105  -1.092  -1.050  -1.016  -1.006  -0.820  -0.783  -0.770
 -0.738  -0.713  -0.677  -0.641  -0.593  -0.584  -0.559  -0.541
 -0.521  -0.500  -0.493  -0.479  -0.478  -0.471  -0.465  -0.458
 -0.448  -0.426  -0.415  -0.410  -0.405  -0.397  -0.381  -0.368
 -0.362  -0.359  -0.355  -0.348  -0.348  -0.340  -0.323  -0.317
 -0.305  -0.292  -0.275  -0.261  -0.257
 -- Virtual --
  0.002   0.026   0.071   0.091   0.109   0.115   0.127   0.127
  0.133   0.146   0.151   0.153   0.158   0.159   0.163   0.172
  0.174   0.180   0.181   0.190   0.197   0.205   0.218   0.222
  0.233   0.246   0.260   0.275   0.301   0.304   0.319   0.331
  0.376   0.389   0.400   0.498   0.498   0.515   0.528   0.533
  0.548   0.551   0.557   0.562   0.566   0.580   0.586   0.597
  0.606   0.620   0.629   0.640   0.641   0.650   0.674   0.685
  0.715   0.717   0.742   0.749   0.754   0.761   0.791   0.818
  0.824   0.830   0.836   0.842   0.846   0.852   0.860   0.867
  0.872   0.876   0.884   0.892   0.909   0.926   0.927   0.931
  0.941   0.946   0.952   0.961   0.972   0.982   1.000   1.009
  1.026   1.035   1.042   1.082   1.096   1.104   1.153   1.171
  1.194   1.219   1.236   1.255   1.282   1.322   1.334   1.353
  1.358   1.386   1.410   1.421   1.425   1.477   1.479   1.516
  1.529   1.563   1.585   1.618   1.631   1.641   1.666   1.698
  1.701   1.726   1.731   1.742   1.768   1.776   1.794   1.811
  1.814   1.848   1.859   1.869   1.899   1.909   1.933   1.945
  1.960   1.963   1.977   1.986   2.000   2.018   2.032   2.036
  2.049   2.058   2.067   2.096   2.110   2.117   2.125   2.143
  2.151   2.180   2.190   2.217   2.234   2.265   2.286   2.293
  2.300   2.313   2.321   2.333   2.354   2.384   2.398   2.429
  2.438   2.475   2.497   2.539   2.552   2.562   2.584   2.633
  2.639   2.649   2.679   2.708   2.721   2.741   2.766   2.799
  2.828   2.843   2.878   2.947   2.972   2.981   3.057   3.065
  3.089   3.161   3.190   3.983   4.020   4.075   4.150   4.218
  4.252   4.273   4.290   4.355   4.402   4.529   4.559   4.613
  4.673   4.770   4.963
 --------------------------------------------------------------
 
          Ground-State Mulliken Net Atomic Charges

     Atom                 Charge (a.u.)
  ----------------------------------------
      1 C                    -0.188360
      2 C                    -0.204031
      3 C                     0.638980
      4 C                     0.650029
      5 O                    -0.463645
      6 O                    -0.476776
      7 O                    -0.466882
      8 O                    -0.483633
      9 C                    -0.219432
     10 C                    -0.219312
     11 C                     0.101259
     12 C                    -0.285463
     13 C                    -0.287501
     14 C                     0.309825
     15 O                    -0.484675
     16 H                     0.162961
     17 H                     0.164811
     18 H                     0.168436
     19 H                     0.174165
     20 H                     0.153790
     21 H                     0.139483
     22 H                     0.149475
     23 H                     0.136957
     24 H                     0.156149
     25 H                     0.180544
     26 H                     0.164617
     27 H                     0.170407
     28 H                     0.149917
     29 C                    -0.474925
     30 H                     0.141264
     31 H                     0.143318
     32 H                     0.198247
  ----------------------------------------
  Sum of atomic charges =     0.000000

 -----------------------------------------------------------------
                    Cartesian Multipole Moments
 -----------------------------------------------------------------
    Charge (ESU x 10^10)
                 0.0000
    Dipole Moment (Debye)
         X      -0.8258      Y       2.0062      Z       3.0976
       Tot       3.7817
    Quadrupole Moments (Debye-Ang)
        XX     -81.0711     XY      -0.9561     YY     -89.9652
        XZ       2.0732     YZ      -4.2654     ZZ     -97.0053
    Octopole Moments (Debye-Ang^2)
       XXX     -49.8773    XXY       3.0972    XYY     -27.8079
       YYY      11.8215    XXZ      -1.8138    XYZ       9.4877
       YYZ       3.1123    XZZ      -4.8588    YZZ       0.4271
       ZZZ      -2.0395
    Hexadecapole Moments (Debye-Ang^3)
      XXXX   -2087.5193   XXXY     -35.8267   XXYY    -552.3665
      XYYY      11.0663   YYYY   -1587.5607   XXXZ     -11.4965
      XXYZ     -21.1823   XYYZ       5.0115   YYYZ     -49.8639
      XXZZ    -452.9120   XYZZ     -10.2246   YYZZ    -347.4238
      XZZZ      -2.4833   YZZZ       4.6259   ZZZZ    -440.8103
 -----------------------------------------------------------------
Archival summary:
1\1\nid03798\OPT\ProcedureUnspecified\6-31G*\51116\junteng\MonOct221:38:342017MonOct221:38:342017\0\\#,OPT,ProcedureUnspecified,6-31G*,\\0,1\O\C,1,1.42562\H,2,1.09114,1,110.203\C,1,1.44631,2,97.9823,3,-179.61,0\C,4,1.51354,1,110.087,2,178.112,0\H,5,1.08877,4,110.989,1,58.5163,0\H,5,1.09462,4,110.413,1,178.276,0\H,5,1.09497,4,108.956,1,-62.3908,0\C,2,1.54626,1,103.843,3,124.424,0\H,9,1.09342,2,110.381,1,-86.8513,0\H,9,1.09457,2,112.423,1,152.536,0\C,4,1.55422,1,101.089,2,56.2516,0\H,12,1.09386,4,109.098,1,81.5927,0\H,12,1.09444,4,113.016,1,-158.363,0\C,2,1.55799,1,101.918,3,-121.528,0\H,15,1.09194,2,112.003,1,-160.12,0\C,15,1.51552,2,107.964,1,80.5252,0\O,17,1.21121,15,126.75,2,-91.7365,0\O,17,1.35309,15,109.874,2,85.0575,0\C,19,1.43828,17,114.992,15,-176.832,0\H,20,1.09054,19,105.637,17,-179.648,0\H,20,1.09365,19,110.582,17,60.5052,0\H,20,1.09376,19,110.431,17,-59.9527,0\C,15,1.56301,2,100.241,1,-40.0456,0\H,24,1.09597,15,108.15,2,-108.515,0\C,24,1.52229,15,114.041,2,135.996,0\O,26,1.2081,24,128.104,15,-128.012,0\O,26,1.35767,24,108.515,15,56.4797,0\C,28,1.43666,26,114.746,24,-173.823,0\H,29,1.09103,28,105.656,26,-179.267,0\H,29,1.09339,28,110.861,26,-59.3438,0\H,29,1.09377,28,109.67,26,61.4122,0\\\@

 Total job time:  242.69s(wall), 5391.85s(cpu) 
 Mon Oct  2 21:38:34 2017

        *************************************************************
        *                                                           *
        *  Thank you very much for using Q-Chem.  Have a nice day.  *
        *                                                           *
        *************************************************************


