nid00664 10.128.2
Q-Chem Developer Version! Running on 10.128.2.*
                  Welcome to Q-Chem
     A Quantum Leap Into The Future Of Chemistry


 Q-Chem 5.0, Q-Chem, Inc., Pleasanton, CA (2017)

 Yihan Shao,  Zhengting Gan,  E. Epifanovsky,  A. T. B. Gilbert,  M. Wormit,  
 J. Kussmann,  A. W. Lange,  A. Behn,  Jia Deng,  Xintian Feng,  D. Ghosh,  
 M. Goldey,  P. R. Horn,  L. D. Jacobson,  I. Kaliman,  T. Kus,  A. Landau,  
 Jie Liu,  E. I. Proynov,  R. M. Richard,  R. P. Steele,  E. J. Sundstrom,  
 H. L. Woodcock III,  P. M. Zimmerman,  D. Zuev,  B. Albrecht,  E. Alguire,  
 S. A. Baeppler,  Z. Benda,  Y. A. Bernard,  E. J. Berquist,  K. B. Bravaya,  
 D. Casanova,  Chun-Min Chang,  Yunqing Chen,  A. Chien,  K. D. Closser,  
 M. P. Coons,  S. Dasgupta,  M. Diedenhofen,  Hainam Do,  R. G. Edgar,  
 Po-Tung Fang,  S. Fatehi,  Qingguo Feng,  Qinghui Ge,  A. Ghysels,  
 J. Gomes,  J. Gonthier,  A. Gunina,  M. W. D. Hanson-Heine,  
 P. H. P. Harbach,  A. W. Hauser,  J. E. Herr,  E. G. Hohenstein,  
 Z. C. Holden,  Kerwin Hui,  T.-C. Jagau,  Hyunjun Ji,  B. Kaduk,  
 K. Khistyaev,  Jaehoon Kim,  P. Klunzinger,  K. Koh,  D. Kosenkov,  
 T. Kowalczyk,  C. M. Krauter,  A. Kunitsa,  Ka Un Lao,  A. Laurent,  
 K. V. Lawler,  Joonho Lee,  D. Lefrancois,  S. Lehtola,  D. S. Levine,  
 Yi-Pei Li,  You-Sheng Lin,  Fenglai Liu,  E. Livshits,  A. Luenser,  
 P. Manohar,  E. Mansoor,  S. F. Manzer,  Shan-Ping Mao,  Yuezhi Mao,  
 N. Mardirossian,  A. V. Marenich,  L. A. Martinez-Martinez,  S. A. Maurer,  
 N. J. Mayhall,  S. C. McKenzie,  J.-M. Mewes,  A. F. Morrison,  K. Nanda,  
 T. S. Nguyen-Beck,  R. Olivares-Amaya,  J. A. Parkhill,  T. M. Perrine,  
 F. Plasser,  S. Prager,  A. Prociuk,  D. R. Rehn,  F. Rob,  M. Schneider,  
 N. Sergueev,  S. M. Sharada,  S. Sharma,  D. W. Small,  T. Stauch,  
 T. Stein,  Yu-Chuan Su,  A. J. W. Thom,  T. Tsuchimochi,  L. Vogt,  
 O. Vydrov,  M. A. Watson,  J. Wenzel,  M. de Wergifosse,  T. A. Wesolowski,  
 A. White,  J. Witte,  A. Yamada,  Jun Yang,  K. Yao,  S. Yeganeh,  
 S. R. Yost,  Zhi-Qiang You,  A. Zech,  Igor Ying Zhang,  Xing Zhang,  
 Yan Zhao,  Ying Zhu,  B. R. Brooks,  G. K. L. Chan,  C. J. Cramer,  
 M. S. Gordon,  W. J. Hehre,  A. Klamt,  M. W. Schmidt,  C. D. Sherrill,  
 D. G. Truhlar,  A. Aspuru-Guzik,  R. Baer,  A. T. Bell,  N. A. Besley,  
 Jeng-Da Chai,  A. Dreuw,  B. D. Dunietz,  T. R. Furlani,  Chao-Ping Hsu,  
 Yousung Jung,  Jing Kong,  D. S. Lambrecht,  WanZhen Liang,  C. Ochsenfeld,  
 V. A. Rassolov,  L. V. Slipchenko,  J. E. Subotnik,  T. Van Voorhis,  
 J. M. Herbert,  A. I. Krylov,  P. M. W. Gill,  M. Head-Gordon

 Contributors to earlier versions of Q-Chem not listed above: 
 R. D. Adamson,  B. Austin,  J. Baker,  G. J. O. Beran,  K. Brandhorst,  
 S. T. Brown,  E. F. C. Byrd,  A. K. Chakraborty,  C.-L. Cheng,  
 Siu Hung Chien,  D. M. Chipman,  D. L. Crittenden,  H. Dachsel,  
 R. A. DiStasio Jr.,  R. J. Doerksen,  A. D. Dutoi,  L. Fusti-Molnar,  
 W. A. Goddard III,  A. Golubeva-Zadorozhnaya,  S. R. Gwaltney,  G. Hawkins,  
 A. Heyden,  S. Hirata,  G. Kedziora,  F. J. Keil,  C. Kelley,  Jihan Kim,  
 R. A. King,  R. Z. Khaliullin,  P. P. Korambath,  W. Kurlancheek,  
 A. M. Lee,  M. S. Lee,  S. V. Levchenko,  Ching Yeh Lin,  D. Liotard,  
 R. C. Lochan,  I. Lotan,  P. E. Maslen,  N. Nair,  D. P. O'Neill,  
 D. Neuhauser,  E. Neuscamman,  C. M. Oana,  R. Olson,  B. Peters,  
 R. Peverati,  P. A. Pieniazek,  Y. M. Rhee,  J. Ritchie,  M. A. Rohrdanz,  
 E. Rosta,  N. J. Russ,  H. F. Schaefer III,  N. E. Schultz,  N. Shenvi,  
 A. C. Simmonett,  A. Sodt,  D. Stuck,  K. S. Thanthiriwatte,  V. Vanovschi,  
 Tao Wang,  A. Warshel,  C. F. Williams,  Q. Wu,  X. Xu,  W. Zhang

 Please cite Q-Chem as follows:
 Y. Shao et al., Mol. Phys. 113, 184-215 (2015)
 DOI: 10.1080/00268976.2014.952696

 Q-Chem 5.0.0 for Intel X86 EM64T Linux

 Parts of Q-Chem use Armadillo 5.200.1 (Boston Tea Smuggler).
 http://arma.sourceforge.net/

 Q-Chem begins on Wed Oct  4 17:37:16 2017  

Host: nid00664
0

     Scratch files written to /global/cscratch1/sd/junteng/scratch/14/opt_1101+-.save//

Checking the input file for inconsistencies... 	...done.

--------------------------------------------------------------
User input:
--------------------------------------------------------------
$molecule
0  1
C    0.711  -1.958   0.589
C   -0.299  -1.995   1.756
C    1.089  -0.603   0.022
C   -0.528  -0.668   2.454
O    2.255  -0.726  -0.682
O    0.458   0.435   0.138
O    0.672  -0.221   2.944
O   -1.603  -0.140   2.687
C    0.580   1.027   3.634
C    2.698   0.490  -1.286
C   -0.031  -2.720  -0.508
C   -0.144  -4.202  -0.153
C   -1.210  -4.188   0.944
C   -1.515  -2.680   1.086
O   -1.391  -2.278  -0.299
H    1.639  -2.461   0.888
H    0.068  -2.659   2.552
H   -0.050   0.928   4.523
H    1.951   0.864  -1.993
H   -0.511  -4.776  -1.011
H    0.804  -4.638   0.173
H   -2.087  -4.746   0.595
H   -0.869  -4.649   1.876
H    1.587   1.311   3.953
H    0.196   1.807   2.969
H    3.619   0.278  -1.837
H    2.918   1.240  -0.519
H    0.300  -2.531  -1.532
C   -2.908  -2.427   1.624
H   -3.642  -3.061   1.114
H   -2.968  -2.632   2.696
H   -3.235  -1.402   1.426
$end


$opt
CONSTRAINT
tors    2    1    3    5    167.3
tors    1    2    4    7    -65.0
ENDCONSTRAINT
$end

$rem
JOBTYPE                   OPT
METHOD                    B3LYP
DFT_D                     D3_OP
BASIS                     STO-3G
GEOM_OPT_MAX_CYCLES       500
SYMMETRY                  False
THRESH                    12
SCF_CONVERGENCE           8
MAX_SUB_FILE_NUM          128
MEM_STATIC                400
MEM_TOTAL                 4000
$end

--------------------------------------------------------------
 Adding empirical dispersion correction 
 ----------------------------------------------------------------
 Doing -D3(op) with
 s6 =   1.00000
 s8 =   0.78311
 a1 =   0.30000
 a2 =   4.25000
 n  =  10.00000
 -D3 energy without 3body term =     -0.0354339443 hartrees
 ----------------------------------------------------------------
             Standard Nuclear Orientation (Angstroms)
    I     Atom           X                Y                Z
 ----------------------------------------------------------------
    1      C      -0.1011848019     0.8054220658     0.6072204492
    2      C       0.6620154878    -0.5364971559     0.5955533906
    3      C      -1.4015644380     0.8875516009    -0.1690949129
    4      C      -0.1410572282    -1.7318799813     0.1194146361
    5      O      -2.1190916287     1.9620046977     0.2792423188
    6      O      -1.7586593461     0.1451011244    -1.0692679610
    7      O      -1.2361871469    -1.8724092621     0.9323420513
    8      O       0.1839039632    -2.5367797787    -0.7380435496
    9      C      -2.0705618232    -2.9788079980     0.5833882767
   10      C      -3.3601324547     2.1543130106    -0.4008725103
   11      C       0.8921947687     1.7507805700    -0.0666573788
   12      C       2.1006898551     1.9956119456     0.8359583888
   13      C       2.8581814059     0.6714609442     0.7228580976
   14      C       1.9353848860    -0.1568246325    -0.1989024928
   15      O       1.4677351984     0.8937269451    -1.0780214566
   16      H      -0.3158357451     1.0989107000     1.6422969653
   17      H       0.9675145382    -0.8059543627     1.6169564177
   18      H      -1.5277085504    -3.9211288805     0.7032368423
   19      H      -3.1925366947     2.3218430413    -1.4693196780
   20      H       2.7207990583     2.8058706669     0.4368664437
   21      H       1.8242280680     2.2474343817     1.8632024401
   22      H       3.8327460722     0.8578355890     0.2561866896
   23      H       3.0366664167     0.1979666648     1.6931015044
   24      H      -2.9267737949    -2.9833521908     1.2640838105
   25      H      -2.4439876414    -2.8714877839    -0.4398988433
   26      H      -3.8403685125     3.0440784321     0.0168317195
   27      H      -4.0212059080     1.2961810682    -0.2403095674
   28      H       0.4702491978     2.6594561976    -0.5026946926
   29      C       2.6945415386    -1.2278384490    -0.9542253256
   30      H       3.6222933193    -0.8229488311    -1.3739312116
   31      H       2.9531506788    -2.0694657777    -0.3064647586
   32      H       2.1281180017    -1.5881402477    -1.8179990175
 ----------------------------------------------------------------
 Molecular Point Group                 C1    NOp =  1
 Largest Abelian Subgroup              C1    NOp =  1
 Nuclear Repulsion Energy =  1248.6091517482 hartrees
 There are       61 alpha and       61 beta electrons
 Requested basis set is STO-3G
 There are 48 shells and 96 basis functions

 Total QAlloc Memory Limit   4000 MB
 Mega-Array Size       392 MB
 MEM_STATIC part       400 MB
 A cutoff of  1.0D-12 yielded   1028 shell pairs
 There are      4526 function pairs
 
 -------------------------------------------------------
 OpenMP Integral Computing Module                       
 Release: version 1.0, May 2013, Q-Chem Inc. Pittsburgh 
 -------------------------------------------------------
 Integral Job Info:
 Integral job number is                      11
 Integral operator is                         1
 short-range coefficients                     0
 long-range coefficients              100000000
 Omega coefficients                           0
 if combine SR and LR in K                    0
 Integral screening is                        0
 Integral computing path is                   2
 max size of driver memory is            800000
 size of driver memory is                 45569
 size of scratch memory is               945100
 max col of scratch BK array                289
 max len of scratch array in speh3           22
 max len of scratch index in speh4            8
 max int batch size is                      520
 min int batch size is                       52
 fixed nKL is                                52
 max L of basis functions is                  1
 order of int derivative is                   0
 number of shells is                         48
 number of basis is                          96
 number of cartesian basis is                96
 number of contracted shell pairs          1028
 number of primitive shell pairs           5665
 maxK2 (contraction) of shell pair            9
 max number of K2 of shell pair               1
 max number of CS2 of shell pair            150
 max number of PS2 of shell pair            666
 mem total for path MDJ                   31466
 -------------------------------------------------------
 Smallest overlap matrix eigenvalue = 1.94E-01

 Scale SEOQF with 1.000000e-01/1.000000e-01/1.000000e-01

 Standard Electronic Orientation quadrupole field applied
 Nucleus-field energy     =     0.0000000345 hartrees
 Guess from superposition of atomic densities
 Warning:  Energy on first SCF cycle will be non-variational
 A restricted hybrid HF-DFT SCF calculation will be
 performed using Pulay DIIS extrapolation
 Exchange:     0.2000 Hartree-Fock + 0.0800 Slater + 0.7200 B88
 Correlation:  0.1900 VWN1RPA + 0.8100 LYP
 Using SG-1 standard quadrature grid
 Dispersion:   Grimme D3
 SCF converges when DIIS error is below 1.0E-08
 -------------------------------------------------------
 OpenMP Integral computing Module                
 Release: version 1.0, May 2013, Q-Chem Inc. Pittsburgh 
 -------------------------------------------------------
 -------------------------------------------------------
 OpenMP BLAS3 based DFT computing Module                
 Release: version 1.0, May 2013, Q-Chem Inc. Pittsburgh 
 -------------------------------------------------------
 ---------------------------------------
  Cycle       Energy         DIIS Error
 ---------------------------------------
    1    -793.7951598601      1.10E-01
    2    -794.2843676763      1.34E-02
    3    -793.3333321269      3.22E-02
    4    -794.5216836078      4.73E-03
    5    -794.5484650511      1.51E-03
    6    -794.5513969032      2.61E-04
    7    -794.5514890854      3.74E-05
    8    -794.5514903283      2.22E-05
    9    -794.5514908913      7.66E-06
   10    -794.5514909686      1.53E-06
   11    -794.5514909718      3.16E-07
   12    -794.5514909719      9.25E-08
   13    -794.5514909719      1.78E-08
   14    -794.5514909720      6.56E-09 Convergence criterion met
 ---------------------------------------
 SCF time:  CPU 61.35 s  wall 2.59 s
 SCF   energy in the final basis set = -794.5514909720
 Total energy in the final basis set = -794.5514909720
 
 --------------------------------------------------------------
 
                    Orbital Energies (a.u.)
 --------------------------------------------------------------
 
 Alpha MOs
 -- Occupied --
-18.943 -18.932 -18.868 -18.867 -18.860 -10.109 -10.103 -10.074
-10.066 -10.062 -10.059 -10.033 -10.031 -10.012 -10.008 -10.003
 -1.043  -1.032  -0.988  -0.952  -0.944  -0.774  -0.743  -0.732
 -0.691  -0.670  -0.644  -0.600  -0.547  -0.535  -0.503  -0.481
 -0.469  -0.452  -0.439  -0.430  -0.426  -0.421  -0.414  -0.389
 -0.380  -0.373  -0.369  -0.361  -0.345  -0.338  -0.319  -0.311
 -0.307  -0.306  -0.290  -0.285  -0.273  -0.248  -0.240  -0.217
 -0.183  -0.173  -0.152  -0.141  -0.132
 -- Virtual --
  0.113   0.128   0.246   0.275   0.297   0.311   0.337   0.354
  0.375   0.382   0.400   0.402   0.409   0.414   0.433   0.434
  0.439   0.446   0.447   0.456   0.457   0.463   0.467   0.476
  0.483   0.487   0.501   0.503   0.508   0.531   0.544   0.578
  0.585   0.705   0.710
 --------------------------------------------------------------
 
          Ground-State Mulliken Net Atomic Charges

     Atom                 Charge (a.u.)
  ----------------------------------------
      1 C                    -0.083253
      2 C                    -0.085483
      3 C                     0.238543
      4 C                     0.240385
      5 O                    -0.189915
      6 O                    -0.229133
      7 O                    -0.193361
      8 O                    -0.227914
      9 C                    -0.126235
     10 C                    -0.125671
     11 C                     0.027112
     12 C                    -0.148912
     13 C                    -0.146349
     14 C                     0.112176
     15 O                    -0.212592
     16 H                     0.088932
     17 H                     0.086216
     18 H                     0.090756
     19 H                     0.094062
     20 H                     0.077409
     21 H                     0.072391
     22 H                     0.076456
     23 H                     0.069266
     24 H                     0.092224
     25 H                     0.097060
     26 H                     0.095371
     27 H                     0.092912
     28 H                     0.086999
     29 C                    -0.230002
     30 H                     0.079447
     31 H                     0.082736
     32 H                     0.098367
  ----------------------------------------
  Sum of atomic charges =     0.000000

 -----------------------------------------------------------------
                    Cartesian Multipole Moments
 -----------------------------------------------------------------
    Charge (ESU x 10^10)
                 0.0000
    Dipole Moment (Debye)
         X      -0.9000      Y       1.0167      Z       2.2398
       Tot       2.6192
    Quadrupole Moments (Debye-Ang)
        XX     -78.1689     XY      -0.4924     YY     -83.5528
        XZ       1.8518     YZ      -3.7325     ZZ     -89.8619
    Octopole Moments (Debye-Ang^2)
       XXX     -39.6060    XXY       2.0281    XYY     -24.2189
       YYY      -4.1508    XXZ      -2.1840    XYZ       5.6095
       YYZ       2.6959    XZZ      -4.9119    YZZ      -1.2831
       ZZZ      -3.9507
    Hexadecapole Moments (Debye-Ang^3)
      XXXX   -1973.1049   XXXY     -37.3837   XXYY    -550.3213
      XYYY      13.0527   YYYY   -1542.9943   XXXZ     -20.5358
      XXYZ     -15.3485   XYYZ       3.7340   YYYZ     -48.0150
      XXZZ    -415.8538   XYZZ      -7.7171   YYZZ    -326.9796
      XZZZ      -2.4473   YZZZ       1.8990   ZZZZ    -354.7750
 -----------------------------------------------------------------
 Calculating analytic gradient of the SCF energy
 Gradient of SCF Energy
            1           2           3           4           5           6
    1   0.0105824  -0.0047585  -0.0132229  -0.0145618  -0.0080439   0.0193486
    2  -0.0094286   0.0006148   0.0177705  -0.0098726  -0.0439694   0.0387808
    3  -0.0409748  -0.0271339  -0.0065933   0.0069328  -0.0438092   0.0463905
            7           8           9          10          11          12
    1   0.0251284  -0.0101926   0.0105892   0.0172321  -0.0122285  -0.0111337
    2  -0.0315334   0.0398761   0.0145324  -0.0014748  -0.0114503  -0.0268783
    3  -0.0462533   0.0454110   0.0056542   0.0108542   0.0065478  -0.0228126
           13          14          15          16          17          18
    1  -0.0225272  -0.0132804   0.0045446   0.0009547   0.0009502  -0.0038117
    2   0.0054772  -0.0016595  -0.0046165  -0.0044751  -0.0029562   0.0135603
    3  -0.0246370   0.0052221   0.0629161  -0.0049379  -0.0071049   0.0038572
           19          20          21          22          23          24
    1   0.0029927   0.0007724   0.0019036  -0.0026177  -0.0008809   0.0067039
    2   0.0017931  -0.0059840  -0.0021286   0.0055801   0.0031867  -0.0023497
    3   0.0137962   0.0006951  -0.0064503   0.0039902  -0.0052610  -0.0078703
           25          26          27          28          29          30
    1   0.0031110   0.0020007   0.0092035   0.0069460  -0.0095853  -0.0048298
    2   0.0045157  -0.0084361   0.0092190  -0.0070614   0.0139670  -0.0048305
    3   0.0126380  -0.0059197   0.0042661   0.0054435   0.0229604  -0.0035494
           31          32
    1   0.0008812   0.0078296
    2   0.0043954   0.0058359
    3  -0.0032957  -0.0009721
 Max gradient component =       6.292E-02
 RMS gradient           =       1.745E-02
 Gradient time:  CPU 16.52 s  wall 0.70 s
 Geometry Optimization Parameters
   NAtoms,    NIC,     NZ,  NCons,   NDum,   NFix, NCnnct, MaxDiis
       32     251       0       2       0       0       0       0


** CONSTRAINED OPTIMIZATION IN DELOCALIZED INTERNAL COORDINATES **
   Searching for a Minimum

   Optimization Cycle:   1

                       Coordinates (Angstroms)
     ATOM                X               Y               Z
      1  C        -0.1011848019    0.8054220658    0.6072204492
      2  C         0.6620154878   -0.5364971559    0.5955533906
      3  C        -1.4015644380    0.8875516009   -0.1690949129
      4  C        -0.1410572282   -1.7318799813    0.1194146361
      5  O        -2.1190916287    1.9620046977    0.2792423188
      6  O        -1.7586593461    0.1451011244   -1.0692679610
      7  O        -1.2361871469   -1.8724092621    0.9323420513
      8  O         0.1839039632   -2.5367797787   -0.7380435496
      9  C        -2.0705618232   -2.9788079980    0.5833882767
     10  C        -3.3601324547    2.1543130106   -0.4008725103
     11  C         0.8921947687    1.7507805700   -0.0666573788
     12  C         2.1006898551    1.9956119456    0.8359583888
     13  C         2.8581814059    0.6714609442    0.7228580976
     14  C         1.9353848860   -0.1568246325   -0.1989024928
     15  O         1.4677351984    0.8937269451   -1.0780214566
     16  H        -0.3158357451    1.0989107000    1.6422969653
     17  H         0.9675145382   -0.8059543627    1.6169564177
     18  H        -1.5277085504   -3.9211288805    0.7032368423
     19  H        -3.1925366947    2.3218430413   -1.4693196780
     20  H         2.7207990583    2.8058706669    0.4368664437
     21  H         1.8242280680    2.2474343817    1.8632024401
     22  H         3.8327460722    0.8578355890    0.2561866896
     23  H         3.0366664167    0.1979666648    1.6931015044
     24  H        -2.9267737949   -2.9833521908    1.2640838105
     25  H        -2.4439876414   -2.8714877839   -0.4398988433
     26  H        -3.8403685125    3.0440784321    0.0168317195
     27  H        -4.0212059080    1.2961810682   -0.2403095674
     28  H         0.4702491978    2.6594561976   -0.5026946926
     29  C         2.6945415386   -1.2278384490   -0.9542253256
     30  H         3.6222933193   -0.8229488311   -1.3739312116
     31  H         2.9531506788   -2.0694657777   -0.3064647586
     32  H         2.1281180017   -1.5881402477   -1.8179990175
   Point Group: c1    Number of degrees of freedom:    90


   Energy is   -794.551490972

              Constraints and their Current Values
                                        Value     Constraint
   Dihedral:        2   1   3   5      161.506      167.300
   Dihedral:        1   2   4   7      -58.727      -65.000

 Attempting to Generate Delocalized Internal Coordinates

   Using Lagrange Multiplier Algorithm


 92 Hessian modes will be used to form the next step
  Hessian Eigenvalues:
    -0.977753   -0.977753    0.045000    0.045000    0.045000    0.045000
     0.045000    0.045010    0.045298    0.045515    0.048619    0.059359
     0.061550    0.067521    0.068252    0.070602    0.073231    0.073438
     0.076637    0.079785    0.081436    0.082111    0.083599    0.083601
     0.084460    0.085259    0.090062    0.091363    0.091986    0.097105
     0.108323    0.112588    0.113785    0.113804    0.116926    0.116971
     0.122385    0.127205    0.139525    0.143598    0.160000    0.160000
     0.160000    0.160000    0.160000    0.160000    0.160000    0.160000
     0.160000    0.167195    0.181257    0.244222    0.248535    0.249951
     0.250000    0.250000    0.250000    0.250000    0.252783    0.262190
     0.267687    0.287879    0.290216    0.306804    0.306860    0.308963
     0.329030    0.337223    0.340066    0.340731    0.341491    0.341652
     0.341740    0.342327    0.342899    0.343079    0.343239    0.343448
     0.343570    0.343585    0.343737    0.344460    0.344599    0.345095
     0.411320    0.412508    0.507662    0.514426    0.952633    0.953292
     1.022753    1.022753

 Minimum Search - Taking P-RFO Step
 Searching for Lamda that Maximizes Along the Constraint modes Only
 Value Taken    Lamda =   0.01186937
 Searching for Lamda that Minimizes Along All other modes
 Value Taken    Lamda =  -0.07475442
 Calculated Step too Large.  Step scaled by  0.689136
 Step Taken.  Stepsize is  0.300000

                             Maximum     Tolerance    Cnvgd?
         Gradient            0.109482       0.000300      NO
         Displacement        0.089518       0.001200      NO
         Energy change     *********       0.000001      NO


 New Cartesian Coordinates Obtained by Inverse Iteration

 Displacement from previous Coordinates is:  0.803633
 Adding empirical dispersion correction 
 ----------------------------------------------------------------
 Doing -D3(op) with
 s6 =   1.00000
 s8 =   0.78311
 a1 =   0.30000
 a2 =   4.25000
 n  =  10.00000
 -D3 energy without 3body term =     -0.0351635620 hartrees
 ----------------------------------------------------------------
             Standard Nuclear Orientation (Angstroms)
    I     Atom           X                Y                Z
 ----------------------------------------------------------------
    1      C      -0.1009733658     0.8331547362     0.6599303064
    2      C       0.6716012775    -0.5309110292     0.6256844972
    3      C      -1.4317021521     0.8784823079    -0.1325710754
    4      C      -0.1657544741    -1.7297661815     0.1026139938
    5      O      -2.1483359124     2.0142863118     0.2636986213
    6      O      -1.7914512724     0.0954388786    -1.0281086648
    7      O      -1.2344417689    -1.9198407661     0.9927312895
    8      O       0.1204535632    -2.5205448611    -0.8109842732
    9      C      -2.0797156155    -3.0442589105     0.6152940333
   10      C      -3.3954124239     2.1734460825    -0.4721927737
   11      C       0.9252361258     1.7870938555    -0.0450359953
   12      C       2.1542076541     2.0308128316     0.8861480266
   13      C       2.9094422333     0.6740219943     0.7504965955
   14      C       1.9567226389    -0.1392685689    -0.2080792444
   15      O       1.4854773792     0.9316717835    -1.0961451232
   16      H      -0.3075309998     1.1487579976     1.6957889422
   17      H       1.0013130900    -0.8197492546     1.6395949776
   18      H      -1.5235813216    -3.9991919476     0.6480922543
   19      H      -3.2172170971     2.2751986420    -1.5585109321
   20      H       2.7752137607     2.8494335339     0.4953740460
   21      H       1.8745400586     2.2781946836     1.9201056468
   22      H       3.8870796249     0.8420499234     0.2769792980
   23      H       3.0847362407     0.1765293312     1.7153940522
   24      H      -2.9021937632    -3.0908679168     1.3482510505
   25      H      -2.5129521872    -2.9039388930    -0.3919558407
   26      H      -3.8717607304     3.0980492261    -0.1059688708
   27      H      -4.0828289713     1.3267336642    -0.2901603223
   28      H       0.4938036086     2.7008965918    -0.4845212845
   29      C       2.6858045533    -1.2316008941    -1.0074855688
   30      H       3.6167155334    -0.8289133562    -1.4326291757
   31      H       2.9367328347    -2.0897503659    -0.3709363898
   32      H       2.0803286187    -1.5736151160    -1.8578550106
 ----------------------------------------------------------------
 Molecular Point Group                 C1    NOp =  1
 Largest Abelian Subgroup              C1    NOp =  1
 Nuclear Repulsion Energy =  1229.5024683311 hartrees
 There are       61 alpha and       61 beta electrons
 Applying Cartesian multipole field
    Component          Value
    ---------          -----
     (2,0,0)        1.00000E-11
     (0,2,0)        2.00000E-11
     (0,0,2)       -3.00000E-11
 Nucleus-field energy     =     0.0000000350 hartrees
 Requested basis set is STO-3G
 There are 48 shells and 96 basis functions
 A cutoff of  1.0D-12 yielded   1025 shell pairs
 There are      4517 function pairs
 Smallest overlap matrix eigenvalue = 2.07E-01
 Guess MOs from SCF MO coefficient file
 Reading MOs from coefficient file
 Reading MOs from coefficient file
 A restricted hybrid HF-DFT SCF calculation will be
 performed using Pulay DIIS extrapolation
 Exchange:     0.2000 Hartree-Fock + 0.0800 Slater + 0.7200 B88
 Correlation:  0.1900 VWN1RPA + 0.8100 LYP
 Using SG-1 standard quadrature grid
 Dispersion:   Grimme D3
 SCF converges when DIIS error is below 1.0E-08
 Geometry optimization detected.  Setting ReadMinima to 0
 Setting SaveMinima to 0
 -------------------------------------------------------
 OpenMP Integral computing Module                
 Release: version 1.0, May 2013, Q-Chem Inc. Pittsburgh 
 -------------------------------------------------------
 -------------------------------------------------------
 OpenMP BLAS3 based DFT computing Module                
 Release: version 1.0, May 2013, Q-Chem Inc. Pittsburgh 
 -------------------------------------------------------
 ---------------------------------------
  Cycle       Energy         DIIS Error
 ---------------------------------------
    1    -794.4213516263      5.66E-03
    2    -794.5768474206      1.86E-03
    3    -794.5708026246      2.89E-03
    4    -794.5810278964      6.18E-04
    5    -794.5815474052      1.07E-04
    6    -794.5815636804      2.26E-05
    7    -794.5815639664      1.93E-05
    8    -794.5815644351      5.10E-06
    9    -794.5815644725      8.25E-07
   10    -794.5815644735      3.45E-07
   11    -794.5815644736      5.92E-08
   12    -794.5815644737      2.49E-08
   13    -794.5815644737      4.11E-09 Convergence criterion met
 ---------------------------------------
 SCF time:  CPU 56.29 s  wall 2.37 s
 SCF   energy in the final basis set = -794.5815644737
 Total energy in the final basis set = -794.5815644737
 
 --------------------------------------------------------------
 
                    Orbital Energies (a.u.)
 --------------------------------------------------------------
 
 Alpha MOs
 -- Occupied --
-18.941 -18.927 -18.874 -18.871 -18.861 -10.103 -10.096 -10.070
-10.061 -10.061 -10.058 -10.035 -10.031 -10.014 -10.010 -10.004
 -1.025  -1.013  -0.973  -0.942  -0.931  -0.764  -0.731  -0.722
 -0.680  -0.661  -0.638  -0.594  -0.542  -0.529  -0.496  -0.474
 -0.458  -0.443  -0.431  -0.420  -0.417  -0.411  -0.406  -0.382
 -0.379  -0.367  -0.364  -0.352  -0.343  -0.336  -0.312  -0.307
 -0.305  -0.302  -0.289  -0.280  -0.269  -0.251  -0.242  -0.223
 -0.181  -0.169  -0.153  -0.140  -0.136
 -- Virtual --
  0.103   0.119   0.240   0.259   0.281   0.297   0.320   0.339
  0.357   0.361   0.376   0.383   0.394   0.401   0.414   0.423
  0.427   0.430   0.435   0.440   0.441   0.444   0.448   0.452
  0.456   0.472   0.484   0.487   0.492   0.516   0.523   0.556
  0.563   0.666   0.673
 --------------------------------------------------------------
 
          Ground-State Mulliken Net Atomic Charges

     Atom                 Charge (a.u.)
  ----------------------------------------
      1 C                    -0.079304
      2 C                    -0.082068
      3 C                     0.222510
      4 C                     0.224735
      5 O                    -0.178917
      6 O                    -0.217340
      7 O                    -0.184446
      8 O                    -0.218928
      9 C                    -0.125123
     10 C                    -0.124908
     11 C                     0.025931
     12 C                    -0.146486
     13 C                    -0.145265
     14 C                     0.108446
     15 O                    -0.202018
     16 H                     0.087440
     17 H                     0.084452
     18 H                     0.087567
     19 H                     0.091598
     20 H                     0.076699
     21 H                     0.072336
     22 H                     0.075057
     23 H                     0.069088
     24 H                     0.088773
     25 H                     0.093417
     26 H                     0.092564
     27 H                     0.090263
     28 H                     0.083865
     29 C                    -0.227595
     30 H                     0.078463
     31 H                     0.080995
     32 H                     0.098199
  ----------------------------------------
  Sum of atomic charges =    -0.000000

 -----------------------------------------------------------------
                    Cartesian Multipole Moments
 -----------------------------------------------------------------
    Charge (ESU x 10^10)
                 0.0000
    Dipole Moment (Debye)
         X      -0.7522      Y       1.0321      Z       2.1537
       Tot       2.5039
    Quadrupole Moments (Debye-Ang)
        XX     -77.9259     XY      -0.6398     YY     -83.4677
        XZ       2.2310     YZ      -3.5148     ZZ     -89.6968
    Octopole Moments (Debye-Ang^2)
       XXX     -39.4112    XXY       1.8494    XYY     -23.0723
       YYY      -7.1467    XXZ      -3.4261    XYZ       6.6394
       YYZ       2.3196    XZZ      -4.9837    YZZ      -0.5535
       ZZZ      -5.3291
    Hexadecapole Moments (Debye-Ang^3)
      XXXX   -2011.7697   XXXY     -48.7768   XXYY    -562.6574
      XYYY       5.4123   YYYY   -1575.4529   XXXZ     -20.6747
      XXYZ     -17.4415   XYYZ       2.9835   YYYZ     -46.8251
      XXZZ    -425.0356   XYZZ     -11.2689   YYZZ    -339.2895
      XZZZ      -6.4110   YZZZ       1.6261   ZZZZ    -375.9846
 -----------------------------------------------------------------
 Calculating analytic gradient of the SCF energy
 Gradient of SCF Energy
            1           2           3           4           5           6
    1   0.0028572  -0.0023600  -0.0073184  -0.0136009  -0.0033128   0.0064376
    2  -0.0070416   0.0002052   0.0143258   0.0042258  -0.0203852   0.0126169
    3  -0.0174057  -0.0083921   0.0054987   0.0082796  -0.0196231   0.0108617
            7           8           9          10          11          12
    1   0.0127460   0.0006572   0.0054444   0.0097850  -0.0067507  -0.0044924
    2  -0.0145870   0.0080592   0.0081431   0.0001427  -0.0038784  -0.0075466
    3  -0.0225717   0.0151883   0.0042039   0.0069362   0.0034477  -0.0076433
           13          14          15          16          17          18
    1  -0.0068735  -0.0091311   0.0053196  -0.0001360   0.0032381  -0.0014645
    2   0.0015654  -0.0026832  -0.0023413  -0.0016337  -0.0023575   0.0033462
    3  -0.0112137   0.0016679   0.0230398  -0.0014686  -0.0028911   0.0024838
           19          20          21          22          23          24
    1   0.0005233   0.0010031   0.0017911  -0.0010409   0.0013747   0.0011430
    2   0.0019142  -0.0026299   0.0009162   0.0032047   0.0014166  -0.0015974
    3   0.0037564   0.0008021  -0.0019518   0.0027514  -0.0015813  -0.0030552
           25          26          27          28          29          30
    1  -0.0000142  -0.0006182   0.0018784   0.0036441  -0.0047195  -0.0019757
    2   0.0014909  -0.0025572   0.0031147  -0.0027355   0.0049525  -0.0021492
    3   0.0039311  -0.0024922   0.0019116   0.0008387   0.0120518  -0.0029446
           31          32
    1   0.0009272   0.0050389
    2   0.0015423   0.0029414
    3  -0.0014580  -0.0029583
 Max gradient component =       2.304E-02
 RMS gradient           =       7.257E-03
 Gradient time:  CPU 15.57 s  wall 0.65 s
 Geometry Optimization Parameters
   NAtoms,    NIC,     NZ,  NCons,   NDum,   NFix, NCnnct, MaxDiis
       32     251       0       2       0       0       0       0

 Cartesian Hessian Update
 Hessian Updated using BFGS Update


** CONSTRAINED OPTIMIZATION IN DELOCALIZED INTERNAL COORDINATES **
   Searching for a Minimum

   Optimization Cycle:   2

                       Coordinates (Angstroms)
     ATOM                X               Y               Z
      1  C        -0.1009733658    0.8331547362    0.6599303064
      2  C         0.6716012775   -0.5309110292    0.6256844972
      3  C        -1.4317021521    0.8784823079   -0.1325710754
      4  C        -0.1657544741   -1.7297661815    0.1026139938
      5  O        -2.1483359124    2.0142863118    0.2636986213
      6  O        -1.7914512724    0.0954388786   -1.0281086648
      7  O        -1.2344417689   -1.9198407661    0.9927312895
      8  O         0.1204535632   -2.5205448611   -0.8109842732
      9  C        -2.0797156155   -3.0442589105    0.6152940333
     10  C        -3.3954124239    2.1734460825   -0.4721927737
     11  C         0.9252361258    1.7870938555   -0.0450359953
     12  C         2.1542076541    2.0308128316    0.8861480266
     13  C         2.9094422333    0.6740219943    0.7504965955
     14  C         1.9567226389   -0.1392685689   -0.2080792444
     15  O         1.4854773792    0.9316717835   -1.0961451232
     16  H        -0.3075309998    1.1487579976    1.6957889422
     17  H         1.0013130900   -0.8197492546    1.6395949776
     18  H        -1.5235813216   -3.9991919476    0.6480922543
     19  H        -3.2172170971    2.2751986420   -1.5585109321
     20  H         2.7752137607    2.8494335339    0.4953740460
     21  H         1.8745400586    2.2781946836    1.9201056468
     22  H         3.8870796249    0.8420499234    0.2769792980
     23  H         3.0847362407    0.1765293312    1.7153940522
     24  H        -2.9021937632   -3.0908679168    1.3482510505
     25  H        -2.5129521872   -2.9039388930   -0.3919558407
     26  H        -3.8717607304    3.0980492261   -0.1059688708
     27  H        -4.0828289713    1.3267336642   -0.2901603223
     28  H         0.4938036086    2.7008965918   -0.4845212845
     29  C         2.6858045533   -1.2316008941   -1.0074855688
     30  H         3.6167155334   -0.8289133562   -1.4326291757
     31  H         2.9367328347   -2.0897503659   -0.3709363898
     32  H         2.0803286187   -1.5736151160   -1.8578550106
   Point Group: c1    Number of degrees of freedom:    90


   Energy is   -794.581564474

              Constraints and their Current Values
                                        Value     Constraint
   Dihedral:        2   1   3   5      165.337      167.300
   Dihedral:        1   2   4   7      -62.887      -65.000
 Hessian Updated using BFGS Update

   Using Lagrange Multiplier Algorithm


 80 Hessian modes will be used to form the next step
  Hessian Eigenvalues:
    -0.977969   -0.977497    0.044848    0.045001    0.045012    0.045169
     0.045510    0.048616    0.059338    0.061259    0.067497    0.068213
     0.070563    0.073236    0.073459    0.076463    0.079799    0.081336
     0.082152    0.083368    0.083602    0.084435    0.085303    0.090057
     0.091300    0.091959    0.097009    0.108066    0.112781    0.113724
     0.113796    0.116927    0.116971    0.122299    0.128383    0.139303
     0.143552    0.158773    0.161633    0.166462    0.181206    0.243340
     0.244228    0.248695    0.249952    0.250112    0.253248    0.262488
     0.268921    0.289193    0.295223    0.306704    0.308576    0.318913
     0.328914    0.337220    0.340077    0.340676    0.341485    0.341727
     0.342103    0.342659    0.342993    0.343219    0.343330    0.343532
     0.343582    0.343705    0.344433    0.344585    0.345024    0.374427
     0.411905    0.417288    0.497662    0.513094    0.952863    0.974443
     1.022638    1.023589

 Minimum Search - Taking P-RFO Step
 Searching for Lamda that Maximizes Along the Constraint modes Only
 Value Taken    Lamda =   0.00102628
 Searching for Lamda that Minimizes Along All other modes
 Value Taken    Lamda =  -0.01574580
 Calculated Step too Large.  Step scaled by  0.989376
 Step Taken.  Stepsize is  0.300000

                             Maximum     Tolerance    Cnvgd?
         Gradient            0.036878       0.000300      NO
         Displacement        0.106487       0.001200      NO
         Energy change     -0.030074       0.000001      NO


 New Cartesian Coordinates Obtained by Inverse Iteration

 Displacement from previous Coordinates is:  1.167250
 Adding empirical dispersion correction 
 ----------------------------------------------------------------
 Doing -D3(op) with
 s6 =   1.00000
 s8 =   0.78311
 a1 =   0.30000
 a2 =   4.25000
 n  =  10.00000
 -D3 energy without 3body term =     -0.0354714652 hartrees
 ----------------------------------------------------------------
             Standard Nuclear Orientation (Angstroms)
    I     Atom           X                Y                Z
 ----------------------------------------------------------------
    1      C      -0.0598251443     0.8753506848     0.7160097443
    2      C       0.7002625698    -0.5000622188     0.6646371381
    3      C      -1.4088299242     0.8397131321    -0.0714504938
    4      C      -0.1867848650    -1.6701412421     0.1031301158
    5      O      -2.1599408056     2.0006851071     0.2682765518
    6      O      -1.7668552494    -0.0177144993    -0.9113211372
    7      O      -1.2495606908    -1.8649091904     1.0397660333
    8      O       0.0201835404    -2.4179860268    -0.8773444391
    9      C      -2.1318701937    -2.9483874444     0.5696208904
   10      C      -3.4189662998     2.0218364716    -0.5020583372
   11      C       0.9699392842     1.8237758025    -0.0307389459
   12      C       2.2147216046     2.0545862640     0.9074069506
   13      C       2.9587285313     0.6750939745     0.7625388587
   14      C       1.9823380348    -0.1193774206    -0.2084029218
   15      O       1.4985024073     0.9599158749    -1.1065757117
   16      H      -0.2498873490     1.2169844685     1.7493406530
   17      H       1.0370675344    -0.7976318755     1.6745922960
   18      H      -1.5944859722    -3.9173541665     0.5053497344
   19      H      -3.2309370431     2.0329228292    -1.5956403252
   20      H       2.8331700439     2.8794142711     0.5182920180
   21      H       1.9300267284     2.2917203346     1.9452682820
   22      H       3.9385340352     0.8104229633     0.2766550424
   23      H       3.1189052027     0.1618101019     1.7244417114
   24      H      -2.9436616204    -3.0273638877     1.3168351267
   25      H      -2.5663265816    -2.7190646985    -0.4252136512
   26      H      -3.9406098894     2.9516081505    -0.2079123066
   27      H      -4.0598578553     1.1480366972    -0.2634008563
   28      H       0.5217038296     2.7380060701    -0.4677275339
   29      C       2.6594444746    -1.2446523518    -1.0307567627
   30      H       3.5931977046    -0.8643847134    -1.4743499310
   31      H       2.8945312967    -2.1053252743    -0.3869462331
   32      H       1.9906994011    -1.5754938736    -1.8392844746
 ----------------------------------------------------------------
 Molecular Point Group                 C1    NOp =  1
 Largest Abelian Subgroup              C1    NOp =  1
 Nuclear Repulsion Energy =  1229.1814313353 hartrees
 There are       61 alpha and       61 beta electrons
 Applying Cartesian multipole field
    Component          Value
    ---------          -----
     (2,0,0)        1.00000E-11
     (0,2,0)        2.00000E-11
     (0,0,2)       -3.00000E-11
 Nucleus-field energy     =     0.0000000339 hartrees
 Requested basis set is STO-3G
 There are 48 shells and 96 basis functions
 A cutoff of  1.0D-12 yielded   1024 shell pairs
 There are      4513 function pairs
 Smallest overlap matrix eigenvalue = 2.13E-01
 Guess MOs from SCF MO coefficient file
 Reading MOs from coefficient file
 Reading MOs from coefficient file
 A restricted hybrid HF-DFT SCF calculation will be
 performed using Pulay DIIS extrapolation
 Exchange:     0.2000 Hartree-Fock + 0.0800 Slater + 0.7200 B88
 Correlation:  0.1900 VWN1RPA + 0.8100 LYP
 Using SG-1 standard quadrature grid
 Dispersion:   Grimme D3
 SCF converges when DIIS error is below 1.0E-08
 Geometry optimization detected.  Setting ReadMinima to 0
 Setting SaveMinima to 0
 -------------------------------------------------------
 OpenMP Integral computing Module                
 Release: version 1.0, May 2013, Q-Chem Inc. Pittsburgh 
 -------------------------------------------------------
 -------------------------------------------------------
 OpenMP BLAS3 based DFT computing Module                
 Release: version 1.0, May 2013, Q-Chem Inc. Pittsburgh 
 -------------------------------------------------------
 ---------------------------------------
  Cycle       Energy         DIIS Error
 ---------------------------------------
    1    -794.4776049875      5.80E-03
    2    -794.5868136753      1.29E-03
    3    -794.5825724457      2.28E-03
    4    -794.5889482017      4.52E-04
    5    -794.5892184399      1.16E-04
    6    -794.5892368319      2.55E-05
    7    -794.5892372441      2.08E-05
    8    -794.5892377889      5.48E-06
    9    -794.5892378314      7.91E-07
   10    -794.5892378322      3.37E-07
   11    -794.5892378323      5.94E-08
   12    -794.5892378324      2.19E-08
   13    -794.5892378324      3.81E-09 Convergence criterion met
 ---------------------------------------
 SCF time:  CPU 58.31 s  wall 2.46 s
 SCF   energy in the final basis set = -794.5892378324
 Total energy in the final basis set = -794.5892378324
 
 --------------------------------------------------------------
 
                    Orbital Energies (a.u.)
 --------------------------------------------------------------
 
 Alpha MOs
 -- Occupied --
-18.942 -18.919 -18.880 -18.878 -18.859 -10.102 -10.090 -10.068
-10.058 -10.058 -10.054 -10.036 -10.029 -10.017 -10.012 -10.005
 -1.018  -0.999  -0.965  -0.941  -0.923  -0.761  -0.726  -0.717
 -0.673  -0.654  -0.635  -0.590  -0.541  -0.525  -0.492  -0.470
 -0.453  -0.439  -0.429  -0.416  -0.414  -0.403  -0.401  -0.380
 -0.377  -0.367  -0.357  -0.350  -0.339  -0.334  -0.311  -0.307
 -0.306  -0.296  -0.289  -0.275  -0.267  -0.255  -0.244  -0.227
 -0.183  -0.164  -0.156  -0.139  -0.138
 -- Virtual --
  0.095   0.119   0.239   0.252   0.276   0.289   0.309   0.328
  0.345   0.347   0.359   0.373   0.387   0.394   0.405   0.418
  0.423   0.424   0.427   0.430   0.433   0.436   0.440   0.442
  0.450   0.464   0.476   0.480   0.490   0.505   0.515   0.548
  0.554   0.646   0.660
 --------------------------------------------------------------
 
          Ground-State Mulliken Net Atomic Charges

     Atom                 Charge (a.u.)
  ----------------------------------------
      1 C                    -0.078361
      2 C                    -0.082289
      3 C                     0.217008
      4 C                     0.217090
      5 O                    -0.169193
      6 O                    -0.208898
      7 O                    -0.180413
      8 O                    -0.216497
      9 C                    -0.127397
     10 C                    -0.127237
     11 C                     0.025111
     12 C                    -0.144713
     13 C                    -0.144560
     14 C                     0.105329
     15 O                    -0.196084
     16 H                     0.087087
     17 H                     0.082832
     18 H                     0.085486
     19 H                     0.091103
     20 H                     0.076801
     21 H                     0.072688
     22 H                     0.074349
     23 H                     0.069965
     24 H                     0.085164
     25 H                     0.091950
     26 H                     0.091089
     27 H                     0.089741
     28 H                     0.082440
     29 C                    -0.227366
     30 H                     0.078048
     31 H                     0.079572
     32 H                     0.100154
  ----------------------------------------
  Sum of atomic charges =    -0.000000

 -----------------------------------------------------------------
                    Cartesian Multipole Moments
 -----------------------------------------------------------------
    Charge (ESU x 10^10)
                -0.0000
    Dipole Moment (Debye)
         X      -0.6275      Y       1.1359      Z       2.0048
       Tot       2.3882
    Quadrupole Moments (Debye-Ang)
        XX     -77.8502     XY      -0.7985     YY     -84.3280
        XZ       2.7368     YZ      -3.0336     ZZ     -89.5371
    Octopole Moments (Debye-Ang^2)
       XXX     -40.2899    XXY       0.5349    XYY     -19.1136
       YYY      -9.8316    XXZ      -5.1877    XYZ       6.6734
       YYZ       0.8806    XZZ      -5.6718    YZZ      -0.1244
       ZZZ      -7.8635
    Hexadecapole Moments (Debye-Ang^3)
      XXXX   -2046.5561   XXXY     -70.4731   XXYY    -565.9231
      XYYY     -18.7315   YYYY   -1512.3713   XXXZ     -21.1674
      XXYZ     -21.3775   XYYZ       1.8355   YYYZ     -50.6852
      XXZZ    -430.8170   XYZZ     -20.0310   YYZZ    -331.6551
      XZZZ      -7.3754   YZZZ      -9.3931   ZZZZ    -382.7099
 -----------------------------------------------------------------
 Calculating analytic gradient of the SCF energy
 Gradient of SCF Energy
            1           2           3           4           5           6
    1   0.0017331  -0.0039769  -0.0040946  -0.0068622  -0.0000778   0.0013983
    2  -0.0033253   0.0019750   0.0013601   0.0039868  -0.0006159  -0.0008905
    3  -0.0035169   0.0008224   0.0016377   0.0045719  -0.0012642  -0.0008337
            7           8           9          10          11          12
    1   0.0027394   0.0013958   0.0029966   0.0044384  -0.0014711  -0.0026676
    2  -0.0002070  -0.0024926   0.0024304  -0.0019010   0.0001709  -0.0006282
    3  -0.0042468  -0.0003042  -0.0003965   0.0017399   0.0031452   0.0000473
           13          14          15          16          17          18
    1  -0.0011201  -0.0034392   0.0028647   0.0004016   0.0029366   0.0001694
    2  -0.0012967  -0.0018860   0.0006584   0.0000656   0.0001270  -0.0002147
    3  -0.0010606  -0.0000485   0.0012191   0.0005007  -0.0005826   0.0003280
           19          20          21          22          23          24
    1   0.0000154   0.0003181   0.0008496   0.0002312   0.0014573  -0.0001221
    2   0.0001892  -0.0001468   0.0011262   0.0005459  -0.0000041   0.0002390
    3  -0.0003363  -0.0003540   0.0001368   0.0001319   0.0001541   0.0002261
           25          26          27          28          29          30
    1  -0.0003967   0.0000858  -0.0003161   0.0002935  -0.0013870   0.0001743
    2  -0.0002875   0.0002434  -0.0000132  -0.0003856  -0.0006684   0.0003663
    3  -0.0000167   0.0002003   0.0001645  -0.0019188   0.0024249  -0.0005554
           31          32
    1   0.0000432   0.0013891
    2  -0.0000875   0.0015666
    3  -0.0001221  -0.0018936
 Max gradient component =       6.862E-03
 RMS gradient           =       1.819E-03
 Gradient time:  CPU 15.92 s  wall 0.67 s
 Geometry Optimization Parameters
   NAtoms,    NIC,     NZ,  NCons,   NDum,   NFix, NCnnct, MaxDiis
       32     251       0       2       0       0       0       0

 Cartesian Hessian Update
 Hessian Updated using BFGS Update


** CONSTRAINED OPTIMIZATION IN DELOCALIZED INTERNAL COORDINATES **
   Searching for a Minimum

   Optimization Cycle:   3

                       Coordinates (Angstroms)
     ATOM                X               Y               Z
      1  C        -0.0598251443    0.8753506848    0.7160097443
      2  C         0.7002625698   -0.5000622188    0.6646371381
      3  C        -1.4088299242    0.8397131321   -0.0714504938
      4  C        -0.1867848650   -1.6701412421    0.1031301158
      5  O        -2.1599408056    2.0006851071    0.2682765518
      6  O        -1.7668552494   -0.0177144993   -0.9113211372
      7  O        -1.2495606908   -1.8649091904    1.0397660333
      8  O         0.0201835404   -2.4179860268   -0.8773444391
      9  C        -2.1318701937   -2.9483874444    0.5696208904
     10  C        -3.4189662998    2.0218364716   -0.5020583372
     11  C         0.9699392842    1.8237758025   -0.0307389459
     12  C         2.2147216046    2.0545862640    0.9074069506
     13  C         2.9587285313    0.6750939745    0.7625388587
     14  C         1.9823380348   -0.1193774206   -0.2084029218
     15  O         1.4985024073    0.9599158749   -1.1065757117
     16  H        -0.2498873490    1.2169844685    1.7493406530
     17  H         1.0370675344   -0.7976318755    1.6745922960
     18  H        -1.5944859722   -3.9173541665    0.5053497344
     19  H        -3.2309370431    2.0329228292   -1.5956403252
     20  H         2.8331700439    2.8794142711    0.5182920180
     21  H         1.9300267284    2.2917203346    1.9452682820
     22  H         3.9385340352    0.8104229633    0.2766550424
     23  H         3.1189052027    0.1618101019    1.7244417114
     24  H        -2.9436616204   -3.0273638877    1.3168351267
     25  H        -2.5663265816   -2.7190646985   -0.4252136512
     26  H        -3.9406098894    2.9516081505   -0.2079123066
     27  H        -4.0598578553    1.1480366972   -0.2634008563
     28  H         0.5217038296    2.7380060701   -0.4677275339
     29  C         2.6594444746   -1.2446523518   -1.0307567627
     30  H         3.5931977046   -0.8643847134   -1.4743499310
     31  H         2.8945312967   -2.1053252743   -0.3869462331
     32  H         1.9906994011   -1.5754938736   -1.8392844746
   Point Group: c1    Number of degrees of freedom:    90


   Energy is   -794.589237832

              Constraints and their Current Values
                                        Value     Constraint
   Dihedral:        2   1   3   5      167.264      167.300
   Dihedral:        1   2   4   7      -64.957      -65.000
 Hessian Updated using BFGS Update

   Using Lagrange Multiplier Algorithm


 83 Hessian modes will be used to form the next step
  Hessian Eigenvalues:
    -0.977698   -0.975688    0.043653    0.045000    0.045004    0.045112
     0.045324    0.045547    0.048616    0.059466    0.060811    0.066947
     0.068310    0.070921    0.073105    0.073518    0.075876    0.079498
     0.080899    0.082104    0.083110    0.083755    0.084454    0.085902
     0.090135    0.091258    0.092166    0.096782    0.107648    0.113169
     0.113668    0.113796    0.116927    0.116974    0.123954    0.128612
     0.140378    0.143486    0.159032    0.160369    0.161651    0.176484
     0.180883    0.244208    0.245611    0.248781    0.249981    0.250101
     0.251783    0.262244    0.266830    0.274630    0.290195    0.295904
     0.306370    0.308785    0.317456    0.328423    0.336759    0.339454
     0.340415    0.340869    0.341609    0.341792    0.342504    0.342969
     0.343205    0.343318    0.343525    0.343582    0.343699    0.344425
     0.344598    0.345179    0.374001    0.396879    0.412204    0.479007
     0.513764    0.952629    0.980179    1.022868    1.034785

 Minimum Search - Taking P-RFO Step
 Searching for Lamda that Maximizes Along the Constraint modes Only
 Value Taken    Lamda =   0.00004630
 Searching for Lamda that Minimizes Along All other modes
 Value Taken    Lamda =  -0.00141429
 Step Taken.  Stepsize is  0.125614

                             Maximum     Tolerance    Cnvgd?
         Gradient            0.009466       0.000300      NO
         Displacement        0.053810       0.001200      NO
         Energy change     -0.007673       0.000001      NO


 New Cartesian Coordinates Obtained by Inverse Iteration

 Displacement from previous Coordinates is:  0.236602
 Adding empirical dispersion correction 
 ----------------------------------------------------------------
 Doing -D3(op) with
 s6 =   1.00000
 s8 =   0.78311
 a1 =   0.30000
 a2 =   4.25000
 n  =  10.00000
 -D3 energy without 3body term =     -0.0354438766 hartrees
 ----------------------------------------------------------------
             Standard Nuclear Orientation (Angstroms)
    I     Atom           X                Y                Z
 ----------------------------------------------------------------
    1      C      -0.0558608362     0.8813279014     0.7226126936
    2      C       0.7120008536    -0.5018090960     0.6704325846
    3      C      -1.4081686635     0.8496931549    -0.0677805318
    4      C      -0.1653333606    -1.6855334673     0.1056622806
    5      O      -2.1691407641     2.0126388895     0.2689780609
    6      O      -1.7781565261    -0.0108539812    -0.8995831420
    7      O      -1.2369501574    -1.8927305880     1.0451724335
    8      O       0.0348368984    -2.4142953929    -0.8897071790
    9      C      -2.1355589808    -2.9624787730     0.5564520136
   10      C      -3.4381876228     2.0357240705    -0.5001638426
   11      C       0.9747138739     1.8257290462    -0.0359356079
   12      C       2.2249622526     2.0632052984     0.8974617291
   13      C       2.9704600414     0.6863641214     0.7572386381
   14      C       1.9932241181    -0.1165121612    -0.2074345947
   15      O       1.4907088221     0.9527487105    -1.1135608848
   16      H      -0.2460797344     1.2253270407     1.7544992395
   17      H       1.0359997083    -0.7958569742     1.6849503014
   18      H      -1.6074550480    -3.9340545730     0.4644102304
   19      H      -3.2527742943     2.0448678222    -1.5938402290
   20      H       2.8382092261     2.8918421366     0.5085580237
   21      H       1.9348437583     2.2952311934     1.9348519664
   22      H       3.9504702652     0.8149997948     0.2702411831
   23      H       3.1226522031     0.1761852404     1.7215363284
   24      H      -2.9452851859    -3.0516186486     1.3044494343
   25      H      -2.5679359208    -2.7037097660    -0.4320046456
   26      H      -3.9606984071     2.9642574442    -0.2045887013
   27      H      -4.0749721278     1.1593237452    -0.2609787974
   28      H       0.5193015303     2.7404286218    -0.4641960107
   29      C       2.6635263933    -1.2564757097    -1.0187582571
   30      H       3.5934294922    -0.8901466435    -1.4799480219
   31      H       2.9025292198    -2.1018527366    -0.3560870650
   32      H       1.9742457133    -1.6099314066    -1.7999025449
 ----------------------------------------------------------------
 Molecular Point Group                 C1    NOp =  1
 Largest Abelian Subgroup              C1    NOp =  1
 Nuclear Repulsion Energy =  1225.6857083226 hartrees
 There are       61 alpha and       61 beta electrons
 Applying Cartesian multipole field
    Component          Value
    ---------          -----
     (2,0,0)        1.00000E-11
     (0,2,0)        2.00000E-11
     (0,0,2)       -3.00000E-11
 Nucleus-field energy     =     0.0000000343 hartrees
 Requested basis set is STO-3G
 There are 48 shells and 96 basis functions
 A cutoff of  1.0D-12 yielded   1022 shell pairs
 There are      4508 function pairs
 Smallest overlap matrix eigenvalue = 2.14E-01
 Guess MOs from SCF MO coefficient file
 Reading MOs from coefficient file
 Reading MOs from coefficient file
 A restricted hybrid HF-DFT SCF calculation will be
 performed using Pulay DIIS extrapolation
 Exchange:     0.2000 Hartree-Fock + 0.0800 Slater + 0.7200 B88
 Correlation:  0.1900 VWN1RPA + 0.8100 LYP
 Using SG-1 standard quadrature grid
 Dispersion:   Grimme D3
 SCF converges when DIIS error is below 1.0E-08
 Geometry optimization detected.  Setting ReadMinima to 0
 Setting SaveMinima to 0
 -------------------------------------------------------
 OpenMP Integral computing Module                
 Release: version 1.0, May 2013, Q-Chem Inc. Pittsburgh 
 -------------------------------------------------------
 -------------------------------------------------------
 OpenMP BLAS3 based DFT computing Module                
 Release: version 1.0, May 2013, Q-Chem Inc. Pittsburgh 
 -------------------------------------------------------
 ---------------------------------------
  Cycle       Energy         DIIS Error
 ---------------------------------------
    1    -794.5725617091      1.37E-03
    2    -794.5897793627      3.67E-04
    3    -794.5892116695      7.60E-04
    4    -794.5899596139      6.88E-05
    5    -794.5899659645      2.10E-05
    6    -794.5899664441      9.70E-06
    7    -794.5899665330      5.16E-06
    8    -794.5899665685      1.06E-06
    9    -794.5899665702      1.39E-07
   10    -794.5899665703      7.32E-08
   11    -794.5899665702      1.23E-08
   12    -794.5899665702      4.93E-09 Convergence criterion met
 ---------------------------------------
 SCF time:  CPU 51.04 s  wall 2.15 s
 SCF   energy in the final basis set = -794.5899665702
 Total energy in the final basis set = -794.5899665702
 
 --------------------------------------------------------------
 
                    Orbital Energies (a.u.)
 --------------------------------------------------------------
 
 Alpha MOs
 -- Occupied --
-18.938 -18.917 -18.879 -18.878 -18.863 -10.101 -10.090 -10.066
-10.059 -10.058 -10.054 -10.037 -10.030 -10.017 -10.013 -10.004
 -1.014  -0.996  -0.964  -0.937  -0.923  -0.759  -0.725  -0.717
 -0.672  -0.653  -0.634  -0.591  -0.540  -0.524  -0.491  -0.469
 -0.452  -0.439  -0.429  -0.414  -0.413  -0.402  -0.400  -0.380
 -0.377  -0.367  -0.356  -0.349  -0.339  -0.334  -0.311  -0.307
 -0.306  -0.296  -0.289  -0.275  -0.267  -0.254  -0.244  -0.227
 -0.180  -0.164  -0.155  -0.140  -0.139
 -- Virtual --
  0.096   0.117   0.235   0.249   0.271   0.287   0.307   0.326
  0.342   0.344   0.355   0.373   0.384   0.392   0.403   0.418
  0.422   0.423   0.427   0.430   0.432   0.435   0.439   0.441
  0.450   0.463   0.474   0.479   0.492   0.503   0.513   0.546
  0.553   0.644   0.658
 --------------------------------------------------------------
 
          Ground-State Mulliken Net Atomic Charges

     Atom                 Charge (a.u.)
  ----------------------------------------
      1 C                    -0.077688
      2 C                    -0.081558
      3 C                     0.214484
      4 C                     0.215556
      5 O                    -0.169495
      6 O                    -0.209332
      7 O                    -0.178628
      8 O                    -0.214046
      9 C                    -0.128819
     10 C                    -0.128316
     11 C                     0.024718
     12 C                    -0.144651
     13 C                    -0.144768
     14 C                     0.104785
     15 O                    -0.194539
     16 H                     0.087090
     17 H                     0.082568
     18 H                     0.085374
     19 H                     0.090902
     20 H                     0.077098
     21 H                     0.072960
     22 H                     0.074830
     23 H                     0.070588
     24 H                     0.085592
     25 H                     0.091921
     26 H                     0.091221
     27 H                     0.089605
     28 H                     0.082456
     29 C                    -0.228520
     30 H                     0.078221
     31 H                     0.078911
     32 H                     0.101477
  ----------------------------------------
  Sum of atomic charges =     0.000000

 -----------------------------------------------------------------
                    Cartesian Multipole Moments
 -----------------------------------------------------------------
    Charge (ESU x 10^10)
                -0.0000
    Dipole Moment (Debye)
         X      -0.5692      Y       1.0999      Z       2.0037
       Tot       2.3556
    Quadrupole Moments (Debye-Ang)
        XX     -77.8033     XY      -0.7139     YY     -84.1794
        XZ       2.7950     YZ      -2.9409     ZZ     -89.5843
    Octopole Moments (Debye-Ang^2)
       XXX     -41.1601    XXY       0.7233    XYY     -19.4733
       YYY     -10.3444    XXZ      -5.2467    XYZ       6.6105
       YYZ       0.5667    XZZ      -5.9993    YZZ       0.0495
       ZZZ      -7.6733
    Hexadecapole Moments (Debye-Ang^3)
      XXXX   -2056.5349   XXXY     -69.0194   XXYY    -569.3065
      XYYY     -15.5623   YYYY   -1524.8975   XXXZ     -22.0902
      XXYZ     -22.0479   XYYZ       1.7552   YYYZ     -50.2136
      XXZZ    -432.6604   XYZZ     -19.2938   YYZZ    -334.2834
      XZZZ      -7.8503   YZZZ      -9.7692   ZZZZ    -381.2922
 -----------------------------------------------------------------
 Calculating analytic gradient of the SCF energy
 Gradient of SCF Energy
            1           2           3           4           5           6
    1   0.0004662   0.0000653   0.0009399   0.0001944   0.0002991  -0.0004414
    2  -0.0002794   0.0000325   0.0011674   0.0008834  -0.0005433  -0.0006840
    3   0.0011249   0.0012200   0.0015045   0.0007053  -0.0002914  -0.0012379
            7           8           9          10          11          12
    1  -0.0007578   0.0012521  -0.0008446  -0.0012593  -0.0006845  -0.0005855
    2   0.0005255  -0.0018513  -0.0004119   0.0010317   0.0013403  -0.0000856
    3  -0.0002716  -0.0006879   0.0006774   0.0000114   0.0014403   0.0008966
           13          14          15          16          17          18
    1   0.0000483  -0.0010002   0.0008099  -0.0000004   0.0013010   0.0000026
    2  -0.0000466  -0.0012852   0.0003315   0.0001151   0.0000600  -0.0001242
    3   0.0003405  -0.0000923  -0.0019588  -0.0001022  -0.0007302  -0.0001322
           19          20          21          22          23          24
    1  -0.0001417   0.0002330   0.0003208   0.0000458   0.0005615  -0.0003104
    2  -0.0001736  -0.0000932   0.0004754   0.0002527   0.0000739  -0.0001410
    3  -0.0001440  -0.0003570   0.0000877  -0.0002150   0.0000288   0.0000540
           25          26          27          28          29          30
    1   0.0001301  -0.0004490  -0.0001519  -0.0001941  -0.0001324   0.0003952
    2  -0.0001506   0.0001090  -0.0000941  -0.0001773  -0.0010127   0.0000604
    3  -0.0001817  -0.0002120  -0.0001700  -0.0007328   0.0001496   0.0003856
           31          32
    1  -0.0005722   0.0004600
    2  -0.0002388   0.0009340
    3  -0.0001806  -0.0009290
 Max gradient component =       1.959E-03
 RMS gradient           =       6.691E-04
 Gradient time:  CPU 16.51 s  wall 0.69 s
 Geometry Optimization Parameters
   NAtoms,    NIC,     NZ,  NCons,   NDum,   NFix, NCnnct, MaxDiis
       32     251       0       2       0       0       0       0

 Cartesian Hessian Update
 Hessian Updated using BFGS Update


** CONSTRAINED OPTIMIZATION IN DELOCALIZED INTERNAL COORDINATES **
   Searching for a Minimum

   Optimization Cycle:   4

                       Coordinates (Angstroms)
     ATOM                X               Y               Z
      1  C        -0.0558608362    0.8813279014    0.7226126936
      2  C         0.7120008536   -0.5018090960    0.6704325846
      3  C        -1.4081686635    0.8496931549   -0.0677805318
      4  C        -0.1653333606   -1.6855334673    0.1056622806
      5  O        -2.1691407641    2.0126388895    0.2689780609
      6  O        -1.7781565261   -0.0108539812   -0.8995831420
      7  O        -1.2369501574   -1.8927305880    1.0451724335
      8  O         0.0348368984   -2.4142953929   -0.8897071790
      9  C        -2.1355589808   -2.9624787730    0.5564520136
     10  C        -3.4381876228    2.0357240705   -0.5001638426
     11  C         0.9747138739    1.8257290462   -0.0359356079
     12  C         2.2249622526    2.0632052984    0.8974617291
     13  C         2.9704600414    0.6863641214    0.7572386381
     14  C         1.9932241181   -0.1165121612   -0.2074345947
     15  O         1.4907088221    0.9527487105   -1.1135608848
     16  H        -0.2460797344    1.2253270407    1.7544992395
     17  H         1.0359997083   -0.7958569742    1.6849503014
     18  H        -1.6074550480   -3.9340545730    0.4644102304
     19  H        -3.2527742943    2.0448678222   -1.5938402290
     20  H         2.8382092261    2.8918421366    0.5085580237
     21  H         1.9348437583    2.2952311934    1.9348519664
     22  H         3.9504702652    0.8149997948    0.2702411831
     23  H         3.1226522031    0.1761852404    1.7215363284
     24  H        -2.9452851859   -3.0516186486    1.3044494343
     25  H        -2.5679359208   -2.7037097660   -0.4320046456
     26  H        -3.9606984071    2.9642574442   -0.2045887013
     27  H        -4.0749721278    1.1593237452   -0.2609787974
     28  H         0.5193015303    2.7404286218   -0.4641960107
     29  C         2.6635263933   -1.2564757097   -1.0187582571
     30  H         3.5934294922   -0.8901466435   -1.4799480219
     31  H         2.9025292198   -2.1018527366   -0.3560870650
     32  H         1.9742457133   -1.6099314066   -1.7999025449
   Point Group: c1    Number of degrees of freedom:    90


   Energy is   -794.589966570

              Constraints and their Current Values
                                        Value     Constraint
   Dihedral:        2   1   3   5      167.300      167.300
   Dihedral:        1   2   4   7      -65.000      -65.000
 Hessian Updated using BFGS Update

   Using Lagrange Multiplier Algorithm


 86 Hessian modes will be used to form the next step
  Hessian Eigenvalues:
    -0.977705   -0.975912    0.030144    0.045000    0.045002    0.045063
     0.045109    0.045538    0.045739    0.048586    0.058309    0.059585
     0.066101    0.068314    0.070906    0.072442    0.073405    0.074778
     0.079737    0.080876    0.082090    0.083010    0.083756    0.084470
     0.086081    0.090154    0.091235    0.092167    0.096825    0.107461
     0.113573    0.113795    0.114565    0.116927    0.116979    0.123878
     0.128727    0.140993    0.143867    0.159079    0.160169    0.160608
     0.161644    0.176872    0.181875    0.243756    0.244795    0.248848
     0.250000    0.250019    0.250163    0.251843    0.262328    0.267310
     0.285896    0.292668    0.302607    0.306894    0.310149    0.320745
     0.328666    0.337650    0.340266    0.340740    0.341524    0.341751
     0.342463    0.342956    0.343184    0.343317    0.343505    0.343581
     0.343694    0.344360    0.344525    0.344957    0.349737    0.379164
     0.412126    0.447696    0.513646    0.525146    0.952537    0.977008
     1.022979    1.035876

 Minimum Search - Taking P-RFO Step
 Searching for Lamda that Maximizes Along the Constraint modes Only
 Value Taken    Lamda =   0.00000028
 Searching for Lamda that Minimizes Along All other modes
 Value Taken    Lamda =  -0.00034916
 Step Taken.  Stepsize is  0.092254

                             Maximum     Tolerance    Cnvgd?
         Gradient            0.003150       0.000300      NO
         Displacement        0.034879       0.001200      NO
         Energy change     -0.000729       0.000001      NO


 New Cartesian Coordinates Obtained by Inverse Iteration

 Displacement from previous Coordinates is:  0.232149
 Adding empirical dispersion correction 
 ----------------------------------------------------------------
 Doing -D3(op) with
 s6 =   1.00000
 s8 =   0.78311
 a1 =   0.30000
 a2 =   4.25000
 n  =  10.00000
 -D3 energy without 3body term =     -0.0355206775 hartrees
 ----------------------------------------------------------------
             Standard Nuclear Orientation (Angstroms)
    I     Atom           X                Y                Z
 ----------------------------------------------------------------
    1      C      -0.0521811861     0.8787780554     0.7253067232
    2      C       0.7193205340    -0.5027905470     0.6716629251
    3      C      -1.4053655582     0.8401903970    -0.0620988379
    4      C      -0.1614545883    -1.6833207020     0.1055875266
    5      O      -2.1683985577     2.0020098575     0.2769518192
    6      O      -1.7786095697    -0.0249198267    -0.8869372332
    7      O      -1.2320179352    -1.8886620808     1.0486840594
    8      O       0.0196014044    -2.3966927271    -0.9032816459
    9      C      -2.1459776548    -2.9369349186     0.5413817574
   10      C      -3.4366681857     2.0129487955    -0.4931422374
   11      C       0.9754480112     1.8223819123    -0.0402585893
   12      C       2.2274740571     2.0677445523     0.8892108959
   13      C       2.9763621859     0.6937896171     0.7528979964
   14      C       2.0001894379    -0.1148079858    -0.2067150668
   15      O       1.4859634596     0.9458234337    -1.1161233368
   16      H      -0.2422819069     1.2232380192     1.7570811181
   17      H       1.0349483380    -0.7962514918     1.6895025837
   18      H      -1.6309763691    -3.9130494264     0.4265621082
   19      H      -3.2502523811     2.0220279619    -1.5865677816
   20      H       2.8356466732     2.9002819412     0.5015084714
   21      H       1.9330859493     2.2964226870     1.9260236871
   22      H       3.9570435160     0.8196676605     0.2672317332
   23      H       3.1238259816     0.1859433433     1.7189639804
   24      H      -2.9521435451    -3.0304660661     1.2921562159
   25      H      -2.5799018446    -2.6505197573    -0.4387574187
   26      H      -3.9636019739     2.9385579234    -0.1975508347
   27      H      -4.0662882058     1.1321264075    -0.2515118403
   28      H       0.5155258163     2.7367493175    -0.4636685598
   29      C       2.6702059081    -1.2607136045    -1.0094731954
   30      H       3.5926523400    -0.8986773092    -1.4876114496
   31      H       2.9219211068    -2.0920718296    -0.3335844282
   32      H       1.9704614826    -1.6367692953    -1.7703940599
 ----------------------------------------------------------------
 Molecular Point Group                 C1    NOp =  1
 Largest Abelian Subgroup              C1    NOp =  1
 Nuclear Repulsion Energy =  1227.0467614335 hartrees
 There are       61 alpha and       61 beta electrons
 Applying Cartesian multipole field
    Component          Value
    ---------          -----
     (2,0,0)        1.00000E-11
     (0,2,0)        2.00000E-11
     (0,0,2)       -3.00000E-11
 Nucleus-field energy     =     0.0000000341 hartrees
 Requested basis set is STO-3G
 There are 48 shells and 96 basis functions
 A cutoff of  1.0D-12 yielded   1022 shell pairs
 There are      4508 function pairs
 Smallest overlap matrix eigenvalue = 2.13E-01
 Guess MOs from SCF MO coefficient file
 Reading MOs from coefficient file
 Reading MOs from coefficient file
 A restricted hybrid HF-DFT SCF calculation will be
 performed using Pulay DIIS extrapolation
 Exchange:     0.2000 Hartree-Fock + 0.0800 Slater + 0.7200 B88
 Correlation:  0.1900 VWN1RPA + 0.8100 LYP
 Using SG-1 standard quadrature grid
 Dispersion:   Grimme D3
 SCF converges when DIIS error is below 1.0E-08
 Geometry optimization detected.  Setting ReadMinima to 0
 Setting SaveMinima to 0
 -------------------------------------------------------
 OpenMP Integral computing Module                
 Release: version 1.0, May 2013, Q-Chem Inc. Pittsburgh 
 -------------------------------------------------------
 -------------------------------------------------------
 OpenMP BLAS3 based DFT computing Module                
 Release: version 1.0, May 2013, Q-Chem Inc. Pittsburgh 
 -------------------------------------------------------
 ---------------------------------------
  Cycle       Energy         DIIS Error
 ---------------------------------------
    1    -794.5895417195      1.03E-03
    2    -794.5901652530      9.48E-05
    3    -794.5901435179      1.75E-04
    4    -794.5901823765      3.42E-05
    5    -794.5901837878      1.14E-05
    6    -794.5901839615      3.70E-06
    7    -794.5901839780      1.56E-06
    8    -794.5901839808      6.11E-07
    9    -794.5901839813      7.58E-08
   10    -794.5901839814      3.53E-08
   11    -794.5901839813      8.44E-09 Convergence criterion met
 ---------------------------------------
 SCF time:  CPU 48.82 s  wall 2.06 s
 SCF   energy in the final basis set = -794.5901839813
 Total energy in the final basis set = -794.5901839813
 
 --------------------------------------------------------------
 
                    Orbital Energies (a.u.)
 --------------------------------------------------------------
 
 Alpha MOs
 -- Occupied --
-18.938 -18.917 -18.879 -18.879 -18.864 -10.101 -10.090 -10.066
-10.059 -10.058 -10.053 -10.036 -10.030 -10.018 -10.013 -10.004
 -1.014  -0.996  -0.964  -0.938  -0.923  -0.760  -0.725  -0.717
 -0.671  -0.652  -0.634  -0.591  -0.540  -0.524  -0.491  -0.469
 -0.452  -0.439  -0.429  -0.414  -0.413  -0.402  -0.400  -0.381
 -0.376  -0.367  -0.356  -0.349  -0.338  -0.334  -0.311  -0.307
 -0.306  -0.296  -0.289  -0.275  -0.267  -0.254  -0.244  -0.228
 -0.181  -0.164  -0.155  -0.140  -0.139
 -- Virtual --
  0.096   0.117   0.236   0.249   0.272   0.288   0.307   0.326
  0.341   0.344   0.354   0.373   0.384   0.392   0.403   0.419
  0.422   0.423   0.427   0.429   0.432   0.435   0.439   0.441
  0.451   0.463   0.474   0.479   0.493   0.502   0.513   0.545
  0.554   0.644   0.659
 --------------------------------------------------------------
 
          Ground-State Mulliken Net Atomic Charges

     Atom                 Charge (a.u.)
  ----------------------------------------
      1 C                    -0.077851
      2 C                    -0.081606
      3 C                     0.214669
      4 C                     0.215845
      5 O                    -0.169156
      6 O                    -0.209280
      7 O                    -0.178648
      8 O                    -0.213888
      9 C                    -0.129191
     10 C                    -0.128562
     11 C                     0.024882
     12 C                    -0.144686
     13 C                    -0.144921
     14 C                     0.104965
     15 O                    -0.194421
     16 H                     0.087000
     17 H                     0.082133
     18 H                     0.085408
     19 H                     0.090919
     20 H                     0.077269
     21 H                     0.073050
     22 H                     0.075149
     23 H                     0.070915
     24 H                     0.085303
     25 H                     0.092136
     26 H                     0.091071
     27 H                     0.089662
     28 H                     0.082342
     29 C                    -0.229364
     30 H                     0.078443
     31 H                     0.078421
     32 H                     0.101992
  ----------------------------------------
  Sum of atomic charges =     0.000000

 -----------------------------------------------------------------
                    Cartesian Multipole Moments
 -----------------------------------------------------------------
    Charge (ESU x 10^10)
                -0.0000
    Dipole Moment (Debye)
         X      -0.5470      Y       1.1093      Z       2.0000
       Tot       2.3516
    Quadrupole Moments (Debye-Ang)
        XX     -77.7953     XY      -0.7163     YY     -84.2638
        XZ       2.7958     YZ      -2.8902     ZZ     -89.6585
    Octopole Moments (Debye-Ang^2)
       XXX     -41.0587    XXY       0.6225    XYY     -18.9325
       YYY     -10.1794    XXZ      -5.2723    XYZ       6.5035
       YYZ       0.3554    XZZ      -6.0784    YZZ       0.2505
       ZZZ      -7.5955
    Hexadecapole Moments (Debye-Ang^3)
      XXXX   -2061.7324   XXXY     -70.3704   XXYY    -569.1077
      XYYY     -18.1602   YYYY   -1511.4420   XXXZ     -22.2590
      XXYZ     -22.4895   XYYZ       1.6389   YYYZ     -50.9303
      XXZZ    -433.0863   XYZZ     -20.2538   YYZZ    -332.0343
      XZZZ      -7.3731   YZZZ     -12.0170   ZZZZ    -379.4882
 -----------------------------------------------------------------
 Calculating analytic gradient of the SCF energy
 Gradient of SCF Energy
            1           2           3           4           5           6
    1  -0.0004517   0.0001611   0.0005837   0.0016460   0.0001266  -0.0002389
    2   0.0003143   0.0002771  -0.0000732  -0.0014456   0.0007864  -0.0010506
    3   0.0021601  -0.0005293  -0.0002818   0.0001072   0.0009085  -0.0004674
            7           8           9          10          11          12
    1  -0.0016906  -0.0000617  -0.0006440  -0.0009480   0.0001780   0.0003796
    2   0.0015460  -0.0003808  -0.0005429   0.0000674   0.0005415   0.0002343
    3   0.0005969   0.0000189  -0.0000416  -0.0005719   0.0003529   0.0004668
           13          14          15          16          17          18
    1   0.0005190   0.0001258  -0.0003565  -0.0002052   0.0004891   0.0000320
    2   0.0004358  -0.0001000  -0.0001760   0.0000400   0.0001354  -0.0001560
    3   0.0001499  -0.0000868  -0.0014881  -0.0000291  -0.0000894  -0.0000759
           19          20          21          22          23          24
    1   0.0000057   0.0000936  -0.0000374  -0.0001237   0.0000710   0.0000337
    2  -0.0001454  -0.0000988   0.0000986   0.0000881   0.0000240   0.0000705
    3  -0.0001338  -0.0001317  -0.0000187  -0.0001588  -0.0000299  -0.0000027
           25          26          27          28          29          30
    1   0.0000660   0.0001453  -0.0000270  -0.0002003   0.0003748   0.0004771
    2  -0.0000075  -0.0000012  -0.0001667  -0.0000937  -0.0001204  -0.0002136
    3  -0.0001983   0.0000567  -0.0000209   0.0000749  -0.0007056   0.0007742
           31          32
    1  -0.0008717   0.0003488
    2  -0.0003672   0.0004801
    3  -0.0002153  -0.0003898
 Max gradient component =       2.160E-03
 RMS gradient           =       5.447E-04
 Gradient time:  CPU 16.09 s  wall 0.68 s
 Geometry Optimization Parameters
   NAtoms,    NIC,     NZ,  NCons,   NDum,   NFix, NCnnct, MaxDiis
       32     251       0       2       0       0       0       0

 Cartesian Hessian Update
 Hessian Updated using BFGS Update


** CONSTRAINED OPTIMIZATION IN DELOCALIZED INTERNAL COORDINATES **
   Searching for a Minimum

   Optimization Cycle:   5

                       Coordinates (Angstroms)
[...]
 TransDip   0.136  0.216  0.160   -0.141  0.407  0.416   -0.128  0.039  0.039

 Mode:                76                     77                     78
 Frequency:      3048.68                3049.66                3055.16
 Force Cnst:      5.6371                 5.6420                 5.8695
 Red. Mass:       1.0294                 1.0296                 1.0673
 IR Active:          YES                    YES                    YES
 IR Intens:       33.587                 37.466                 14.103
 Raman Active:       YES                    YES                    YES
               X      Y      Z        X      Y      Z        X      Y      Z
 C          0.000 -0.000 -0.001   -0.000  0.000  0.001   -0.001  0.002  0.007
 C          0.001 -0.001  0.004   -0.000  0.000 -0.000   -0.012  0.011 -0.045
 C         -0.000  0.000  0.000    0.001 -0.002 -0.001    0.000 -0.000  0.000
 C          0.002 -0.000 -0.002    0.000 -0.000 -0.000    0.000 -0.000 -0.002
 O          0.000 -0.000  0.000   -0.002  0.001 -0.001   -0.000  0.000 -0.000
 O         -0.000 -0.000 -0.000    0.000  0.001  0.001   -0.000 -0.000 -0.000
 O         -0.002 -0.001  0.000   -0.000 -0.000  0.000   -0.000 -0.000  0.000
 O         -0.000  0.001  0.001   -0.000  0.000  0.000   -0.000  0.000  0.000
 C         -0.023 -0.032 -0.019   -0.003 -0.004 -0.002   -0.001 -0.002 -0.001
 C          0.004  0.000  0.004   -0.034 -0.002 -0.028    0.000  0.000  0.000
 C          0.000 -0.000  0.000   -0.000  0.000 -0.000   -0.001  0.002 -0.001
 C          0.000  0.000  0.000   -0.000 -0.000 -0.000   -0.008 -0.026 -0.020
 C         -0.002  0.001 -0.001   -0.000  0.000 -0.000    0.032 -0.017  0.023
 C          0.000  0.000 -0.000    0.000  0.000  0.000   -0.000 -0.000 -0.000
 O         -0.000 -0.000  0.000   -0.000  0.000  0.000    0.000  0.000  0.000
 H         -0.001  0.002  0.007    0.002 -0.003 -0.009    0.015 -0.028 -0.084
 H         -0.014  0.012 -0.052    0.001 -0.001  0.005    0.149 -0.129  0.546
 H         -0.249  0.578 -0.014   -0.032  0.074 -0.002   -0.013  0.031 -0.001
 H          0.017  0.017 -0.076   -0.135 -0.134  0.593    0.002  0.002 -0.007
 H         -0.002 -0.002  0.001    0.004  0.005 -0.002    0.200  0.236 -0.118
 H          0.001 -0.001 -0.004   -0.002  0.001  0.005   -0.109  0.073  0.348
 H          0.015  0.002 -0.008    0.005  0.001 -0.003   -0.337 -0.037  0.171
 H          0.002 -0.011  0.020    0.000 -0.002  0.004   -0.037  0.236 -0.439
 H          0.322 -0.047 -0.312    0.041 -0.006 -0.040    0.017 -0.003 -0.017
 H          0.217 -0.135  0.558    0.028 -0.017  0.072    0.012 -0.007  0.030
 H         -0.023  0.045  0.026    0.180 -0.347 -0.202   -0.002  0.004  0.002
 H         -0.048 -0.065  0.005    0.376  0.507 -0.040   -0.004 -0.006  0.000
 H         -0.001  0.002 -0.001    0.001 -0.002  0.001    0.009 -0.024  0.010
 C          0.001 -0.001 -0.000    0.001 -0.001 -0.000    0.003 -0.002 -0.001
 H         -0.017 -0.008  0.009   -0.009 -0.004  0.005   -0.037 -0.017  0.020
 H         -0.005  0.016 -0.013   -0.003  0.009 -0.007   -0.010  0.033 -0.026
 H          0.007  0.003  0.007    0.004  0.002  0.004    0.013  0.008  0.015
 TransDip  -0.117 -0.144  0.015   -0.181  0.044 -0.061    0.068 -0.092 -0.036

 Mode:                79                     80                     81
 Frequency:      3059.99                3067.29                3093.70
 Force Cnst:      5.9139                 5.8885                 6.2445
 Red. Mass:       1.0720                 1.0623                 1.1074
 IR Active:          YES                    YES                    YES
 IR Intens:       21.385                 37.887                  0.595
 Raman Active:       YES                    YES                    YES
               X      Y      Z        X      Y      Z        X      Y      Z
 C         -0.001  0.001  0.004   -0.001  0.002  0.007   -0.002  0.003  0.009
 C         -0.015  0.014 -0.057   -0.006  0.006 -0.023    0.002 -0.002  0.007
 C          0.000 -0.000  0.000    0.000  0.000  0.000   -0.000  0.000  0.000
 C          0.000 -0.000 -0.002    0.000  0.000 -0.001   -0.000  0.000  0.000
 O         -0.000  0.000 -0.000   -0.000  0.000 -0.000    0.000 -0.000 -0.000
 O         -0.000 -0.000 -0.000   -0.000 -0.000 -0.000    0.000 -0.000 -0.000
 O         -0.000 -0.000  0.000   -0.000 -0.000  0.000   -0.000 -0.000 -0.000
 O         -0.000  0.000  0.000   -0.000  0.000  0.000    0.000 -0.000 -0.000
 C         -0.001 -0.001 -0.001   -0.000 -0.000  0.000    0.000  0.000 -0.000
 C          0.000 -0.000  0.000    0.000  0.000  0.000    0.000 -0.000 -0.000
 C          0.001 -0.003  0.001   -0.001  0.004 -0.002    0.003 -0.006  0.002
 C          0.011  0.035  0.024   -0.008 -0.031 -0.023    0.038  0.024 -0.053
 C         -0.014  0.002 -0.001   -0.044  0.018 -0.020   -0.032 -0.020  0.049
 C         -0.001 -0.000 -0.000   -0.000  0.001  0.000   -0.001 -0.000  0.000
 O          0.000 -0.000  0.000    0.000 -0.000  0.000   -0.000  0.000  0.000
 H          0.009 -0.014 -0.046    0.014 -0.026 -0.080    0.018 -0.036 -0.105
 H          0.186 -0.161  0.684    0.075 -0.066  0.279   -0.021  0.020 -0.083
 H         -0.009  0.022 -0.001   -0.000  0.001 -0.000    0.001 -0.001  0.000
 H          0.000  0.001 -0.002    0.002  0.002 -0.008   -0.000 -0.000  0.000
 H         -0.266 -0.316  0.158    0.225  0.268 -0.135   -0.326 -0.395  0.176
 H          0.138 -0.092 -0.439   -0.128  0.087  0.406   -0.131  0.107  0.450
 H          0.156  0.015 -0.074    0.470  0.049 -0.234    0.424  0.038 -0.195
 H          0.005 -0.041  0.082    0.038 -0.251  0.466   -0.046  0.207 -0.385
 H          0.012 -0.002 -0.011    0.000 -0.000 -0.000   -0.001  0.000  0.001
 H          0.008 -0.004  0.020   -0.000  0.000 -0.000   -0.000 -0.000 -0.000
 H         -0.001  0.001  0.001   -0.002  0.004  0.002   -0.000  0.000  0.000
 H         -0.001 -0.002  0.000   -0.004 -0.006  0.000   -0.000 -0.000  0.000
 H         -0.011  0.031 -0.012    0.020 -0.052  0.023   -0.029  0.068 -0.033
 C         -0.003  0.003  0.001   -0.004  0.003  0.001    0.005  0.011 -0.009
 H          0.047  0.021 -0.026    0.049  0.022 -0.027   -0.090 -0.040  0.045
 H          0.014 -0.041  0.031    0.014 -0.044  0.033    0.035 -0.095  0.074
 H         -0.019 -0.010 -0.020   -0.020 -0.012 -0.024   -0.004 -0.000 -0.010
 TransDip  -0.021  0.146  0.012   -0.158 -0.006 -0.118    0.023  0.009 -0.000

 Mode:                82                     83                     84
 Frequency:      3102.49                3110.11                3116.37
 Force Cnst:      6.2494                 6.2476                 6.2715
 Red. Mass:       1.1020                 1.0963                 1.0960
 IR Active:          YES                    YES                    YES
 IR Intens:       12.473                 17.687                 37.580
 Raman Active:       YES                    YES                    YES
               X      Y      Z        X      Y      Z        X      Y      Z
 C         -0.001  0.002  0.007    0.010 -0.019 -0.055    0.010 -0.019 -0.054
 C          0.001 -0.000  0.000   -0.001  0.001 -0.002   -0.003  0.003 -0.009
 C         -0.000  0.000  0.000    0.001 -0.001 -0.001    0.001 -0.001 -0.001
 C          0.000 -0.000 -0.000    0.000  0.000 -0.000    0.000  0.000 -0.000
 O         -0.000 -0.000 -0.000   -0.000  0.000  0.000   -0.000  0.000  0.000
 O          0.000 -0.000 -0.000    0.000  0.000  0.000    0.000  0.000  0.000
 O         -0.000 -0.000  0.000   -0.000 -0.000  0.000   -0.000 -0.000  0.000
 O         -0.000  0.000  0.000   -0.000 -0.000 -0.000   -0.000  0.000  0.000
 C         -0.000  0.000  0.000   -0.000  0.000  0.000    0.000 -0.000  0.000
 C          0.000  0.000 -0.000   -0.000  0.000  0.000   -0.001 -0.001  0.001
 C          0.001 -0.002  0.001   -0.004  0.008 -0.004    0.001 -0.001 -0.001
 C          0.013  0.008 -0.018   -0.019 -0.013  0.024    0.026  0.014 -0.039
 C          0.003  0.002 -0.004   -0.030 -0.018  0.043    0.023  0.015 -0.036
 C         -0.001 -0.001  0.001   -0.001 -0.001  0.001    0.000  0.001 -0.001
 O         -0.000  0.000 -0.000   -0.000  0.000 -0.000   -0.000  0.000  0.001
 H          0.016 -0.029 -0.088   -0.118  0.217  0.647   -0.120  0.215  0.644
 H         -0.002  0.002 -0.010    0.010 -0.008  0.028    0.030 -0.030  0.113
 H          0.001 -0.003 -0.000    0.001 -0.002  0.000   -0.002  0.004  0.000
 H         -0.000 -0.000  0.001   -0.000 -0.001  0.003    0.002  0.001 -0.005
 H         -0.110 -0.134  0.060    0.168  0.207 -0.092   -0.211 -0.258  0.115
 H         -0.044  0.036  0.150    0.058 -0.049 -0.193   -0.105  0.086  0.356
 H         -0.035 -0.002  0.018    0.396  0.034 -0.183   -0.312 -0.026  0.144
 H          0.004 -0.017  0.028   -0.041  0.181 -0.333    0.034 -0.154  0.283
 H          0.001 -0.000 -0.001    0.001 -0.000 -0.001    0.001 -0.000 -0.001
 H          0.000 -0.000  0.000   -0.000  0.000 -0.000   -0.001  0.001 -0.003
 H         -0.000  0.000  0.000    0.001 -0.003 -0.002    0.001 -0.003 -0.002
 H         -0.001 -0.002  0.000    0.002  0.003 -0.000    0.008  0.011 -0.001
 H         -0.013  0.030 -0.014    0.043 -0.100  0.048   -0.003  0.009 -0.004
 C         -0.028 -0.063  0.056   -0.005 -0.012  0.012    0.003  0.006 -0.006
 H          0.541  0.236 -0.275    0.113  0.048 -0.058   -0.054 -0.023  0.028
 H         -0.196  0.534 -0.413   -0.038  0.103 -0.080    0.018 -0.048  0.037
 H         -0.009 -0.016  0.012   -0.008 -0.007 -0.006    0.004  0.003  0.004
 TransDip  -0.047 -0.073  0.073   -0.091 -0.082  0.057    0.102  0.023 -0.166

 Mode:                85                     86                     87
 Frequency:      3122.31                3123.63                3128.45
 Force Cnst:      6.3587                 6.3654                 6.2860
 Red. Mass:       1.1070                 1.1073                 1.0901
 IR Active:          YES                    YES                    YES
 IR Intens:       19.094                 15.362                 23.581
 Raman Active:       YES                    YES                    YES
               X      Y      Z        X      Y      Z        X      Y      Z
 C          0.000 -0.000 -0.001   -0.000  0.000  0.000    0.001 -0.002 -0.007
 C         -0.000  0.000 -0.000    0.000 -0.000  0.000   -0.000  0.001 -0.002
 C         -0.000 -0.000  0.000    0.000  0.000  0.000    0.000 -0.001  0.000
 C          0.000  0.000 -0.000   -0.000 -0.000 -0.000    0.000  0.000  0.000
 O         -0.000 -0.000  0.000   -0.000 -0.000 -0.000   -0.000  0.000 -0.000
 O         -0.000 -0.000  0.000   -0.000 -0.000 -0.000   -0.000  0.000 -0.000
 O         -0.000 -0.000  0.000   -0.000  0.000 -0.000   -0.000 -0.000  0.000
 O         -0.000 -0.000  0.000    0.000  0.000 -0.000   -0.000 -0.000 -0.000
 C         -0.003  0.004 -0.003    0.045 -0.066  0.051    0.000 -0.000  0.000
 C          0.046  0.059 -0.058    0.003  0.003 -0.004   -0.001 -0.001  0.001
 C          0.001 -0.001  0.001   -0.000  0.000 -0.000    0.030 -0.071  0.036
 C          0.000  0.000 -0.000   -0.000 -0.000  0.000   -0.008 -0.008  0.005
 C          0.000  0.000 -0.000   -0.000 -0.000  0.000   -0.003  0.000  0.001
 C         -0.000  0.000 -0.000    0.000 -0.000  0.000   -0.001  0.001 -0.000
 O          0.000 -0.000  0.000   -0.000  0.000 -0.000    0.000 -0.000 -0.000
 H         -0.002  0.004  0.011    0.000 -0.001 -0.003   -0.015  0.024  0.077
 H          0.001 -0.001  0.003   -0.000  0.001 -0.001    0.005 -0.004  0.017
 H          0.017 -0.039  0.000   -0.281  0.648 -0.001   -0.000  0.000  0.000
 H         -0.147 -0.133  0.675   -0.009 -0.008  0.040    0.002  0.002 -0.010
 H         -0.001 -0.001  0.001    0.000  0.001 -0.000    0.084  0.099 -0.043
 H         -0.001  0.001  0.004    0.000 -0.000 -0.001    0.007 -0.006 -0.017
 H         -0.003 -0.000  0.001    0.002  0.000 -0.001    0.032  0.003 -0.015
 H          0.001 -0.002  0.004   -0.000  0.001 -0.003   -0.000  0.000  0.000
 H          0.003  0.000 -0.004   -0.020 -0.009  0.038    0.001 -0.000 -0.001
 H          0.013 -0.008  0.036   -0.236  0.140 -0.642   -0.001  0.001 -0.003
 H          0.016 -0.002 -0.019    0.000  0.001 -0.000    0.001 -0.002 -0.001
 H         -0.412 -0.567  0.028   -0.024 -0.032  0.002    0.008  0.011 -0.001
 H         -0.006  0.014 -0.007    0.001 -0.001  0.001   -0.343  0.824 -0.410
 C          0.000  0.000 -0.000   -0.000 -0.000  0.000   -0.000 -0.000  0.000
 H         -0.002 -0.001  0.001    0.002  0.001 -0.001    0.003  0.001 -0.002
 H          0.001 -0.002  0.001   -0.001  0.002 -0.002   -0.000  0.001 -0.001
 H          0.000  0.000 -0.000   -0.000 -0.000  0.000   -0.002 -0.001 -0.002
 TransDip   0.064  0.090 -0.086    0.055 -0.096  0.060    0.034 -0.147  0.037

 Mode:                88                     89                     90
 Frequency:      3152.61                3157.05                3164.35
 Force Cnst:      6.4788                 6.4968                 6.4729
 Red. Mass:       1.1064                 1.1063                 1.0972
 IR Active:          YES                    YES                    YES
 IR Intens:       14.474                 14.496                  2.806
 Raman Active:       YES                    YES                    YES
               X      Y      Z        X      Y      Z        X      Y      Z
 C         -0.000  0.000  0.000    0.000  0.000 -0.000    0.000 -0.000 -0.000
 C          0.000 -0.000 -0.000   -0.000  0.000 -0.000    0.000 -0.000 -0.000
 C         -0.000  0.000  0.000   -0.001 -0.000 -0.001    0.000 -0.000 -0.000
 C          0.000  0.001  0.001   -0.000  0.000 -0.000    0.000 -0.000 -0.000
 O          0.000 -0.000 -0.000   -0.000  0.000  0.000   -0.000  0.000 -0.000
 O          0.000 -0.000 -0.000    0.000  0.000  0.000    0.000  0.000  0.000
 O          0.000 -0.000 -0.000    0.000 -0.000  0.000   -0.000  0.000  0.000
 O         -0.000 -0.000 -0.000    0.000 -0.000  0.000   -0.001 -0.000  0.000
 C         -0.052  0.023  0.076    0.000  0.000 -0.000    0.000 -0.000 -0.000
 C         -0.000 -0.000 -0.000    0.022 -0.072 -0.057    0.000 -0.000 -0.000
 C         -0.000  0.000 -0.000    0.000 -0.000  0.000    0.000 -0.000  0.000
 C          0.000  0.000  0.000   -0.000 -0.000 -0.000   -0.000  0.000 -0.000
 C          0.000 -0.000  0.000   -0.000  0.000 -0.000   -0.001  0.000  0.001
 C          0.000  0.000  0.000   -0.000  0.000  0.000   -0.001  0.000 -0.001
 O          0.000 -0.000 -0.000    0.000  0.000  0.000    0.000 -0.000  0.000
 H          0.000 -0.001 -0.002    0.000  0.000  0.002   -0.000  0.000  0.001
 H         -0.000 -0.000 -0.001    0.000 -0.000  0.000    0.000 -0.001  0.003
 H          0.109 -0.265  0.022    0.000 -0.001 -0.000   -0.001  0.001 -0.000
 H          0.000  0.000 -0.001   -0.069 -0.081  0.296   -0.000 -0.000  0.000
 H         -0.000 -0.000  0.000    0.000  0.000 -0.000    0.001  0.000 -0.000
 H          0.000 -0.000 -0.001   -0.000  0.000  0.001    0.000  0.000  0.001
 H         -0.000 -0.000  0.000    0.000  0.000 -0.000    0.011  0.002 -0.004
 H          0.000  0.000 -0.000    0.000 -0.000  0.000   -0.001  0.002 -0.005
 H          0.634 -0.092 -0.618   -0.002  0.000  0.002   -0.003  0.000  0.003
 H         -0.131  0.083 -0.304    0.001 -0.000  0.002    0.001 -0.000  0.001
 H         -0.001  0.002  0.001   -0.367  0.707  0.413   -0.001  0.001  0.001
 H          0.002  0.003 -0.000    0.182  0.230 -0.031    0.000  0.000 -0.000
 H          0.001 -0.002  0.001   -0.000  0.001 -0.000   -0.001  0.001 -0.001
 C         -0.000 -0.000 -0.000    0.000  0.000  0.000   -0.067 -0.022 -0.056
 H         -0.000 -0.000  0.000   -0.000 -0.000  0.000    0.180  0.085 -0.106
 H          0.001 -0.002  0.001   -0.000  0.000 -0.000    0.044 -0.164  0.116
 H          0.003  0.002  0.003   -0.001 -0.001 -0.001    0.589  0.336  0.662
 TransDip  -0.083  0.015  0.088    0.047 -0.096 -0.059   -0.033 -0.008 -0.041

 STANDARD THERMODYNAMIC QUANTITIES AT   298.15 K  AND     1.00 ATM

   This Molecule has  0 Imaginary Frequencies
   Zero point vibrational energy:      166.296 kcal/mol

   Atom    1 Element C  Has Mass   12.00000
   Atom    2 Element C  Has Mass   12.00000
   Atom    3 Element C  Has Mass   12.00000
   Atom    4 Element C  Has Mass   12.00000
   Atom    5 Element O  Has Mass   15.99491
   Atom    6 Element O  Has Mass   15.99491
   Atom    7 Element O  Has Mass   15.99491
   Atom    8 Element O  Has Mass   15.99491
   Atom    9 Element C  Has Mass   12.00000
   Atom   10 Element C  Has Mass   12.00000
   Atom   11 Element C  Has Mass   12.00000
   Atom   12 Element C  Has Mass   12.00000
   Atom   13 Element C  Has Mass   12.00000
   Atom   14 Element C  Has Mass   12.00000
   Atom   15 Element O  Has Mass   15.99491
   Atom   16 Element H  Has Mass    1.00783
   Atom   17 Element H  Has Mass    1.00783
   Atom   18 Element H  Has Mass    1.00783
   Atom   19 Element H  Has Mass    1.00783
   Atom   20 Element H  Has Mass    1.00783
   Atom   21 Element H  Has Mass    1.00783
   Atom   22 Element H  Has Mass    1.00783
   Atom   23 Element H  Has Mass    1.00783
   Atom   24 Element H  Has Mass    1.00783
   Atom   25 Element H  Has Mass    1.00783
   Atom   26 Element H  Has Mass    1.00783
   Atom   27 Element H  Has Mass    1.00783
   Atom   28 Element H  Has Mass    1.00783
   Atom   29 Element C  Has Mass   12.00000
   Atom   30 Element H  Has Mass    1.00783
   Atom   31 Element H  Has Mass    1.00783
   Atom   32 Element H  Has Mass    1.00783
   Molecular Mass:   228.099830 amu
   Principal axes and moments of inertia in amu*Bohr^2:
                             1           2           3
    Eigenvalues --     2653.10593  3418.81971  5127.79804
          X               0.99998    -0.00309     0.00563
          Y               0.00308     0.99999     0.00238
          Z              -0.00564    -0.00237     0.99998
   Rotational Symmetry Number is   1
   The Molecule is an Asymmetric Top
   Translational Enthalpy:        0.889 kcal/mol
   Rotational Enthalpy:           0.889 kcal/mol
   Vibrational Enthalpy:        174.467 kcal/mol
   gas constant (RT):             0.592 kcal/mol
   Translational Entropy:        42.176  cal/mol.K
   Rotational Entropy:           32.208  cal/mol.K
   Vibrational Entropy:          53.831  cal/mol.K

   Total Enthalpy:              176.837 kcal/mol
   Total Entropy:               128.216  cal/mol.K
Archival summary:
1\1\nid00664\FREQ\ProcedureUnspecified\BasisUnspecified\51116\junteng\WedOct421:06:122017WedOct421:06:122017\0\\#,FREQ,ProcedureUnspecified,BasisUnspecified,\\0,1\O\C,1,1.42434\H,2,1.08822,1,110.143\C,1,1.44691,2,98.23,3,179.883,0\C,4,1.51229,1,110.482,2,-177.32,0\H,5,1.08671,4,111.302,1,-58.038,0\H,5,1.09266,4,108.991,1,63.0049,0\H,5,1.09302,4,110.355,1,-177.977,0\C,2,1.54392,1,103.657,3,-124.367,0\H,9,1.091,2,110.255,1,85.3882,0\H,9,1.09183,2,112.479,1,-153.917,0\C,9,1.55413,2,100.77,1,-32.4828,0\H,12,1.09104,9,111.207,2,114.929,0\H,12,1.09179,9,113.524,2,-123.016,0\C,2,1.56016,1,102.267,3,121.969,0\H,15,1.08897,2,111.428,1,157.458,0\C,15,1.51331,2,108.664,1,-83.5396,0\O,17,1.2049,15,126.7,2,88.0899,0\O,17,1.35327,15,109.933,2,-88.947,0\C,19,1.44024,17,115.81,15,176.58,0\H,20,1.08777,19,105.468,17,179.844,0\H,20,1.09104,19,110.497,17,-60.4883,0\H,20,1.09106,19,110.377,17,60.345,0\C,15,1.56461,2,100.322,1,38.1678,0\H,24,1.09359,15,107.994,2,110.388,0\C,24,1.52158,15,114.395,2,-134.258,0\O,26,1.20196,24,128.081,15,126.117,0\O,26,1.35635,24,108.544,15,-57.9913,0\C,28,1.439,26,115.704,24,175.061,0\H,29,1.08806,28,105.478,26,-178.849,0\H,29,1.09102,28,110.7,26,61.5064,0\H,29,1.09102,28,109.776,26,-59.5167,0\\\@

 Total job time:  10427.39s(wall), 60360.02s(cpu) 
 Wed Oct  4 21:06:13 2017

        *************************************************************
        *                                                           *
        *  Thank you very much for using Q-Chem.  Have a nice day.  *
        *                                                           *
        *************************************************************


