                  Welcome to Q-Chem
     A Quantum Leap Into The Future Of Chemistry


 Q-Chem 4.4, Q-Chem, Inc., Pleasanton, CA (2016)

 Y. Shao,  Z. Gan,  E. Epifanovsky,  A. T. B. Gilbert,  M. Wormit,  
 J. Kussmann,  A. W. Lange,  A. Behn,  J. Deng,  X. Feng,  D. Ghosh,  
 M. Goldey,  P. R. Horn,  L. D. Jacobson,  I. Kaliman,  R. Z. Khaliullin,  
 T. Kus,  A. Landau,  J. Liu,  E. I. Proynov,  Y. M. Rhee,  R. M. Richard,  
 M. A. Rohrdanz,  R. P. Steele,  E. J. Sundstrom,  H. L. Woodcock III,  
 P. M. Zimmerman,  D. Zuev,  B. Albrecht,  E. Alguire,  B. Austin,  
 S. A. Baeppler,  G. J. O. Beran,  Y. A. Bernard,  E. Berquist,  
 K. Brandhorst,  K. B. Bravaya,  S. T. Brown,  D. Casanova,  C.-M. Chang,  
 Y. Chen,  S. H. Chien,  K. D. Closser,  M. P. Coons,  D. L. Crittenden,  
 S. Dasgupta,  M. Diedenhofen,  R. A. DiStasio Jr.,  H. Do,  A. D. Dutoi,  
 R. G. Edgar,  P.-T. Fang,  S. Fatehi,  Q. Feng,  L. Fusti-Molnar,  
 A. Ghysels,  A. Golubeva-Zadorozhnaya,  J. Gomes,  A. Gunina,  
 M. W. D. Hanson-Heine,  P. H. P. Harbach,  A. W. Hauser,  E. G. Hohenstein,  
 Z. C. Holden,  K. Hui,  T.-C. Jagau,  H. Ji,  B. Kaduk,  K. Khistyaev,  
 Jaehoon Kim,  Jihan Kim,  R. A. King,  P. Klunzinger,  D. Kosenkov,  
 T. Kowalczyk,  C. M. Krauter,  A. Kunitsa,  K. U. Lao,  A. Laurent,  
 K. V. Lawler,  D. Lefrancois,  S. Lehtola,  S. V. Levchenko,  C. Y. Lin,  
 Y.-S. Lin,  F. Liu,  E. Livshits,  R. C. Lochan,  A. Luenser,  P. Manohar,  
 S. F. Manzer,  S.-P. Mao,  Y. Mao,  N. Mardirossian,  A. V. Marenich,  
 L. A. Martinez-Martinez,  S. A. Maurer,  N. J. Mayhall,  J.-M. Mewes,  
 A. F. Morrison,  K. Nanda,  C. M. Oana,  R. Olivares-Amaya,  D. P. O'Neill,  
 J. A. Parkhill,  T. M. Perrine,  R. Peverati,  P. A. Pieniazek,  F. Plasser,  
 A. Prociuk,  D. R. Rehn,  E. Rosta,  N. J. Russ,  N. Sergueev,  
 S. M. Sharada,  S. Sharma,  D. W. Small,  A. Sodt,  T. Stauch,  T. Stein,  
 D. Stuck,  Y.-C. Su,  A. J. W. Thom,  T. Tsuchimochi,  L. Vogt,  O. Vydrov,  
 T. Wang,  M. A. Watson,  J. Wenzel,  A. White,  C. F. Williams,  
 V. Vanovschi,  S. Yeganeh,  S. R. Yost,  Z.-Q. You,  I. Y. Zhang,  X. Zhang,  
 Y. Zhao,  B. R. Brooks,  G. K. L. Chan,  D. M. Chipman,  C. J. Cramer,  
 W. A. Goddard III,  M. S. Gordon,  W. J. Hehre,  A. Klamt,  
 H. F. Schaefer III,  M. W. Schmidt,  C. D. Sherrill,  D. G. Truhlar,  
 A. Warshel,  X. Xu,  A. Aspuru-Guzik,  R. Baer,  A. T. Bell,  N. A. Besley,  
 J.-D. Chai,  A. Dreuw,  B. D. Dunietz,  T. R. Furlani,  S. R. Gwaltney,  
 C.-P. Hsu,  Y. Jung,  J. Kong,  D. S. Lambrecht,  W. Liang,  C. Ochsenfeld,  
 V. A. Rassolov,  L. V. Slipchenko,  J. E. Subotnik,  T. Van Voorhis,  
 J. M. Herbert,  A. I. Krylov,  P. M. W. Gill,  M. Head-Gordon

 Contributors to earlier versions of Q-Chem not listed above: 
 R. D. Adamson,  J. Baker,  E. F. C. Byrd,  A. K. Chakraborty,  C.-L. Cheng,  
 H. Dachsel,  R. J. Doerksen,  G. Hawkins,  A. Heyden,  S. Hirata,  
 G. Kedziora,  F. J. Keil,  C. Kelley,  P. P. Korambath,  W. Kurlancheek,  
 A. M. Lee,  M. S. Lee,  D. Liotard,  I. Lotan,  P. E. Maslen,  N. Nair,  
 D. Neuhauser,  R. Olson,  B. Peters,  J. Ritchie,  N. E. Schultz,  
 N. Shenvi,  A. C. Simmonett,  K. S. Thanthiriwatte,  Q. Wu,  W. Zhang

 Please cite Q-Chem as follows:
 Y. Shao et al., Mol. Phys. 113, 184-215 (2015)
 DOI: 10.1080/00268976.2014.952696

 Q-Chem 4.3.0 for Intel X86 EM64T Linux

 Parts of Q-Chem use Armadillo 5.200.1 (Boston Tea Smuggler).
 http://arma.sourceforge.net/

 Q-Chem begins on Mon Oct  2 22:35:55 2017  

Host: nid00366
0

     Scratch files written to /global/cscratch1/sd/junteng/scratch/15/opt_1111.save//

Checking the input file for inconsistencies... 	...done.

--------------------------------------------------------------
User input:
--------------------------------------------------------------
$molecule
0  1
C    0.579  -1.978   0.499
C   -0.345  -1.987   1.740
C    0.941  -0.610  -0.048
C   -0.562  -0.630   2.386
O    2.215  -0.645  -0.542
O    0.210   0.366  -0.087
O    0.648  -0.161   2.826
O   -1.631  -0.088   2.617
C    0.572   1.116   3.461
C    2.652   0.593  -1.106
C   -0.242  -2.782  -0.524
C   -0.292  -4.259  -0.098
C   -1.265  -4.223   1.081
C   -1.594  -2.718   1.188
O   -1.591  -2.362  -0.216
H    1.516  -2.494   0.747
H    0.090  -2.606   2.538
H   -0.024   1.052   4.377
H    2.622   1.389  -0.356
H   -0.708  -4.895  -0.888
H    0.690  -4.657   0.174
H   -2.154  -4.811   0.825
H   -0.840  -4.639   1.999
H    1.587   1.422   3.729
H    0.156   1.863   2.777
H    2.039   0.852  -1.975
H    3.687   0.467  -1.436
C   -2.945  -2.478   1.828
H   -3.699  -3.155   1.411
H   -2.911  -2.635   2.910
H   -3.320  -1.473   1.614
C    0.085  -2.603  -1.994
H   -0.579  -3.214  -2.616
H   -0.074  -1.570  -2.320
H    1.119  -2.890  -2.210
$end


$opt
CONSTRAINT
tors    2    1    3    5    147.3
tors    1    2    4    7    -64.6
ENDCONSTRAINT
$end

$rem
JOBTYPE                   OPT
METHOD                    B3LYP
DFT_D                     EMPIRICAL_GRIMME3
BASIS                     6-31G*
GEOM_OPT_MAX_CYCLES       500
GEOM_OPT_TOL_GRADIENT     5
GEOM_OPT_TOL_DISPLACEMENT 5
GEOM_OPT_TOL_ENERGY       5
SYMMETRY                  False
THRESH                    12
SCF_CONVERGENCE           8
MAX_SUB_FILE_NUM          128
MEM_STATIC                400
MEM_TOTAL                 4000
$end

--------------------------------------------------------------
 ----------------------------------------------------------------
             Standard Nuclear Orientation (Angstroms)
    I     Atom           X                Y                Z
 ----------------------------------------------------------------
    1      C       0.0405485511     0.6575719166     0.6279970458
    2      C       0.4485580788    -0.8348816956     0.6210370951
    3      C      -1.2236982091     1.0027230799    -0.1363509142
    4      C      -0.5983616521    -1.7818052351     0.0614400192
    5      O      -1.8727982861     2.0215992616     0.5030999569
    6      O      -1.5961984503     0.4914952944    -1.1795899671
    7      O      -1.7171432315    -1.7052423029     0.8489213808
    8      O      -0.4521119641    -2.5882506495    -0.8430724586
    9      C      -2.7784272181    -2.5607562126     0.4228905721
   10      C      -3.0723596472     2.4436939349    -0.1485116050
   11      C       1.2695511140     1.3340043222    -0.0036499292
   12      C       2.4565832498     1.2598809157     0.9715246343
   13      C       2.8623527980    -0.2112841170     0.8761804153
   14      C       1.8144140588    -0.7767714946    -0.1070608698
   15      O       1.6672726917     0.3585939812    -0.9943351534
   16      H      -0.1006442077     0.9849117819     1.6665740614
   17      H       0.6216642017    -1.1903109685     1.6471434747
   18      H      -2.4797608129    -3.6105469360     0.5071865717
   19      H      -3.7802435395     1.6131239838    -0.2264214976
   20      H       3.2933331402     1.8856898890     0.6400661152
   21      H       2.1911460006     1.5619689502     1.9888730929
   22      H       3.8755559769    -0.2734341450     0.4624683269
   23      H       2.8636012425    -0.7181800102     1.8454378604
   24      H      -3.6353600821    -2.3906923623     1.0804841802
   25      H      -3.0783059100    -2.3222438675    -0.6028314328
   26      H      -2.8433670294     2.8555358485    -1.1364182905
   27      H      -3.5276066382     3.2308286629     0.4590820891
   28      C       2.3256610058    -2.0007489527    -0.8370654871
   29      H       3.3506780532    -1.8430305545    -1.1909001368
   30      H       2.3227728949    -2.8841446677    -0.1919820277
   31      H       1.7440132593    -2.2037087567    -1.7409123862
   32      C       1.0880301320     2.7130571330    -0.6079126850
   33      H       2.0289460417     3.0747186755    -1.0380047444
   34      H       0.3716132743     2.6999266795    -1.4356931372
   35      H       0.7526844869     3.4359215512     0.1425480610
 ----------------------------------------------------------------
 Molecular Point Group                 C1    NOp =  1
 Largest Abelian Subgroup              C1    NOp =  1
 Nuclear Repulsion Energy =  1395.7542610596 hartrees
 There are       65 alpha and       65 beta electrons
 Requested basis set is 6-31G(d)
 There are 104 shells and 291 basis functions

 Total QAlloc Memory Limit   4000 MB
 Mega-Array Size       392 MB
 MEM_STATIC part       400 MB
 A cutoff of  1.0D-12 yielded   4350 shell pairs
 There are     36519 function pairs
 
 -------------------------------------------------------
 OpenMP Integral Computing Module                       
 Release: version 1.0, May 2013, Q-Chem Inc. Pittsburgh 
 -------------------------------------------------------
 Integral Job Info:
 Integral job number is                      11
 Integral operator is                         1
 short-range coefficients                     0
 long-range coefficients              100000000
 Omega coefficients                           0
 if combine SR and LR in K                    0
 Integral screening is                        0
 Integral computing path is                   2
 max size of driver memory is            800000
 size of driver memory is                593474
 size of scratch memory is              2260544
 max col of scratch BK array               1296
 max len of scratch array in speh3          155
 max len of scratch index in speh4           18
 max int batch size is                      520
 min int batch size is                       52
 fixed nKL is                                52
 max L of basis functions is                  2
 order of int derivative is                   0
 number of shells is                        104
 number of basis is                         291
 number of cartesian basis is               291
 number of contracted shell pairs          4350
 number of primitive shell pairs          14683
 maxK2 (contraction) of shell pair           36
 max number of K2 of shell pair               1
 max number of CS2 of shell pair            554
 max number of PS2 of shell pair           2250
 mem total for path MDJ                   97960
 -------------------------------------------------------
 Smallest overlap matrix eigenvalue = 8.28E-04

 Scale SEOQF with 1.000000e-01/1.000000e-01/1.000000e-01

 Standard Electronic Orientation quadrupole field applied
 Nucleus-field energy     =     0.0000000384 hartrees
 Guess from superposition of atomic densities
 Warning:  Energy on first SCF cycle will be non-variational
 A restricted hybrid HF-DFT SCF calculation will be
 performed using Pulay DIIS extrapolation
 Exchange:     0.2000 Hartree-Fock + 0.0800 Slater + 0.7200 B88
 Correlation:  0.1900 VWN1RPA + 0.8100 LYP
 Using SG-1 standard quadrature grid
 Dispersion:   Grimme D3
 SCF converges when DIIS error is below 1.0E-08
 using 24 threads for integral computing 
 -------------------------------------------------------
 OpenMP BLAS3 based DFT computing Module                
 Release: version 1.0, May 2013, Q-Chem Inc. Pittsburgh 
 -------------------------------------------------------
 ---------------------------------------
  Cycle       Energy         DIIS Error
 ---------------------------------------
    1    -847.6077095743      4.63E-02
    2    -843.9284072730      6.18E-03
    3    -843.3233098388      1.07E-02
    4    -844.2188154179      2.56E-03
    5    -844.2752095101      5.75E-04
    6    -844.2772370131      2.65E-04
    7    -844.2778145995      4.82E-05
    8    -844.2778327689      1.66E-05
    9    -844.2778350609      5.50E-06
   10    -844.2778352622      2.36E-06
   11    -844.2778353056      6.46E-07
   12    -844.2778353094      1.73E-07
   13    -844.2778353096      6.05E-08
   14    -844.2778353097      1.92E-08
   15    -844.2778353097      4.60E-09 Convergence criterion met
 ---------------------------------------
 SCF time:  CPU 327.74 s  wall 17.38 s
 SCF   energy in the final basis set = -844.2778353097
 Total energy in the final basis set = -844.2778353097
 
 --------------------------------------------------------------
 
                    Orbital Energies (a.u.)
 --------------------------------------------------------------
 
 Alpha MOs
 -- Occupied --
-19.198 -19.189 -19.141 -19.139 -19.133 -10.319 -10.314 -10.247
-10.242 -10.240 -10.234 -10.210 -10.210 -10.183 -10.181 -10.180
-10.164  -1.102  -1.092  -1.044  -1.016  -1.007  -0.825  -0.795
 -0.777  -0.738  -0.716  -0.712  -0.663  -0.631  -0.596  -0.570
 -0.552  -0.543  -0.518  -0.497  -0.493  -0.481  -0.478  -0.472
 -0.462  -0.462  -0.448  -0.430  -0.423  -0.411  -0.406  -0.403
 -0.395  -0.386  -0.378  -0.362  -0.358  -0.356  -0.348  -0.345
 -0.338  -0.332  -0.318  -0.316  -0.306  -0.296  -0.277  -0.261
 -0.255
 -- Virtual --
 -0.004   0.018   0.064   0.088   0.102   0.110   0.124   0.132
  0.133   0.142   0.143   0.146   0.155   0.156   0.159   0.161
  0.166   0.175   0.178   0.181   0.192   0.202   0.207   0.217
  0.227   0.229   0.239   0.250   0.256   0.272   0.277   0.296
  0.302   0.335   0.347   0.373   0.389   0.403   0.487   0.499
  0.510   0.513   0.529   0.542   0.546   0.557   0.562   0.569
  0.581   0.584   0.589   0.598   0.604   0.607   0.631   0.637
  0.640   0.671   0.680   0.699   0.709   0.722   0.741   0.752
  0.756   0.769   0.779   0.791   0.809   0.822   0.827   0.830
  0.839   0.848   0.855   0.861   0.865   0.867   0.872   0.884
  0.888   0.898   0.910   0.911   0.927   0.933   0.938   0.946
  0.953   0.958   0.967   0.983   0.990   1.007   1.012   1.014
  1.027   1.049   1.063   1.078   1.095   1.115   1.155   1.178
  1.214   1.235   1.250   1.254   1.271   1.306   1.332   1.344
  1.373   1.390   1.402   1.404   1.435   1.453   1.478   1.515
  1.519   1.533   1.563   1.582   1.602   1.623   1.650   1.659
  1.693   1.716   1.726   1.738   1.759   1.772   1.785   1.799
  1.816   1.824   1.846   1.853   1.871   1.885   1.911   1.918
  1.942   1.954   1.955   1.966   1.978   1.993   2.008   2.023
  2.027   2.037   2.051   2.063   2.069   2.083   2.090   2.103
  2.112   2.127   2.151   2.162   2.189   2.194   2.212   2.231
  2.255   2.263   2.296   2.301   2.306   2.309   2.315   2.337
  2.355   2.361   2.373   2.405   2.436   2.450   2.471   2.511
  2.517   2.572   2.578   2.594   2.619   2.648   2.658   2.676
  2.713   2.725   2.746   2.772   2.793   2.812   2.861   2.880
  2.889   2.959   2.963   3.014   3.057   3.075   3.124   3.155
  3.191   3.986   4.029   4.113   4.140   4.229   4.243   4.256
  4.267   4.313   4.339   4.433   4.516   4.600   4.616   4.750
  4.781   5.028
 --------------------------------------------------------------
 
          Ground-State Mulliken Net Atomic Charges

     Atom                 Charge (a.u.)
  ----------------------------------------
      1 C                    -0.183871
      2 C                    -0.201144
      3 C                     0.641832
      4 C                     0.646717
      5 O                    -0.458192
      6 O                    -0.482799
      7 O                    -0.465488
      8 O                    -0.480188
      9 C                    -0.219642
     10 C                    -0.220736
     11 C                     0.314640
     12 C                    -0.288002
     13 C                    -0.287739
     14 C                     0.325672
     15 O                    -0.514221
     16 H                     0.160324
     17 H                     0.167521
     18 H                     0.165379
     19 H                     0.170090
     20 H                     0.147668
     21 H                     0.133032
     22 H                     0.148340
     23 H                     0.130325
     24 H                     0.156662
     25 H                     0.180055
     26 H                     0.170144
     27 H                     0.163430
     28 C                    -0.479692
     29 H                     0.138434
     30 H                     0.142930
     31 H                     0.192790
     32 C                    -0.498335
     33 H                     0.159660
     34 H                     0.168007
     35 H                     0.156397
  ----------------------------------------
  Sum of atomic charges =     0.000000

 -----------------------------------------------------------------
                    Cartesian Multipole Moments
 -----------------------------------------------------------------
    Charge (ESU x 10^10)
                -0.0000
    Dipole Moment (Debye)
         X      -0.8634      Y       1.8669      Z       3.3701
       Tot       3.9482
    Quadrupole Moments (Debye-Ang)
        XX     -87.6107     XY      -0.9004     YY     -95.1516
        XZ       0.8885     YZ      -4.8147     ZZ    -104.9962
    Octopole Moments (Debye-Ang^2)
       XXX     -56.7262    XXY       0.2677    XYY     -26.5335
       YYY      14.7346    XXZ       1.9655    XYZ       5.1448
       YYZ       3.8460    XZZ      -2.3485    YZZ       0.2088
       ZZZ       0.1189
    Hexadecapole Moments (Debye-Ang^3)
      XXXX   -2192.2227   XXXY      -6.1610   XXYY    -618.2672
      XYYY      -3.1948   YYYY   -1948.4026   XXXZ     -23.3171
      XXYZ      -7.2497   XYYZ      -8.8368   YYYZ     -49.3739
      XXZZ    -486.5686   XYZZ      -4.9837   YYZZ    -407.3917
      XZZZ      -5.6659   YZZZ       2.5792   ZZZZ    -446.6557
 -----------------------------------------------------------------
 Calculating analytic gradient of the SCF energy
 Gradient of SCF Energy
            1           2           3           4           5           6
    1   0.0121855  -0.0039061   0.0023503  -0.0027821  -0.0036710  -0.0027721
    2  -0.0039608   0.0072959   0.0038239   0.0153017   0.0089014  -0.0093838
    3  -0.0193282   0.0013534   0.0049402   0.0065741   0.0063001  -0.0154356
            7           8           9          10          11          12
    1  -0.0073647   0.0092414   0.0096516   0.0074154  -0.0170835  -0.0025569
    2  -0.0007882  -0.0151238   0.0041236  -0.0065383  -0.0060227  -0.0053186
    3   0.0083849  -0.0165150   0.0003012   0.0014294   0.0123880  -0.0125312
           13          14          15          16          17          18
    1  -0.0034314  -0.0161140   0.0078016   0.0007110   0.0039324  -0.0005087
    2   0.0041245  -0.0001144   0.0003721  -0.0031547  -0.0025965  -0.0003226
    3  -0.0095477   0.0092770   0.0035301   0.0046187   0.0009583   0.0038229
           19          20          21          22          23          24
    1  -0.0015802   0.0055525   0.0005297   0.0035261  -0.0006656  -0.0035195
    2   0.0006230  -0.0035860  -0.0025034   0.0057859   0.0021862  -0.0036219
    3   0.0037187   0.0010768  -0.0005345   0.0016691  -0.0007584  -0.0027376
           25          26          27          28          29          30
    1  -0.0030099   0.0016172  -0.0044950  -0.0007268  -0.0017276   0.0022407
    2   0.0023167   0.0035180   0.0010059   0.0008240  -0.0031095  -0.0003047
    3   0.0004117   0.0014096  -0.0030072   0.0156449  -0.0049477   0.0001424
           31          32          33          34          35
    1   0.0041242   0.0023037  -0.0010802   0.0031061   0.0007058
    2   0.0020875  -0.0008301   0.0023287   0.0010798   0.0015809
    3  -0.0060762   0.0089582  -0.0030299  -0.0018486  -0.0006118
 Max gradient component =       1.933E-02
 RMS gradient           =       6.394E-03
 Gradient time:  CPU 107.72 s  wall 8.02 s
 Geometry Optimization Parameters
   NAtoms,    NIC,     NZ,  NCons,   NDum,   NFix, NCnnct, MaxDiis
       35     275       0       2       0       0       0       0


** CONSTRAINED OPTIMIZATION IN DELOCALIZED INTERNAL COORDINATES **
   Searching for a Minimum

   Optimization Cycle:   1

                       Coordinates (Angstroms)
     ATOM                X               Y               Z
      1  C         0.0405485511    0.6575719166    0.6279970458
      2  C         0.4485580788   -0.8348816956    0.6210370951
      3  C        -1.2236982091    1.0027230799   -0.1363509142
      4  C        -0.5983616521   -1.7818052351    0.0614400192
      5  O        -1.8727982861    2.0215992616    0.5030999569
      6  O        -1.5961984503    0.4914952944   -1.1795899671
      7  O        -1.7171432315   -1.7052423029    0.8489213808
      8  O        -0.4521119641   -2.5882506495   -0.8430724586
      9  C        -2.7784272181   -2.5607562126    0.4228905721
     10  C        -3.0723596472    2.4436939349   -0.1485116050
     11  C         1.2695511140    1.3340043222   -0.0036499292
     12  C         2.4565832498    1.2598809157    0.9715246343
     13  C         2.8623527980   -0.2112841170    0.8761804153
     14  C         1.8144140588   -0.7767714946   -0.1070608698
     15  O         1.6672726917    0.3585939812   -0.9943351534
     16  H        -0.1006442077    0.9849117819    1.6665740614
     17  H         0.6216642017   -1.1903109685    1.6471434747
     18  H        -2.4797608129   -3.6105469360    0.5071865717
     19  H        -3.7802435395    1.6131239838   -0.2264214976
     20  H         3.2933331402    1.8856898890    0.6400661152
     21  H         2.1911460006    1.5619689502    1.9888730929
     22  H         3.8755559769   -0.2734341450    0.4624683269
     23  H         2.8636012425   -0.7181800102    1.8454378604
     24  H        -3.6353600821   -2.3906923623    1.0804841802
     25  H        -3.0783059100   -2.3222438675   -0.6028314328
     26  H        -2.8433670294    2.8555358485   -1.1364182905
     27  H        -3.5276066382    3.2308286629    0.4590820891
     28  C         2.3256610058   -2.0007489527   -0.8370654871
     29  H         3.3506780532   -1.8430305545   -1.1909001368
     30  H         2.3227728949   -2.8841446677   -0.1919820277
     31  H         1.7440132593   -2.2037087567   -1.7409123862
     32  C         1.0880301320    2.7130571330   -0.6079126850
     33  H         2.0289460417    3.0747186755   -1.0380047444
     34  H         0.3716132743    2.6999266795   -1.4356931372
     35  H         0.7526844869    3.4359215512    0.1425480610
   Point Group: c1    Number of degrees of freedom:    99


   Energy is   -844.277835310

              Constraints and their Current Values
                                        Value     Constraint
   Dihedral:        2   1   3   5      145.794      147.300
   Dihedral:        1   2   4   7      -61.913      -64.600

 Attempting to Generate Delocalized Internal Coordinates

   Using Lagrange Multiplier Algorithm


101 Hessian modes will be used to form the next step
  Hessian Eigenvalues:
    -0.977753   -0.977753    0.045000    0.045000    0.045000    0.045000
     0.045000    0.045000    0.045023    0.045263    0.045502    0.048606
     0.060298    0.061777    0.067925    0.070278    0.071449    0.071695
     0.075522    0.076606    0.078244    0.080811    0.081377    0.081808
     0.083396    0.083502    0.083514    0.083675    0.084645    0.090017
     0.091538    0.091907    0.106339    0.109001    0.113820    0.113949
     0.116299    0.116905    0.116996    0.126894    0.131265    0.139894
     0.144501    0.160000    0.160000    0.160000    0.160000    0.160000
     0.160000    0.160000    0.160000    0.160000    0.160000    0.160000
     0.160000    0.165730    0.185925    0.241736    0.248635    0.249881
     0.250000    0.250000    0.250000    0.250000    0.250633    0.260748
     0.267050    0.282050    0.285547    0.305111    0.306449    0.307030
     0.309452    0.327325    0.337229    0.338979    0.340712    0.341060
     0.341086    0.341343    0.341531    0.342465    0.342607    0.342751
     0.342848    0.342936    0.343451    0.343609    0.343704    0.343747
     0.343768    0.343978    0.344143    0.411501    0.412503    0.509233
     0.515826    0.951140    0.953727    1.022753    1.022753

 Minimum Search - Taking P-RFO Step
 Searching for Lamda that Maximizes Along the Constraint modes Only
 Value Taken    Lamda =   0.00170177
 Searching for Lamda that Minimizes Along All other modes
 Value Taken    Lamda =  -0.01215195
 Step Taken.  Stepsize is  0.268892

                             Maximum     Tolerance    Cnvgd?
         Gradient            0.046889       0.000005      NO
         Displacement        0.072097       0.000005      NO
         Energy change     *********       0.000000      NO


 New Cartesian Coordinates Obtained by Inverse Iteration

 Displacement from previous Coordinates is:  0.651560
 ----------------------------------------------------------------
             Standard Nuclear Orientation (Angstroms)
    I     Atom           X                Y                Z
 ----------------------------------------------------------------
    1      C       0.0562714029     0.6610223532     0.6689839324
    2      C       0.4696733858    -0.8461343495     0.6442142675
    3      C      -1.2064207972     0.9800256602    -0.1036675172
    4      C      -0.5979936408    -1.7624684490     0.0621942764
    5      O      -1.8801643883     1.9985345417     0.4864244563
    6      O      -1.5703675177     0.4548138100    -1.1313937936
    7      O      -1.6869410401    -1.7279140516     0.8766410080
    8      O      -0.5120384713    -2.5229518890    -0.8721687556
    9      C      -2.7928783176    -2.5267615564     0.4376805195
   10      C      -3.0736001799     2.4079791230    -0.1961910927
   11      C       1.2906002952     1.3379793500     0.0107431943
   12      C       2.4692501592     1.2711247170     1.0143481718
   13      C       2.8812746116    -0.2242476595     0.9066844179
   14      C       1.8402816981    -0.7730456221    -0.1089528342
   15      O       1.6758463420     0.3668491208    -0.9823690265
   16      H      -0.0870768397     1.0141201850     1.6934277528
   17      H       0.6415302397    -1.2198492060     1.6601712918
   18      H      -2.5278407679    -3.5880454981     0.4204626701
   19      H      -3.7744906449     1.5730850723    -0.2845741328
   20      H       3.2810414378     1.9227279022     0.6797883858
   21      H       2.1889710864     1.5844997002     2.0264078470
   22      H       3.8843233582    -0.3117330941     0.4820870920
   23      H       2.8791723941    -0.7576298446     1.8644972061
   24      H      -3.5895372211    -2.3531919360     1.1650631933
   25      H      -3.1204878693    -2.2130419348    -0.5573636286
   26      H      -2.8417396036     2.7956574452    -1.1925310652
   27      H      -3.5098927725     3.1982048288     0.4187684500
   28      C       2.3262133872    -1.9794630287    -0.8858764097
   29      H       3.3516322941    -1.7998290958    -1.2301494003
   30      H       2.3186173430    -2.8754621604    -0.2592999423
   31      H       1.7077924785    -2.1598259706    -1.7653800538
   32      C       1.0709758723     2.6943260060    -0.6240272982
   33      H       2.0093113818     3.0539244690    -1.0575354377
   34      H       0.3371402085     2.6395559468    -1.4359646183
   35      H       0.7241440694     3.4163780484     0.1210991041
 ----------------------------------------------------------------
 Molecular Point Group                 C1    NOp =  1
 Largest Abelian Subgroup              C1    NOp =  1
 Nuclear Repulsion Energy =  1397.3218095627 hartrees
 There are       65 alpha and       65 beta electrons
 Applying Cartesian multipole field
    Component          Value
    ---------          -----
     (2,0,0)        1.00000E-11
     (0,2,0)        2.00000E-11
     (0,0,2)       -3.00000E-11
 Nucleus-field energy     =     0.0000000376 hartrees
 Requested basis set is 6-31G(d)
 There are 104 shells and 291 basis functions
 A cutoff of  1.0D-12 yielded   4357 shell pairs
 There are     36571 function pairs
 Smallest overlap matrix eigenvalue = 8.66E-04
 Guess MOs from SCF MO coefficient file
 Reading MOs from coefficient file
 Reading MOs from coefficient file
 A restricted hybrid HF-DFT SCF calculation will be
 performed using Pulay DIIS extrapolation
 Exchange:     0.2000 Hartree-Fock + 0.0800 Slater + 0.7200 B88
 Correlation:  0.1900 VWN1RPA + 0.8100 LYP
 Using SG-1 standard quadrature grid
 Dispersion:   Grimme D3
 SCF converges when DIIS error is below 1.0E-08
 Geometry optimization detected.  Setting ReadMinima to 0
 Setting SaveMinima to 0
 using 24 threads for integral computing 
 -------------------------------------------------------
 OpenMP BLAS3 based DFT computing Module                
 Release: version 1.0, May 2013, Q-Chem Inc. Pittsburgh 
 -------------------------------------------------------
 ---------------------------------------
  Cycle       Energy         DIIS Error
 ---------------------------------------
    1    -844.2839061051      1.48E-03
    2    -844.2834274779      2.01E-04
    3    -844.2831362901      2.96E-04
    4    -844.2838367041      4.34E-05
    5    -844.2838465511      2.59E-05
    6    -844.2838514608      8.98E-06
    7    -844.2838520582      2.73E-06
    8    -844.2838521243      5.71E-07
    9    -844.2838521268      2.49E-07
   10    -844.2838521272      1.02E-07
   11    -844.2838521272      3.04E-08
   12    -844.2838521273      1.03E-08
   13    -844.2838521272      2.52E-09 Convergence criterion met
 ---------------------------------------
 SCF time:  CPU 282.38 s  wall 14.29 s
 SCF   energy in the final basis set = -844.2838521272
 Total energy in the final basis set = -844.2838521272
 
 --------------------------------------------------------------
 
                    Orbital Energies (a.u.)
 --------------------------------------------------------------
 
 Alpha MOs
 -- Occupied --
-19.196 -19.183 -19.141 -19.138 -19.129 -10.315 -10.309 -10.248
-10.243 -10.241 -10.233 -10.210 -10.209 -10.187 -10.184 -10.181
-10.165  -1.105  -1.093  -1.044  -1.016  -1.006  -0.822  -0.794
 -0.773  -0.739  -0.716  -0.712  -0.662  -0.633  -0.592  -0.570
 -0.553  -0.542  -0.516  -0.497  -0.490  -0.481  -0.476  -0.471
 -0.460  -0.459  -0.446  -0.430  -0.424  -0.410  -0.408  -0.403
 -0.397  -0.387  -0.378  -0.362  -0.359  -0.354  -0.348  -0.344
 -0.341  -0.336  -0.319  -0.314  -0.305  -0.294  -0.275  -0.259
 -0.256
 -- Virtual --
  0.001   0.025   0.067   0.088   0.103   0.109   0.125   0.131
  0.134   0.143   0.144   0.146   0.155   0.157   0.160   0.163
  0.165   0.174   0.179   0.180   0.191   0.202   0.205   0.218
  0.224   0.230   0.236   0.247   0.255   0.269   0.283   0.302
  0.307   0.330   0.339   0.372   0.391   0.406   0.488   0.498
  0.513   0.514   0.530   0.543   0.545   0.555   0.564   0.565
  0.580   0.580   0.585   0.590   0.598   0.610   0.630   0.642
  0.652   0.663   0.674   0.694   0.707   0.721   0.739   0.745
  0.754   0.770   0.778   0.795   0.809   0.823   0.828   0.832
  0.838   0.849   0.857   0.861   0.864   0.868   0.874   0.885
  0.890   0.900   0.909   0.914   0.930   0.932   0.940   0.946
  0.952   0.955   0.966   0.980   0.988   1.007   1.013   1.017
  1.030   1.049   1.064   1.086   1.097   1.113   1.154   1.181
  1.217   1.235   1.248   1.257   1.277   1.310   1.332   1.343
  1.374   1.393   1.404   1.406   1.435   1.455   1.483   1.514
  1.523   1.542   1.571   1.595   1.605   1.636   1.651   1.663
  1.695   1.714   1.727   1.736   1.762   1.764   1.782   1.795
  1.812   1.820   1.838   1.853   1.868   1.884   1.909   1.916
  1.942   1.949   1.957   1.969   1.980   1.998   2.010   2.027
  2.031   2.038   2.055   2.065   2.080   2.085   2.091   2.108
  2.116   2.123   2.145   2.160   2.183   2.197   2.198   2.228
  2.258   2.267   2.291   2.299   2.299   2.306   2.314   2.336
  2.353   2.358   2.378   2.397   2.445   2.461   2.474   2.506
  2.517   2.566   2.569   2.594   2.626   2.653   2.661   2.671
  2.709   2.727   2.752   2.767   2.795   2.819   2.847   2.872
  2.889   2.971   2.982   3.016   3.059   3.088   3.115   3.166
  3.194   3.992   4.026   4.120   4.144   4.227   4.247   4.264
  4.275   4.314   4.347   4.440   4.540   4.603   4.628   4.746
  4.780   5.020
 --------------------------------------------------------------
 
          Ground-State Mulliken Net Atomic Charges

     Atom                 Charge (a.u.)
  ----------------------------------------
      1 C                    -0.186721
      2 C                    -0.197541
      3 C                     0.637311
      4 C                     0.641905
      5 O                    -0.459973
      6 O                    -0.480555
      7 O                    -0.466362
      8 O                    -0.479948
      9 C                    -0.218269
     10 C                    -0.219855
     11 C                     0.309376
     12 C                    -0.289280
     13 C                    -0.290029
     14 C                     0.320196
     15 O                    -0.507455
     16 H                     0.159269
     17 H                     0.165899
     18 H                     0.166157
     19 H                     0.170864
     20 H                     0.148192
     21 H                     0.136070
     22 H                     0.148355
     23 H                     0.133560
     24 H                     0.155916
     25 H                     0.179559
     26 H                     0.170917
     27 H                     0.163706
     28 C                    -0.479153
     29 H                     0.138902
     30 H                     0.142479
     31 H                     0.196691
     32 C                    -0.494648
     33 H                     0.159078
     34 H                     0.170513
     35 H                     0.154875
  ----------------------------------------
  Sum of atomic charges =    -0.000000

 -----------------------------------------------------------------
                    Cartesian Multipole Moments
 -----------------------------------------------------------------
    Charge (ESU x 10^10)
                -0.0000
    Dipole Moment (Debye)
         X      -0.7473      Y       1.9031      Z       3.2868
       Tot       3.8708
    Quadrupole Moments (Debye-Ang)
        XX     -87.5814     XY      -1.2909     YY     -95.1565
        XZ       1.1598     YZ      -4.7491     ZZ    -104.7761
    Octopole Moments (Debye-Ang^2)
       XXX     -58.3081    XXY       0.2433    XYY     -25.3060
       YYY      12.6321    XXZ       0.6309    XYZ       5.7071
       YYZ       2.9795    XZZ      -3.1739    YZZ       1.3213
       ZZZ      -1.7127
    Hexadecapole Moments (Debye-Ang^3)
      XXXX   -2207.0588   XXXY     -12.8832   XXYY    -617.9717
      XYYY      -7.0892   YYYY   -1908.6595   XXXZ     -24.6658
      XXYZ      -9.7651   XYYZ      -7.7058   YYYZ     -44.1008
      XXZZ    -487.9054   XYZZ      -7.7144   YYZZ    -403.6345
      XZZZ      -8.6581   YZZZ       2.1528   ZZZZ    -458.0087
 -----------------------------------------------------------------
 Calculating analytic gradient of the SCF energy
 Gradient of SCF Energy
            1           2           3           4           5           6
    1   0.0064772  -0.0038452   0.0011979  -0.0001344  -0.0026324   0.0001105
    2   0.0013773   0.0000616  -0.0017183   0.0087337   0.0020470   0.0010303
    3  -0.0099686   0.0075832  -0.0016147  -0.0049382   0.0002855   0.0016012
            7           8           9          10          11          12
    1  -0.0009249  -0.0013672   0.0040402   0.0028960  -0.0075367  -0.0007792
    2  -0.0039101  -0.0025201  -0.0000651  -0.0032346  -0.0004238   0.0025932
    3   0.0007417   0.0020034  -0.0014494  -0.0012291   0.0061220  -0.0028488
           13          14          15          16          17          18
    1   0.0008667  -0.0043413   0.0038194  -0.0002360   0.0029851  -0.0006507
    2  -0.0021882  -0.0010206   0.0000884  -0.0010991  -0.0022578  -0.0002967
    3  -0.0027639   0.0015488  -0.0035971   0.0009675  -0.0002845   0.0011106
           19          20          21          22          23          24
    1  -0.0008007   0.0005000   0.0004890  -0.0001498   0.0007391  -0.0009116
    2   0.0004925  -0.0009530   0.0005433   0.0011324  -0.0004643  -0.0001672
    3   0.0010859   0.0006111   0.0008787   0.0006020   0.0006388   0.0000292
           25          26          27          28          29          30
    1  -0.0011258  -0.0003208  -0.0008302  -0.0014266  -0.0000092   0.0003330
    2   0.0004347   0.0013847   0.0005368  -0.0016291   0.0000489   0.0004967
    3   0.0005698   0.0004119  -0.0000315   0.0054152  -0.0016742  -0.0001381
           31          32          33          34          35
    1   0.0025020   0.0005282  -0.0002591   0.0005222   0.0002753
    2   0.0009378  -0.0004559  -0.0000213   0.0007491  -0.0002632
    3  -0.0024836   0.0032960  -0.0009256  -0.0015938   0.0000384
 Max gradient component =       9.969E-03
 RMS gradient           =       2.538E-03
 Gradient time:  CPU 108.09 s  wall 6.18 s
 Geometry Optimization Parameters
   NAtoms,    NIC,     NZ,  NCons,   NDum,   NFix, NCnnct, MaxDiis
       35     275       0       2       0       0       0       0

 Cartesian Hessian Update
 Hessian Updated using BFGS Update


** CONSTRAINED OPTIMIZATION IN DELOCALIZED INTERNAL COORDINATES **
   Searching for a Minimum

   Optimization Cycle:   2

                       Coordinates (Angstroms)
     ATOM                X               Y               Z
      1  C         0.0562714029    0.6610223532    0.6689839324
      2  C         0.4696733858   -0.8461343495    0.6442142675
      3  C        -1.2064207972    0.9800256602   -0.1036675172
      4  C        -0.5979936408   -1.7624684490    0.0621942764
      5  O        -1.8801643883    1.9985345417    0.4864244563
      6  O        -1.5703675177    0.4548138100   -1.1313937936
      7  O        -1.6869410401   -1.7279140516    0.8766410080
      8  O        -0.5120384713   -2.5229518890   -0.8721687556
      9  C        -2.7928783176   -2.5267615564    0.4376805195
     10  C        -3.0736001799    2.4079791230   -0.1961910927
     11  C         1.2906002952    1.3379793500    0.0107431943
     12  C         2.4692501592    1.2711247170    1.0143481718
     13  C         2.8812746116   -0.2242476595    0.9066844179
     14  C         1.8402816981   -0.7730456221   -0.1089528342
     15  O         1.6758463420    0.3668491208   -0.9823690265
     16  H        -0.0870768397    1.0141201850    1.6934277528
     17  H         0.6415302397   -1.2198492060    1.6601712918
     18  H        -2.5278407679   -3.5880454981    0.4204626701
     19  H        -3.7744906449    1.5730850723   -0.2845741328
     20  H         3.2810414378    1.9227279022    0.6797883858
     21  H         2.1889710864    1.5844997002    2.0264078470
     22  H         3.8843233582   -0.3117330941    0.4820870920
     23  H         2.8791723941   -0.7576298446    1.8644972061
     24  H        -3.5895372211   -2.3531919360    1.1650631933
     25  H        -3.1204878693   -2.2130419348   -0.5573636286
     26  H        -2.8417396036    2.7956574452   -1.1925310652
     27  H        -3.5098927725    3.1982048288    0.4187684500
     28  C         2.3262133872   -1.9794630287   -0.8858764097
     29  H         3.3516322941   -1.7998290958   -1.2301494003
     30  H         2.3186173430   -2.8754621604   -0.2592999423
     31  H         1.7077924785   -2.1598259706   -1.7653800538
     32  C         1.0709758723    2.6943260060   -0.6240272982
     33  H         2.0093113818    3.0539244690   -1.0575354377
     34  H         0.3371402085    2.6395559468   -1.4359646183
     35  H         0.7241440694    3.4163780484    0.1210991041
   Point Group: c1    Number of degrees of freedom:    99


   Energy is   -844.283852127

              Constraints and their Current Values
                                        Value     Constraint
   Dihedral:        2   1   3   5      147.288      147.300
   Dihedral:        1   2   4   7      -64.584      -64.600
 Hessian Updated using BFGS Update

   Using Lagrange Multiplier Algorithm


 85 Hessian modes will be used to form the next step
  Hessian Eigenvalues:
    -0.977849   -0.976990    0.042645    0.045015    0.045028    0.045090
     0.045492    0.048577    0.059719    0.061496    0.066572    0.069491
     0.071278    0.071449    0.075003    0.075715    0.078229    0.079816
     0.080889    0.081743    0.082626    0.083421    0.083571    0.083652
     0.084769    0.090040    0.091166    0.091903    0.106363    0.108524
     0.109523    0.113878    0.115349    0.116908    0.117007    0.126652
     0.131388    0.138739    0.144436    0.156312    0.162086    0.170270
     0.185939    0.241095    0.248090    0.249419    0.249909    0.250249
     0.258799    0.260742    0.277415    0.280390    0.285448    0.305309
     0.306442    0.307435    0.309460    0.327230    0.336918    0.338777
     0.341036    0.341075    0.341323    0.341504    0.342446    0.342484
     0.342745    0.342836    0.342932    0.343317    0.343447    0.343585
     0.343675    0.343727    0.343922    0.344108    0.353641    0.410681
     0.412221    0.510433    0.513663    0.951124    0.971899    1.022693
     1.024624

 Minimum Search - Taking P-RFO Step
 Searching for Lamda that Maximizes Along the Constraint modes Only
 Value Taken    Lamda =   0.00000365
 Searching for Lamda that Minimizes Along All other modes
 Value Taken    Lamda =  -0.00157781
 Step Taken.  Stepsize is  0.154720

                             Maximum     Tolerance    Cnvgd?
         Gradient            0.003588       0.000005      NO
         Displacement        0.061574       0.000005      NO
         Energy change     -0.006017       0.000000      NO


 New Cartesian Coordinates Obtained by Inverse Iteration

 Displacement from previous Coordinates is:  0.384695
 ----------------------------------------------------------------
             Standard Nuclear Orientation (Angstroms)
    I     Atom           X                Y                Z
 ----------------------------------------------------------------
    1      C       0.0605658668     0.6583142194     0.6891387503
    2      C       0.4828093940    -0.8498630485     0.6614405829
    3      C      -1.2028503771     0.9657803573    -0.0857990921
    4      C      -0.5778377775    -1.7680744135     0.0692891284
    5      O      -1.8819283892     1.9761970226     0.5041348120
    6      O      -1.5627434953     0.4340706402    -1.1118250573
    7      O      -1.6673371838    -1.7370122752     0.8810531417
    8      O      -0.4889120367    -2.4949189713    -0.8895926522
    9      C      -2.7958162484    -2.4889865331     0.4108083566
   10      C      -3.0753819138     2.3890515622    -0.1811762570
   11      C       1.2974832873     1.3353010993     0.0090652739
   12      C       2.4767695432     1.2781303524     1.0161374207
   13      C       2.8915385903    -0.2172848862     0.9173849537
   14      C       1.8519699680    -0.7731949589    -0.0986244443
   15      O       1.6700160347     0.3577778690    -0.9743304691
   16      H      -0.0831646775     1.0241501091     1.7073766338
   17      H       0.6419774069    -1.2139136272     1.6806577550
   18      H      -2.5517142264    -3.5528648682     0.3411251704
   19      H      -3.7666742121     1.5482025120    -0.2856371948
   20      H       3.2797847545     1.9370175124     0.6734181748
   21      H       2.1909406593     1.5981415755     2.0231375250
   22      H       3.8924912686    -0.3154362577     0.4889236728
   23      H       2.8867580152    -0.7469720737     1.8759184938
   24      H      -3.5841828173    -2.3228167539     1.1469783529
   25      H      -3.1031458184    -2.1274572664    -0.5744161835
   26      H      -2.8346955837     2.7721709819    -1.1770306888
   27      H      -3.5115583097     3.1736873400     0.4385150060
   28      C       2.3190416764    -1.9821706128    -0.8832919758
   29      H       3.3406251787    -1.8094891089    -1.2395244182
   30      H       2.3130755309    -2.8758887722    -0.2520131874
   31      H       1.6651361530    -2.1622016582    -1.7353612243
   32      C       1.0564152369     2.6785266015    -0.6470875166
   33      H       1.9876218134     3.0409527336    -1.0924259349
   34      H       0.3096665799     2.5909675744    -1.4423841800
   35      H       0.7058494828     3.4093189566     0.0882595020
 ----------------------------------------------------------------
 Molecular Point Group                 C1    NOp =  1
 Largest Abelian Subgroup              C1    NOp =  1
 Nuclear Repulsion Energy =  1399.6354917909 hartrees
 There are       65 alpha and       65 beta electrons
 Applying Cartesian multipole field
    Component          Value
    ---------          -----
     (2,0,0)        1.00000E-11
     (0,2,0)        2.00000E-11
     (0,0,2)       -3.00000E-11
 Nucleus-field energy     =     0.0000000371 hartrees
 Requested basis set is 6-31G(d)
 There are 104 shells and 291 basis functions
 A cutoff of  1.0D-12 yielded   4368 shell pairs
 There are     36648 function pairs
 Smallest overlap matrix eigenvalue = 8.73E-04
 Guess MOs from SCF MO coefficient file
 Reading MOs from coefficient file
 Reading MOs from coefficient file
 A restricted hybrid HF-DFT SCF calculation will be
 performed using Pulay DIIS extrapolation
 Exchange:     0.2000 Hartree-Fock + 0.0800 Slater + 0.7200 B88
 Correlation:  0.1900 VWN1RPA + 0.8100 LYP
 Using SG-1 standard quadrature grid
 Dispersion:   Grimme D3
 SCF converges when DIIS error is below 1.0E-08
 Geometry optimization detected.  Setting ReadMinima to 0
 Setting SaveMinima to 0
 using 24 threads for integral computing 
 -------------------------------------------------------
 OpenMP BLAS3 based DFT computing Module                
 Release: version 1.0, May 2013, Q-Chem Inc. Pittsburgh 
 -------------------------------------------------------
 ---------------------------------------
  Cycle       Energy         DIIS Error
 ---------------------------------------
    1    -844.2857551170      6.86E-04
    2    -844.2846352064      7.93E-05
    3    -844.2845916247      1.18E-04
    4    -844.2847095173      2.75E-05
    5    -844.2847142868      1.25E-05
    6    -844.2847155195      3.37E-06
    7    -844.2847155915      1.56E-06
    8    -844.2847156115      3.48E-07
    9    -844.2847156123      1.65E-07
   10    -844.2847156125      3.98E-08
   11    -844.2847156125      1.24E-08
   12    -844.2847156125      3.15E-09 Convergence criterion met
 ---------------------------------------
 SCF time:  CPU 259.96 s  wall 13.10 s
 SCF   energy in the final basis set = -844.2847156125
 Total energy in the final basis set = -844.2847156125
 
 --------------------------------------------------------------
 
                    Orbital Energies (a.u.)
 --------------------------------------------------------------
 
 Alpha MOs
 -- Occupied --
-19.196 -19.183 -19.141 -19.137 -19.128 -10.314 -10.308 -10.248
-10.243 -10.241 -10.233 -10.209 -10.208 -10.188 -10.185 -10.180
-10.164  -1.105  -1.093  -1.046  -1.016  -1.007  -0.820  -0.793
 -0.772  -0.739  -0.716  -0.711  -0.661  -0.633  -0.591  -0.570
 -0.553  -0.542  -0.515  -0.497  -0.489  -0.480  -0.476  -0.470
 -0.460  -0.459  -0.445  -0.430  -0.424  -0.411  -0.409  -0.402
 -0.396  -0.387  -0.378  -0.362  -0.359  -0.354  -0.348  -0.344
 -0.342  -0.337  -0.319  -0.312  -0.305  -0.294  -0.274  -0.259
 -0.255
 -- Virtual --
  0.001   0.026   0.069   0.088   0.103   0.109   0.125   0.131
  0.134   0.144   0.145   0.146   0.156   0.158   0.160   0.164
  0.166   0.174   0.179   0.181   0.191   0.203   0.205   0.219
  0.224   0.231   0.236   0.247   0.255   0.269   0.284   0.304
  0.308   0.328   0.338   0.374   0.392   0.408   0.487   0.497
  0.513   0.514   0.531   0.543   0.544   0.553   0.564   0.564
  0.579   0.581   0.584   0.588   0.598   0.610   0.631   0.643
  0.654   0.661   0.673   0.692   0.710   0.723   0.736   0.745
  0.752   0.768   0.777   0.797   0.810   0.824   0.828   0.832
  0.837   0.849   0.857   0.860   0.865   0.869   0.875   0.885
  0.891   0.903   0.909   0.915   0.932   0.934   0.943   0.946
  0.951   0.955   0.967   0.980   0.990   1.009   1.013   1.020
  1.033   1.051   1.065   1.090   1.099   1.115   1.161   1.184
  1.219   1.237   1.250   1.260   1.278   1.312   1.331   1.344
  1.376   1.395   1.404   1.408   1.434   1.457   1.488   1.509
  1.524   1.545   1.575   1.593   1.606   1.638   1.647   1.667
  1.695   1.713   1.726   1.736   1.762   1.764   1.781   1.796
  1.814   1.818   1.837   1.853   1.867   1.883   1.913   1.920
  1.941   1.949   1.958   1.970   1.980   2.004   2.009   2.025
  2.034   2.040   2.058   2.069   2.079   2.088   2.094   2.113
  2.121   2.128   2.143   2.161   2.183   2.196   2.201   2.227
  2.260   2.267   2.290   2.296   2.298   2.305   2.311   2.337
  2.353   2.361   2.382   2.397   2.445   2.464   2.475   2.508
  2.518   2.567   2.569   2.596   2.631   2.654   2.661   2.673
  2.709   2.728   2.755   2.768   2.797   2.821   2.843   2.869
  2.888   2.973   2.987   3.014   3.060   3.089   3.115   3.169
  3.194   3.992   4.030   4.127   4.150   4.225   4.247   4.266
  4.282   4.317   4.352   4.443   4.550   4.601   4.631   4.745
  4.779   5.022
 --------------------------------------------------------------
 
          Ground-State Mulliken Net Atomic Charges

     Atom                 Charge (a.u.)
  ----------------------------------------
      1 C                    -0.187558
      2 C                    -0.197915
      3 C                     0.636809
      4 C                     0.644086
      5 O                    -0.459539
      6 O                    -0.483242
      7 O                    -0.467362
      8 O                    -0.479265
      9 C                    -0.219821
     10 C                    -0.220173
     11 C                     0.308434
     12 C                    -0.289574
     13 C                    -0.290563
     14 C                     0.318342
     15 O                    -0.503944
     16 H                     0.158239
     17 H                     0.163971
     18 H                     0.166870
     19 H                     0.171202
     20 H                     0.147854
     21 H                     0.136987
     22 H                     0.147789
     23 H                     0.134709
     24 H                     0.156786
     25 H                     0.180568
     26 H                     0.171243
     27 H                     0.164648
     28 C                    -0.480017
     29 H                     0.138487
     30 H                     0.140766
     31 H                     0.200724
     32 C                    -0.494243
     33 H                     0.158889
     34 H                     0.171790
     35 H                     0.154025
  ----------------------------------------
  Sum of atomic charges =     0.000000

 -----------------------------------------------------------------
                    Cartesian Multipole Moments
 -----------------------------------------------------------------
    Charge (ESU x 10^10)
                -0.0000
    Dipole Moment (Debye)
         X      -0.8188      Y       1.9269      Z       3.2571
       Tot       3.8720
    Quadrupole Moments (Debye-Ang)
        XX     -87.5179     XY      -1.2680     YY     -95.1429
        XZ       1.2393     YZ      -4.6246     ZZ    -104.7862
    Octopole Moments (Debye-Ang^2)
       XXX     -60.1180    XXY       0.7410    XYY     -25.6524
       YYY      12.8558    XXZ       0.1556    XYZ       5.1151
       YYZ       2.3209    XZZ      -3.7312    YZZ       1.9023
       ZZZ      -2.6584
    Hexadecapole Moments (Debye-Ang^3)
      XXXX   -2206.4721   XXXY     -11.3377   XXYY    -615.8059
      XYYY      -5.0332   YYYY   -1885.6139   XXXZ     -26.6589
      XXYZ     -10.4115   XYYZ      -7.3513   YYYZ     -43.3585
      XXZZ    -487.5659   XYZZ      -6.9644   YYZZ    -401.0284
      XZZZ      -9.2833   YZZZ      -1.0904   ZZZZ    -459.9066
 -----------------------------------------------------------------
 Calculating analytic gradient of the SCF energy
 Gradient of SCF Energy
            1           2           3           4           5           6
    1   0.0034565  -0.0030797   0.0001971  -0.0006186  -0.0006359   0.0005457
    2   0.0017805  -0.0011838  -0.0000726   0.0026218  -0.0004578   0.0002902
    3  -0.0041331   0.0069660  -0.0023859  -0.0050125  -0.0001119   0.0023570
            7           8           9          10          11          12
    1   0.0002005   0.0015485   0.0005448   0.0003399  -0.0021656  -0.0003143
    2  -0.0016300   0.0005468  -0.0001337  -0.0004430   0.0006895   0.0015052
    3   0.0009523   0.0014904   0.0001005  -0.0001454   0.0025671   0.0006120
           13          14          15          16          17          18
    1   0.0003578  -0.0008522   0.0011262  -0.0008939   0.0013047   0.0000407
    2  -0.0014688  -0.0001416  -0.0005255  -0.0003729  -0.0009436   0.0001191
    3   0.0006475  -0.0014411  -0.0027967  -0.0001129  -0.0009616  -0.0000250
           19          20          21          22          23          24
    1   0.0000644  -0.0003298   0.0003350  -0.0005093   0.0006931   0.0000114
    2   0.0000476  -0.0001475   0.0005257   0.0000515  -0.0003217   0.0003224
    3  -0.0000053  -0.0000265   0.0001864  -0.0001686   0.0001799   0.0003018
           25          26          27          28          29          30
    1   0.0000816  -0.0000535   0.0001000  -0.0012854   0.0001353  -0.0003525
    2  -0.0001674  -0.0000377   0.0001275  -0.0013579   0.0002995   0.0002919
    3   0.0000820   0.0001017   0.0003150   0.0013435  -0.0001321  -0.0000991
           31          32          33          34          35
    1  -0.0000465  -0.0000508   0.0000672  -0.0000094   0.0000470
    2   0.0004716   0.0000950  -0.0002709   0.0001325  -0.0002420
    3  -0.0006950   0.0002556  -0.0000075  -0.0002861   0.0000878
 Max gradient component =       6.966E-03
 RMS gradient           =       1.338E-03
 Gradient time:  CPU 108.11 s  wall 6.19 s
 Geometry Optimization Parameters
   NAtoms,    NIC,     NZ,  NCons,   NDum,   NFix, NCnnct, MaxDiis
       35     275       0       2       0       0       0       0

 Cartesian Hessian Update
 Hessian Updated using BFGS Update


** CONSTRAINED OPTIMIZATION IN DELOCALIZED INTERNAL COORDINATES **
   Searching for a Minimum

   Optimization Cycle:   3

                       Coordinates (Angstroms)
     ATOM                X               Y               Z
      1  C         0.0605658668    0.6583142194    0.6891387503
      2  C         0.4828093940   -0.8498630485    0.6614405829
      3  C        -1.2028503771    0.9657803573   -0.0857990921
      4  C        -0.5778377775   -1.7680744135    0.0692891284
      5  O        -1.8819283892    1.9761970226    0.5041348120
      6  O        -1.5627434953    0.4340706402   -1.1118250573
      7  O        -1.6673371838   -1.7370122752    0.8810531417
      8  O        -0.4889120367   -2.4949189713   -0.8895926522
      9  C        -2.7958162484   -2.4889865331    0.4108083566
     10  C        -3.0753819138    2.3890515622   -0.1811762570
     11  C         1.2974832873    1.3353010993    0.0090652739
     12  C         2.4767695432    1.2781303524    1.0161374207
     13  C         2.8915385903   -0.2172848862    0.9173849537
     14  C         1.8519699680   -0.7731949589   -0.0986244443
     15  O         1.6700160347    0.3577778690   -0.9743304691
     16  H        -0.0831646775    1.0241501091    1.7073766338
     17  H         0.6419774069   -1.2139136272    1.6806577550
     18  H        -2.5517142264   -3.5528648682    0.3411251704
     19  H        -3.7666742121    1.5482025120   -0.2856371948
     20  H         3.2797847545    1.9370175124    0.6734181748
     21  H         2.1909406593    1.5981415755    2.0231375250
     22  H         3.8924912686   -0.3154362577    0.4889236728
     23  H         2.8867580152   -0.7469720737    1.8759184938
     24  H        -3.5841828173   -2.3228167539    1.1469783529
     25  H        -3.1031458184   -2.1274572664   -0.5744161835
     26  H        -2.8346955837    2.7721709819   -1.1770306888
     27  H        -3.5115583097    3.1736873400    0.4385150060
     28  C         2.3190416764   -1.9821706128   -0.8832919758
     29  H         3.3406251787   -1.8094891089   -1.2395244182
     30  H         2.3130755309   -2.8758887722   -0.2520131874
     31  H         1.6651361530   -2.1622016582   -1.7353612243
     32  C         1.0564152369    2.6785266015   -0.6470875166
     33  H         1.9876218134    3.0409527336   -1.0924259349
     34  H         0.3096665799    2.5909675744   -1.4423841800
     35  H         0.7058494828    3.4093189566    0.0882595020
   Point Group: c1    Number of degrees of freedom:    99


   Energy is   -844.284715613

              Constraints and their Current Values
                                        Value     Constraint
   Dihedral:        2   1   3   5      147.300      147.300
   Dihedral:        1   2   4   7      -64.600      -64.600
 Hessian Updated using BFGS Update

   Using Lagrange Multiplier Algorithm


 86 Hessian modes will be used to form the next step
  Hessian Eigenvalues:
    -0.975906    0.029435    0.045000    0.045017    0.045070    0.045242
     0.045658    0.048513    0.057620    0.062509    0.064940    0.069864
     0.071109    0.072298    0.074425    0.075607    0.078247    0.079928
     0.081291    0.081728    0.082552    0.083428    0.083618    0.083891
     0.084798    0.090187    0.091666    0.092767    0.106453    0.109351
     0.113141    0.113879    0.116908    0.117001    0.120563    0.131313
     0.132707    0.139615    0.146539    0.157024    0.160664    0.164103
     0.170318    0.188013    0.240847    0.246572    0.249764    0.249981
     0.250131    0.251936    0.260499    0.270096    0.274487    0.284617
     0.290265    0.306318    0.307212    0.309093    0.315534    0.327502
     0.338445    0.338937    0.341020    0.341073    0.341303    0.341546
     0.342428    0.342641    0.342740    0.342840    0.342921    0.343251
     0.343438    0.343663    0.343720    0.343755    0.344090    0.344598
     0.348027    0.410097    0.412183    0.510432    0.515639    0.950907
     0.970089    1.026469

 Minimum Search - Taking P-RFO Step
 Searching for Lamda that Maximizes Along the Constraint modes Only
 Value Taken    Lamda =   0.00000124
 Searching for Lamda that Minimizes Along All other modes
 Value Taken    Lamda =  -0.00049337
 Step Taken.  Stepsize is  0.105413

                             Maximum     Tolerance    Cnvgd?
         Gradient            0.002494       0.000005      NO
         Displacement        0.039654       0.000005      NO
         Energy change     -0.000863       0.000000      NO


 New Cartesian Coordinates Obtained by Inverse Iteration

 Displacement from previous Coordinates is:  0.274524
 ----------------------------------------------------------------
             Standard Nuclear Orientation (Angstroms)
    I     Atom           X                Y                Z
 ----------------------------------------------------------------
    1      C       0.0593912034     0.6453254490     0.6922922628
    2      C       0.4893196099    -0.8622928061     0.6597460901
    3      C      -1.2061791435     0.9563688855    -0.0796749982
    4      C      -0.5792625622    -1.7797372814     0.0728975267
    5      O      -1.8834027309     1.9624558077     0.5181333166
    6      O      -1.5654005416     0.4368726635    -1.1137288075
    7      O      -1.6605419192    -1.7502419470     0.8944856232
    8      O      -0.5132699911    -2.4903822841    -0.9002524827
    9      C      -2.8078572291    -2.4656472751     0.4074512061
   10      C      -3.0718553489     2.3903254013    -0.1700216706
   11      C       1.2965743397     1.3271266344     0.0025041731
   12      C       2.4732355036     1.2785872066     1.0127138722
   13      C       2.8954709762    -0.2111946548     0.9211858462
   14      C       1.8645408044    -0.7772619796    -0.0968922790
   15      O       1.6694585725     0.3488045015    -0.9729035216
   16      H      -0.0797280036     1.0143139886     1.7096725334
   17      H       0.6401877017    -1.2175658739     1.6833242741
   18      H      -2.5821923865    -3.5301556803     0.2961553091
   19      H      -3.7641893636     1.5525057938    -0.2914456997
   20      H       3.2728819692     1.9435230986     0.6717969679
   21      H       2.1777782683     1.5975923372     2.0164341131
   22      H       3.8999229348    -0.3073959572     0.4984902650
   23      H       2.8848651901    -0.7379910256     1.8803241704
   24      H      -3.5883923684    -2.3120438766     1.1534041367
   25      H      -3.1110013211    -2.0644662797    -0.5639149029
   26      H      -2.8207390066     2.7797246485    -1.1610215072
   27      H      -3.5082378837     3.1698001136     0.4545590117
   28      C       2.3488164492    -1.9807162884    -0.8814094550
   29      H       3.3685302223    -1.7968271905    -1.2354835485
   30      H       2.3552283517    -2.8734211027    -0.2474288150
   31      H       1.6916773357    -2.1752089082    -1.7261865941
   32      C       1.0421152408     2.6649066002    -0.6612386371
   33      H       1.9678836386     3.0350660464    -1.1112955224
   34      H       0.2914013978     2.5603187028    -1.4496842703
   35      H       0.6855634636     3.3981454656     0.0692542438
 ----------------------------------------------------------------
 Molecular Point Group                 C1    NOp =  1
 Largest Abelian Subgroup              C1    NOp =  1
 Nuclear Repulsion Energy =  1399.0925157381 hartrees
 There are       65 alpha and       65 beta electrons
 Applying Cartesian multipole field
    Component          Value
    ---------          -----
     (2,0,0)        1.00000E-11
     (0,2,0)        2.00000E-11
     (0,0,2)       -3.00000E-11
 Nucleus-field energy     =     0.0000000370 hartrees
 Requested basis set is 6-31G(d)
 There are 104 shells and 291 basis functions
 A cutoff of  1.0D-12 yielded   4368 shell pairs
 There are     36645 function pairs
 Smallest overlap matrix eigenvalue = 8.80E-04
 Guess MOs from SCF MO coefficient file
 Reading MOs from coefficient file
 Reading MOs from coefficient file
 A restricted hybrid HF-DFT SCF calculation will be
 performed using Pulay DIIS extrapolation
 Exchange:     0.2000 Hartree-Fock + 0.0800 Slater + 0.7200 B88
 Correlation:  0.1900 VWN1RPA + 0.8100 LYP
 Using SG-1 standard quadrature grid
 Dispersion:   Grimme D3
 SCF converges when DIIS error is below 1.0E-08
 Geometry optimization detected.  Setting ReadMinima to 0
 Setting SaveMinima to 0
 using 24 threads for integral computing 
 -------------------------------------------------------
 OpenMP BLAS3 based DFT computing Module                
 Release: version 1.0, May 2013, Q-Chem Inc. Pittsburgh 
 -------------------------------------------------------
 ---------------------------------------
  Cycle       Energy         DIIS Error
 ---------------------------------------
    1    -844.2786136619      5.50E-04
    2    -844.2849085583      6.24E-05
    3    -844.2848919620      8.47E-05
    4    -844.2849565827      2.24E-05
    5    -844.2849599847      8.86E-06
    6    -844.2849605625      3.10E-06
    7    -844.2849606321      1.11E-06
    8    -844.2849606417      3.09E-07
    9    -844.2849606424      1.26E-07
   10    -844.2849606426      3.88E-08
   11    -844.2849606425      7.96E-09 Convergence criterion met
 ---------------------------------------
 SCF time:  CPU 243.04 s  wall 12.18 s
 SCF   energy in the final basis set = -844.2849606425
 Total energy in the final basis set = -844.2849606425
 
 --------------------------------------------------------------
 
                    Orbital Energies (a.u.)
 --------------------------------------------------------------
 
 Alpha MOs
 -- Occupied --
-19.196 -19.183 -19.141 -19.136 -19.128 -10.314 -10.309 -10.248
-10.243 -10.242 -10.232 -10.209 -10.208 -10.188 -10.185 -10.180
-10.165  -1.105  -1.093  -1.048  -1.015  -1.006  -0.819  -0.793
 -0.773  -0.739  -0.716  -0.711  -0.661  -0.634  -0.590  -0.571
 -0.553  -0.541  -0.515  -0.497  -0.489  -0.480  -0.476  -0.470
 -0.460  -0.458  -0.445  -0.430  -0.424  -0.411  -0.410  -0.403
 -0.396  -0.387  -0.378  -0.362  -0.359  -0.355  -0.348  -0.344
 -0.342  -0.337  -0.319  -0.312  -0.304  -0.294  -0.274  -0.259
 -0.255
 -- Virtual --
  0.001   0.026   0.068   0.088   0.103   0.109   0.125   0.131
  0.133   0.144   0.145   0.146   0.156   0.158   0.160   0.165
  0.166   0.173   0.179   0.181   0.191   0.202   0.205   0.220
  0.224   0.231   0.236   0.248   0.255   0.268   0.283   0.305
  0.308   0.326   0.338   0.373   0.392   0.407   0.487   0.496
  0.513   0.514   0.531   0.542   0.544   0.553   0.563   0.564
  0.579   0.580   0.584   0.587   0.597   0.610   0.631   0.642
  0.653   0.661   0.672   0.691   0.712   0.724   0.734   0.746
  0.751   0.767   0.777   0.799   0.809   0.824   0.828   0.831
  0.837   0.849   0.856   0.859   0.864   0.869   0.877   0.885
  0.891   0.904   0.909   0.916   0.932   0.934   0.943   0.948
  0.952   0.954   0.967   0.979   0.990   1.007   1.014   1.021
  1.035   1.050   1.065   1.091   1.099   1.116   1.162   1.183
  1.218   1.237   1.246   1.259   1.278   1.312   1.330   1.342
  1.375   1.394   1.401   1.408   1.432   1.458   1.487   1.505
  1.524   1.545   1.573   1.592   1.605   1.640   1.645   1.668
  1.695   1.712   1.727   1.736   1.761   1.766   1.783   1.796
  1.814   1.817   1.836   1.851   1.866   1.883   1.916   1.920
  1.938   1.948   1.958   1.969   1.978   2.004   2.007   2.024
  2.034   2.040   2.058   2.070   2.077   2.090   2.093   2.113
  2.122   2.129   2.140   2.162   2.184   2.195   2.202   2.227
  2.260   2.266   2.289   2.295   2.297   2.305   2.310   2.337
  2.351   2.361   2.382   2.397   2.445   2.465   2.476   2.506
  2.518   2.566   2.568   2.593   2.632   2.653   2.659   2.674
  2.707   2.727   2.753   2.768   2.798   2.820   2.842   2.866
  2.887   2.971   2.986   3.010   3.058   3.087   3.114   3.167
  3.192   3.991   4.028   4.127   4.150   4.225   4.245   4.267
  4.283   4.318   4.354   4.442   4.544   4.601   4.623   4.744
  4.777   5.020
 --------------------------------------------------------------
 
          Ground-State Mulliken Net Atomic Charges

     Atom                 Charge (a.u.)
  ----------------------------------------
      1 C                    -0.189034
      2 C                    -0.196287
      3 C                     0.636103
      4 C                     0.641618
      5 O                    -0.459549
      6 O                    -0.484634
      7 O                    -0.466784
      8 O                    -0.479217
      9 C                    -0.220511
     10 C                    -0.220310
     11 C                     0.309367
     12 C                    -0.289555
     13 C                    -0.291168
     14 C                     0.318680
     15 O                    -0.501605
     16 H                     0.158047
     17 H                     0.162865
     18 H                     0.167710
     19 H                     0.171420
     20 H                     0.147633
     21 H                     0.137310
     22 H                     0.147710
     23 H                     0.135595
     24 H                     0.156963
     25 H                     0.181055
     26 H                     0.171379
     27 H                     0.165005
     28 C                    -0.482201
     29 H                     0.140226
     30 H                     0.140976
     31 H                     0.200702
     32 C                    -0.494960
     33 H                     0.158699
     34 H                     0.172883
     35 H                     0.153868
  ----------------------------------------
  Sum of atomic charges =    -0.000000

 -----------------------------------------------------------------
                    Cartesian Multipole Moments
 -----------------------------------------------------------------
    Charge (ESU x 10^10)
                -0.0000
    Dipole Moment (Debye)
         X      -0.7542      Y       1.9484      Z       3.2554
       Tot       3.8682
    Quadrupole Moments (Debye-Ang)
        XX     -87.3119     XY      -1.4586     YY     -95.1841
        XZ       1.1429     YZ      -4.5821     ZZ    -104.9415
    Octopole Moments (Debye-Ang^2)
       XXX     -59.7073    XXY       0.8582    XYY     -25.2372
       YYY      14.1130    XXZ       0.0648    XYZ       5.0260
       YYZ       2.0732    XZZ      -3.4825    YZZ       2.3927
       ZZZ      -2.7938
    Hexadecapole Moments (Debye-Ang^3)
      XXXX   -2212.4123   XXXY      -9.5892   XXYY    -615.6680
      XYYY      -4.8862   YYYY   -1875.8583   XXXZ     -26.3215
      XXYZ     -10.1706   XYYZ      -7.3750   YYYZ     -42.1410
      XXZZ    -489.5166   XYZZ      -6.4332   YYZZ    -400.6055
      XZZZ      -8.0690   YZZZ      -1.2903   ZZZZ    -462.3372
 -----------------------------------------------------------------
 Calculating analytic gradient of the SCF energy
 Gradient of SCF Energy
            1           2           3           4           5           6
    1   0.0021943  -0.0020328  -0.0001039  -0.0013477   0.0003782  -0.0000530
    2   0.0010733  -0.0007689   0.0008273   0.0014222  -0.0011429  -0.0000642
    3  -0.0012382   0.0052722  -0.0009953  -0.0031130  -0.0002335   0.0004919
            7           8           9          10          11          12
    1   0.0012553  -0.0011193  -0.0008042  -0.0007354   0.0003766  -0.0001730
    2  -0.0017172   0.0002147   0.0001576   0.0008588   0.0004727  -0.0005477
    3   0.0004092   0.0012813   0.0007594   0.0005236   0.0004542   0.0009795
           13          14          15          16          17          18
    1  -0.0001822   0.0013193  -0.0003506  -0.0008720   0.0003886   0.0001973
    2  -0.0003405   0.0005721  -0.0002932   0.0001241  -0.0001949   0.0000376
    3   0.0011576  -0.0016439  -0.0005180  -0.0003339  -0.0006071  -0.0003468
           19          20          21          22          23          24
    1   0.0002488  -0.0001850  -0.0000013  -0.0000996   0.0003307   0.0002004
    2  -0.0001355   0.0001040   0.0001149   0.0000417  -0.0001052   0.0000820
    3  -0.0003674  -0.0002936  -0.0002456  -0.0004743  -0.0002528  -0.0000723
           25          26          27          28          29          30
    1   0.0003090   0.0000241   0.0002321   0.0006042   0.0003498  -0.0004686
    2  -0.0002697  -0.0004115  -0.0001375  -0.0003829   0.0001081  -0.0000404
    3  -0.0002203  -0.0001285   0.0000450  -0.0013357   0.0006604  -0.0002611
           31          32          33          34          35
    1   0.0003530  -0.0001409   0.0000903  -0.0001207  -0.0000621
    2   0.0002711   0.0002599  -0.0000806  -0.0001433   0.0000340
    3   0.0007137  -0.0007399   0.0002657   0.0003828   0.0000247
 Max gradient component =       5.272E-03
 RMS gradient           =       8.932E-04
 Gradient time:  CPU 109.03 s  wall 6.13 s
 Geometry Optimization Parameters
   NAtoms,    NIC,     NZ,  NCons,   NDum,   NFix, NCnnct, MaxDiis
       35     275       0       2       0       0       0       0

 Cartesian Hessian Update
 Hessian Updated using BFGS Update


** CONSTRAINED OPTIMIZATION IN DELOCALIZED INTERNAL COORDINATES **
   Searching for a Minimum

   Optimization Cycle:   4

                       Coordinates (Angstroms)
     ATOM                X               Y               Z
      1  C         0.0593912034    0.6453254490    0.6922922628
      2  C         0.4893196099   -0.8622928061    0.6597460901
      3  C        -1.2061791435    0.9563688855   -0.0796749982
      4  C        -0.5792625622   -1.7797372814    0.0728975267
      5  O        -1.8834027309    1.9624558077    0.5181333166
      6  O        -1.5654005416    0.4368726635   -1.1137288075
      7  O        -1.6605419192   -1.7502419470    0.8944856232
      8  O        -0.5132699911   -2.4903822841   -0.9002524827
      9  C        -2.8078572291   -2.4656472751    0.4074512061
     10  C        -3.0718553489    2.3903254013   -0.1700216706
     11  C         1.2965743397    1.3271266344    0.0025041731
     12  C         2.4732355036    1.2785872066    1.0127138722
     13  C         2.8954709762   -0.2111946548    0.9211858462
     14  C         1.8645408044   -0.7772619796   -0.0968922790
     15  O         1.6694585725    0.3488045015   -0.9729035216
     16  H        -0.0797280036    1.0143139886    1.7096725334
     17  H         0.6401877017   -1.2175658739    1.6833242741
     18  H        -2.5821923865   -3.5301556803    0.2961553091
     19  H        -3.7641893636    1.5525057938   -0.2914456997
     20  H         3.2728819692    1.9435230986    0.6717969679
     21  H         2.1777782683    1.5975923372    2.0164341131
     22  H         3.8999229348   -0.3073959572    0.4984902650
     23  H         2.8848651901   -0.7379910256    1.8803241704
     24  H        -3.5883923684   -2.3120438766    1.1534041367
     25  H        -3.1110013211   -2.0644662797   -0.5639149029
     26  H        -2.8207390066    2.7797246485   -1.1610215072
     27  H        -3.5082378837    3.1698001136    0.4545590117
     28  C         2.3488164492   -1.9807162884   -0.8814094550
     29  H         3.3685302223   -1.7968271905   -1.2354835485
     30  H         2.3552283517   -2.8734211027   -0.2474288150
     31  H         1.6916773357   -2.1752089082   -1.7261865941
     32  C         1.0421152408    2.6649066002   -0.6612386371
     33  H         1.9678836386    3.0350660464   -1.1112955224
     34  H         0.2914013978    2.5603187028   -1.4496842703
     35  H         0.6855634636    3.3981454656    0.0692542438
   Point Group: c1    Number of degrees of freedom:    99


   Energy is   -844.284960643

              Constraints and their Current Values
                                        Value     Constraint
   Dihedral:        2   1   3   5      147.300      147.300
   Dihedral:        1   2   4   7      -64.600      -64.600
 Hessian Updated using BFGS Update

 87 Hessian modes will be used to form the next step
  Hessian Eigenvalues:
     0.021976    0.045000    0.045006    0.045047    0.045206    0.045249
     0.045965    0.048501    0.057788    0.062160    0.066062    0.069874
     0.071863    0.072146    0.075334    0.075796    0.078299    0.080359
     0.081358    0.081779    0.082716    0.083421    0.083640    0.083889
     0.084914    0.090624    0.091952    0.092464    0.107198    0.110524
     0.113878    0.114370    0.116910    0.117002    0.120733    0.131120
     0.131589    0.139551    0.146192    0.158626    0.160080    0.160296
     0.163730    0.173508    0.189402    0.238646    0.248911    0.249865
     0.249970    0.249987    0.250065    0.255205    0.260556    0.269627
     0.275376    0.285353    0.295840    0.306380    0.307360    0.309205
     0.324622    0.337029    0.338724    0.339829    0.340646    0.341076
     0.341331    0.341566    0.341641    0.342470    0.342763    0.342775
     0.342887    0.342943    0.343451    0.343622    0.343690    0.343932
     0.344112    0.345727    0.398053    0.412027    0.417937    0.513589
     0.515231    0.953012    0.961400

 Minimum Search - Taking Simple RFO Step
 Searching for Lamda that Minimizes Along All modes
 Value Taken    Lamda =  -0.00015042
 Step Taken.  Stepsize is  0.051419

                             Maximum     Tolerance    Cnvgd?
         Gradient           0.002200      0.000005      NO
         Displacement       0.015819      0.000005      NO
         Energy change     -0.000245      0.000000      NO


 New Cartesian Coordinates Obtained by Inverse Iteration

 Displacement from previous Coordinates is:  0.164383
 ----------------------------------------------------------------
             Standard Nuclear Orientation (Angstroms)
    I     Atom           X                Y                Z
 ----------------------------------------------------------------
    1      C       0.0580160193     0.6426522345     0.6943960222
    2      C       0.4912112427    -0.8636548936     0.6628283824
    3      C      -1.2103609920     0.9570697600    -0.0711731490
    4      C      -0.5719050018    -1.7845088720     0.0748714231
    5      O      -1.8832840628     1.9643597210     0.5310696923
    6      O      -1.5728092650     0.4443220190    -1.1079993942
    7      O      -1.6572610937    -1.7610289809     0.8917885638
    8      O      -0.4993879442    -2.4890962111    -0.9030102350
    9      C      -2.8032383110    -2.4690453172     0.3896044970
   10      C      -3.0694281422     2.3998999876    -0.1565927406
   11      C       1.2939480255     1.3239727075    -0.0031515464
   12      C       2.4728512824     1.2830629356     1.0043889756
   13      C       2.8956953427    -0.2056353251     0.9214697762
   14      C       1.8644483356    -0.7793816362    -0.0911473157
   15      O       1.6654629009     0.3414953327    -0.9726132969
   16      H      -0.0743361249     1.0128989789     1.7123962925
   17      H       0.6386443823    -1.2125921832     1.6898932146
   18      H      -2.5801649755    -3.5327523539     0.2662708060
   19      H      -3.7668960133     1.5666304921    -0.2802938912
   20      H       3.2722399180     1.9473731345     0.6613849391
   21      H       2.1768623521     1.6051409304     2.0071649931
   22      H       3.9012217481    -0.3048233721     0.5019707711
   23      H       2.8826276345    -0.7254571522     1.8845194734
   24      H      -3.5871094900    -2.3244302241     1.1339574167
   25      H      -3.1028690478    -2.0534815501    -0.5768695813
   26      H      -2.8166708269     2.7934849952    -1.1456136139
   27      H      -3.5029238914     3.1791945646     0.4703302256
   28      C       2.3472675955    -1.9871016737    -0.8692407406
   29      H       3.3638202296    -1.8053485112    -1.2324387034
   30      H       2.3609228435    -2.8743992008    -0.2272574042
   31      H       1.6852430483    -2.1920522389    -1.7087818776
   32      C       1.0362978857     2.6585952576    -0.6717244316
   33      H       1.9598144783     3.0291192480    -1.1262363444
   34      H       0.2840876432     2.5502516688    -1.4584023093
   35      H       0.6805556480     3.3944786621     0.0564833412
 ----------------------------------------------------------------
 Molecular Point Group                 C1    NOp =  1
 Largest Abelian Subgroup              C1    NOp =  1
 Nuclear Repulsion Energy =  1399.1414050136 hartrees
 There are       65 alpha and       65 beta electrons
 Applying Cartesian multipole field
    Component          Value
    ---------          -----
     (2,0,0)        1.00000E-11
     (0,2,0)        2.00000E-11
     (0,0,2)       -3.00000E-11
 Nucleus-field energy     =     0.0000000371 hartrees
 Requested basis set is 6-31G(d)
 There are 104 shells and 291 basis functions
 A cutoff of  1.0D-12 yielded   4370 shell pairs
 There are     36655 function pairs
 Smallest overlap matrix eigenvalue = 8.76E-04
 Guess MOs from SCF MO coefficient file
 Reading MOs from coefficient file
 Reading MOs from coefficient file
 A restricted hybrid HF-DFT SCF calculation will be
 performed using Pulay DIIS extrapolation
 Exchange:     0.2000 Hartree-Fock + 0.0800 Slater + 0.7200 B88
 Correlation:  0.1900 VWN1RPA + 0.8100 LYP
 Using SG-1 standard quadrature grid
 Dispersion:   Grimme D3
 SCF converges when DIIS error is below 1.0E-08
 Geometry optimization detected.  Setting ReadMinima to 0
 Setting SaveMinima to 0
 using 24 threads for integral computing 
 -------------------------------------------------------
 OpenMP BLAS3 based DFT computing Module                
 Release: version 1.0, May 2013, Q-Chem Inc. Pittsburgh 
 -------------------------------------------------------
 ---------------------------------------
  Cycle       Energy         DIIS Error
 ---------------------------------------
    1    -844.2847733683      2.30E-04
    2    -844.2850502841      2.26E-05
    3    -844.2850507414      2.48E-05
    4    -844.2850568500      3.89E-06
[...]
     15 O                    -0.500962
     16 H                     0.157498
     17 H                     0.162975
     18 H                     0.168914
     19 H                     0.170604
     20 H                     0.147766
     21 H                     0.136809
     22 H                     0.148173
     23 H                     0.135355
     24 H                     0.156526
     25 H                     0.181682
     26 H                     0.171484
     27 H                     0.164743
     28 C                    -0.482852
     29 H                     0.141183
     30 H                     0.140067
     31 H                     0.201348
     32 C                    -0.497099
     33 H                     0.158512
     34 H                     0.174509
     35 H                     0.153622
  ----------------------------------------
  Sum of atomic charges =    -0.000000

 -----------------------------------------------------------------
                    Cartesian Multipole Moments
 -----------------------------------------------------------------
    Charge (ESU x 10^10)
                -0.0000
    Dipole Moment (Debye)
         X      -0.9105      Y       2.0331      Z       3.1699
       Tot       3.8744
    Quadrupole Moments (Debye-Ang)
        XX     -87.0474     XY      -0.8143     YY     -96.1288
        XZ       1.5487     YZ      -4.6063     ZZ    -104.6220
    Octopole Moments (Debye-Ang^2)
       XXX     -58.6816    XXY      -0.1867    XYY     -24.9960
       YYY      10.6793    XXZ       0.2395    XYZ       4.2805
       YYZ       3.1832    XZZ      -3.1341    YZZ       1.0164
       ZZZ      -0.1177
    Hexadecapole Moments (Debye-Ang^3)
      XXXX   -2218.8855   XXXY     -24.8055   XXYY    -618.6035
      XYYY       1.7012   YYYY   -1871.3766   XXXZ     -22.1832
      XXYZ      -6.9521   XYYZ      -5.0128   YYYZ     -30.8005
      XXZZ    -489.8199   XYZZ      -8.4008   YYZZ    -394.0856
      XZZZ      -4.8114   YZZZ      11.1792   ZZZZ    -453.2065
 -----------------------------------------------------------------
 Calculating analytic gradient of the SCF energy
 Gradient of SCF Energy
            1           2           3           4           5           6
    1   0.0000016   0.0000001   0.0000001  -0.0000030   0.0000036  -0.0000011
    2  -0.0000030  -0.0000040   0.0000030   0.0000008   0.0000006   0.0000085
    3   0.0000022  -0.0000042   0.0000061  -0.0000092   0.0000106   0.0000031
            7           8           9          10          11          12
    1  -0.0000015  -0.0000054  -0.0000033   0.0000020   0.0000010   0.0000029
    2  -0.0000018   0.0000046   0.0000032   0.0000061  -0.0000003  -0.0000072
    3  -0.0000076  -0.0000127  -0.0000100   0.0000139   0.0000052   0.0000035
           13          14          15          16          17          18
    1   0.0000007  -0.0000013  -0.0000006   0.0000033   0.0000001  -0.0000051
    2  -0.0000088  -0.0000019   0.0000036  -0.0000076  -0.0000088   0.0000024
    3  -0.0000037  -0.0000062  -0.0000001   0.0000047  -0.0000067  -0.0000154
           19          20          21          22          23          24
    1   0.0000015   0.0000037   0.0000046   0.0000000   0.0000011  -0.0000024
    2   0.0000075  -0.0000067  -0.0000121  -0.0000081  -0.0000132   0.0000002
    3   0.0000104   0.0000065   0.0000060  -0.0000054  -0.0000059  -0.0000082
           25          26          27          28          29          30
    1  -0.0000041   0.0000022   0.0000046  -0.0000034  -0.0000039  -0.0000046
    2   0.0000076   0.0000108   0.0000038   0.0000004   0.0000011  -0.0000029
    3  -0.0000078   0.0000157   0.0000183  -0.0000122  -0.0000122  -0.0000170
           31          32          33          34          35
    1  -0.0000054   0.0000028   0.0000028   0.0000017   0.0000048
    2   0.0000061   0.0000031   0.0000042   0.0000083   0.0000005
    3  -0.0000134   0.0000116   0.0000126   0.0000116   0.0000159
 Max gradient component =       1.831E-05
 RMS gradient           =       7.029E-06
 Gradient time:  CPU 125.03 s  wall 6.40 s
 Geometry Optimization Parameters
   NAtoms,    NIC,     NZ,  NCons,   NDum,   NFix, NCnnct, MaxDiis
       35     275       0       0       0       0       0       0

 Cartesian Hessian Update
 Hessian Updated using BFGS Update
**WARNING** Hereditary positive definiteness endangered
**WARNING** Small Scalar Product
 Hessian Update Skipped this cycle


** GEOMETRY OPTIMIZATION IN DELOCALIZED INTERNAL COORDINATES **
   Searching for a Minimum

   Optimization Cycle:  15

                       Coordinates (Angstroms)
     ATOM                X               Y               Z
      1  C         0.0193895156    0.6584711731    0.6719917923
      2  C         0.5459195509   -0.8178649381    0.6723146045
      3  C        -1.2732544215    0.8757833291   -0.0832445718
      4  C        -0.4595794855   -1.8174994776    0.1142282601
      5  O        -2.0082763985    1.8445227266    0.5100041867
      6  O        -1.6019138308    0.3301403118   -1.1146701986
      7  O        -1.5795891156   -1.7733496607    0.8813217827
      8  O        -0.3208352137   -2.5858065634   -0.8072412723
      9  C        -2.6841576692   -2.5455003499    0.3830602347
     10  C        -3.2241278891    2.1905112574   -0.1747192105
     11  C         1.1999652018    1.3957075779   -0.0691085707
     12  C         2.3858778719    1.4834153794    0.9258855263
     13  C         2.8929237769    0.0178788300    0.9261692434
     14  C         1.9133540782   -0.6658074436   -0.0724594183
     15  O         1.6403577690    0.4030638288   -0.9988913762
     16  H        -0.1121101489    1.0483811998    1.6825409109
     17  H         0.7071653206   -1.1336532409    1.7087698971
     18  H        -2.4177262319   -3.6032213375    0.3068947053
     19  H        -3.8723397455    1.3148570218   -0.2702289839
     20  H         3.1440824141    2.1673299247    0.5324549053
     21  H         2.0843202447    1.8488464677    1.9121781258
     22  H         3.9125725884   -0.0483772201    0.5358137075
     23  H         2.8846543835   -0.4517495879    1.9149391215
     24  H        -3.4903401355   -2.4033309749    1.1042304049
     25  H        -2.9776093880   -2.1749884648   -0.6033029903
     26  H        -3.0057383732    2.5769909685   -1.1745190535
     27  H        -3.6991153223    2.9567267637    0.4388921990
     28  C         2.4922780671   -1.8617389232   -0.8008174732
     29  H         3.4740531843   -1.5962414572   -1.2062137865
     30  H         2.6146969677   -2.7052714813   -0.1131594021
     31  H         1.8356558050   -2.1765825231   -1.6099843380
     32  C         0.8437542057    2.6784933206   -0.7913391553
     33  H         1.7367587526    3.0977409826   -1.2645065258
     34  H         0.1016721472    2.4820310850   -1.5705457677
     35  H         0.4350181449    3.4152639366   -0.0923955517
   Point Group: c1    Number of degrees of freedom:    99


   Energy is   -844.285477824

 Hessian Updated using BFGS Update
**WARNING** Hereditary positive definiteness endangered
**WARNING** Small Scalar Product
 Hessian Update Skipped this cycle

 99 Hessian modes will be used to form the next step
  Hessian Eigenvalues:
     0.000564    0.002885    0.006072    0.006920    0.007290    0.010401
     0.010619    0.011894    0.018771    0.021672    0.023337    0.026977
     0.036278    0.037474    0.039053    0.040875    0.043354    0.044810
     0.046713    0.050073    0.051513    0.055238    0.055988    0.057429
     0.058309    0.058512    0.059263    0.059873    0.060696    0.064943
     0.066000    0.069162    0.084970    0.089274    0.098051    0.101396
     0.101783    0.105591    0.105860    0.110880    0.116806    0.128469
     0.130914    0.155689    0.159561    0.159672    0.159982    0.159990
     0.159998    0.160147    0.160272    0.160397    0.160481    0.160867
     0.163921    0.177699    0.199802    0.222320    0.239495    0.244142
     0.248856    0.250041    0.250690    0.253215    0.255550    0.260897
     0.272844    0.282022    0.303795    0.307184    0.312294    0.321973
     0.336734    0.341646    0.341895    0.342319    0.342618    0.342959
     0.343144    0.343385    0.343508    0.343611    0.343746    0.343869
     0.343945    0.344179    0.345292    0.346226    0.347071    0.347161
     0.347631    0.359451    0.398981    0.400521    0.424599    0.521316
     0.535018    0.982693    1.010740

 Minimum Search - Taking Simple RFO Step
 Searching for Lamda that Minimizes Along All modes
 Value Taken    Lamda =   0.00000000
 Step Taken.  Stepsize is  0.000148

                             Maximum     Tolerance    Cnvgd?
         Gradient           0.000001      0.000005     YES
         Displacement       0.000061      0.000005      NO
         Energy change     -0.000000      0.000000     YES

 Final energy is   -844.285477823624     


 ******************************
 **  OPTIMIZATION CONVERGED  **
 ******************************

                       Coordinates (Angstroms)
     ATOM                X               Y               Z
      1  C         0.0193895156    0.6584711731    0.6719917923
      2  C         0.5459195509   -0.8178649381    0.6723146045
      3  C        -1.2732544215    0.8757833291   -0.0832445718
      4  C        -0.4595794855   -1.8174994776    0.1142282601
      5  O        -2.0082763985    1.8445227266    0.5100041867
      6  O        -1.6019138308    0.3301403118   -1.1146701986
      7  O        -1.5795891156   -1.7733496607    0.8813217827
      8  O        -0.3208352137   -2.5858065634   -0.8072412723
      9  C        -2.6841576692   -2.5455003499    0.3830602347
     10  C        -3.2241278891    2.1905112574   -0.1747192105
     11  C         1.1999652018    1.3957075779   -0.0691085707
     12  C         2.3858778719    1.4834153794    0.9258855263
     13  C         2.8929237769    0.0178788300    0.9261692434
     14  C         1.9133540782   -0.6658074436   -0.0724594183
     15  O         1.6403577690    0.4030638288   -0.9988913762
     16  H        -0.1121101489    1.0483811998    1.6825409109
     17  H         0.7071653206   -1.1336532409    1.7087698971
     18  H        -2.4177262319   -3.6032213375    0.3068947053
     19  H        -3.8723397455    1.3148570218   -0.2702289839
     20  H         3.1440824141    2.1673299247    0.5324549053
     21  H         2.0843202447    1.8488464677    1.9121781258
     22  H         3.9125725884   -0.0483772201    0.5358137075
     23  H         2.8846543835   -0.4517495879    1.9149391215
     24  H        -3.4903401355   -2.4033309749    1.1042304049
     25  H        -2.9776093880   -2.1749884648   -0.6033029903
     26  H        -3.0057383732    2.5769909685   -1.1745190535
     27  H        -3.6991153223    2.9567267637    0.4388921990
     28  C         2.4922780671   -1.8617389232   -0.8008174732
     29  H         3.4740531843   -1.5962414572   -1.2062137865
     30  H         2.6146969677   -2.7052714813   -0.1131594021
     31  H         1.8356558050   -2.1765825231   -1.6099843380
     32  C         0.8437542057    2.6784933206   -0.7913391553
     33  H         1.7367587526    3.0977409826   -1.2645065258
     34  H         0.1016721472    2.4820310850   -1.5705457677
     35  H         0.4350181449    3.4152639366   -0.0923955517

Z-matrix Print:
$molecule
0 1
O 
C  1 1.429609
C  1 1.440586 2 98.934669
C  2 1.514610 1 110.511305 3 -179.540744 0
H  4 1.093822 2 110.311536 1 -55.250458 0
H  4 1.094127 2 109.803487 1 64.069381 0
H  4 1.094723 2 110.693640 1 -175.734872 0
C  3 1.515226 1 110.419569 2 176.611398 0
H  8 1.088591 3 110.800925 1 55.068996 0
H  8 1.094860 3 109.220242 1 -65.784591 0
H  8 1.095175 3 110.414135 1 174.857626 0
C  2 1.550514 1 102.769064 3 -55.190043 0
H  12 1.094189 2 112.739331 1 155.365771 0
H  12 1.094258 2 109.547658 1 -84.551421 0
C  12 1.550772 2 101.346274 1 33.183842 0
H  15 1.093824 12 111.221205 2 -116.606609 0
H  15 1.094662 12 113.774120 2 121.610110 0
C  3 1.564509 1 102.276007 2 -55.668975 0
H  18 1.095428 3 110.473674 1 147.950173 0
C  18 1.523732 3 117.786222 1 -91.793315 0
O  20 1.207747 18 128.387756 3 -4.540724 0
O  20 1.358235 18 108.419481 3 178.642904 0
C  22 1.436855 20 114.872026 18 -172.783478 0
H  23 1.090976 22 105.593335 20 179.977577 0
H  23 1.093417 22 110.896641 20 -60.160154 0
H  23 1.093757 22 109.690096 20 60.642469 0
C  18 1.567419 3 101.651896 1 32.670963 0
H  27 1.091115 18 112.140467 3 118.681011 0
C  27 1.512790 18 114.988882 3 -117.500377 0
O  29 1.212263 27 126.282239 18 37.109155 0
O  29 1.353018 27 110.373987 18 -146.642366 0
C  31 1.437654 29 115.018655 27 -176.349555 0
H  32 1.090513 31 105.632433 29 -178.732261 0
H  32 1.093650 31 110.497392 29 -58.960595 0
H  32 1.093920 31 110.578247 29 61.493358 0
$end

 
 --------------------------------------------------------------
 
                    Orbital Energies (a.u.)
 --------------------------------------------------------------
 
 Alpha MOs
 -- Occupied --
-19.196 -19.184 -19.141 -19.136 -19.130 -10.314 -10.309 -10.248
-10.243 -10.242 -10.232 -10.209 -10.209 -10.187 -10.185 -10.180
-10.165  -1.104  -1.093  -1.048  -1.014  -1.007  -0.820  -0.793
 -0.773  -0.739  -0.716  -0.711  -0.661  -0.634  -0.591  -0.572
 -0.552  -0.542  -0.515  -0.497  -0.490  -0.480  -0.477  -0.470
 -0.460  -0.459  -0.446  -0.430  -0.424  -0.411  -0.409  -0.403
 -0.396  -0.386  -0.379  -0.362  -0.359  -0.355  -0.347  -0.344
 -0.342  -0.336  -0.320  -0.313  -0.305  -0.294  -0.274  -0.260
 -0.255
 -- Virtual --
  0.000   0.026   0.068   0.088   0.103   0.109   0.125   0.131
  0.133   0.144   0.145   0.146   0.156   0.159   0.161   0.165
  0.167   0.174   0.180   0.181   0.191   0.201   0.205   0.221
  0.223   0.233   0.234   0.248   0.256   0.267   0.282   0.304
  0.307   0.327   0.338   0.375   0.392   0.408   0.487   0.496
  0.513   0.514   0.532   0.542   0.544   0.553   0.564   0.564
  0.578   0.581   0.585   0.588   0.597   0.611   0.629   0.641
  0.652   0.660   0.672   0.691   0.713   0.726   0.732   0.748
  0.752   0.769   0.777   0.802   0.809   0.824   0.829   0.830
  0.837   0.852   0.855   0.857   0.865   0.868   0.877   0.886
  0.891   0.901   0.908   0.917   0.932   0.933   0.942   0.949
  0.953   0.954   0.968   0.979   0.993   1.006   1.011   1.021
  1.037   1.051   1.067   1.086   1.103   1.119   1.170   1.184
  1.217   1.238   1.243   1.262   1.279   1.314   1.330   1.338
  1.372   1.396   1.401   1.410   1.429   1.462   1.487   1.504
  1.526   1.548   1.572   1.595   1.603   1.637   1.641   1.666
  1.695   1.713   1.730   1.738   1.759   1.768   1.788   1.796
  1.813   1.819   1.838   1.850   1.867   1.884   1.918   1.922
  1.935   1.944   1.957   1.968   1.979   1.998   2.009   2.022
  2.035   2.041   2.055   2.072   2.075   2.091   2.094   2.113
  2.122   2.128   2.131   2.162   2.188   2.194   2.205   2.226
  2.258   2.267   2.288   2.293   2.298   2.309   2.312   2.337
  2.351   2.361   2.383   2.397   2.443   2.466   2.475   2.508
  2.521   2.566   2.570   2.588   2.632   2.651   2.658   2.679
  2.707   2.727   2.753   2.767   2.799   2.820   2.843   2.867
  2.885   2.973   2.983   3.006   3.062   3.084   3.114   3.166
  3.191   3.991   4.031   4.129   4.150   4.225   4.241   4.265
  4.278   4.317   4.364   4.434   4.533   4.600   4.622   4.742
  4.780   5.015
 --------------------------------------------------------------
 
          Ground-State Mulliken Net Atomic Charges

     Atom                 Charge (a.u.)
  ----------------------------------------
      1 C                    -0.191173
      2 C                    -0.194110
      3 C                     0.641094
      4 C                     0.641363
      5 O                    -0.459878
      6 O                    -0.488191
      7 O                    -0.466670
      8 O                    -0.478856
      9 C                    -0.220898
     10 C                    -0.220305
     11 C                     0.309589
     12 C                    -0.286810
     13 C                    -0.294314
     14 C                     0.318304
     15 O                    -0.500962
     16 H                     0.157498
     17 H                     0.162975
     18 H                     0.168914
     19 H                     0.170604
     20 H                     0.147766
     21 H                     0.136809
     22 H                     0.148173
     23 H                     0.135355
     24 H                     0.156526
     25 H                     0.181682
     26 H                     0.171484
     27 H                     0.164743
     28 C                    -0.482852
     29 H                     0.141183
     30 H                     0.140067
     31 H                     0.201348
     32 C                    -0.497099
     33 H                     0.158512
     34 H                     0.174509
     35 H                     0.153622
  ----------------------------------------
  Sum of atomic charges =    -0.000000

 -----------------------------------------------------------------
                    Cartesian Multipole Moments
 -----------------------------------------------------------------
    Charge (ESU x 10^10)
                -0.0000
    Dipole Moment (Debye)
         X      -0.9105      Y       2.0331      Z       3.1699
       Tot       3.8744
    Quadrupole Moments (Debye-Ang)
        XX     -87.0474     XY      -0.8143     YY     -96.1288
        XZ       1.5487     YZ      -4.6063     ZZ    -104.6220
    Octopole Moments (Debye-Ang^2)
       XXX     -58.6816    XXY      -0.1867    XYY     -24.9960
       YYY      10.6793    XXZ       0.2395    XYZ       4.2805
       YYZ       3.1832    XZZ      -3.1341    YZZ       1.0164
       ZZZ      -0.1177
    Hexadecapole Moments (Debye-Ang^3)
      XXXX   -2218.8855   XXXY     -24.8055   XXYY    -618.6035
      XYYY       1.7012   YYYY   -1871.3766   XXXZ     -22.1832
      XXYZ      -6.9521   XYYZ      -5.0128   YYYZ     -30.8005
      XXZZ    -489.8199   XYZZ      -8.4008   YYZZ    -394.0856
      XZZZ      -4.8114   YZZZ      11.1792   ZZZZ    -453.2065
 -----------------------------------------------------------------
Archival summary:
1\1\nid00366\OPT\ProcedureUnspecified\6-31G*\51218\junteng\MonOct222:47:062017MonOct222:47:062017\0\\#,OPT,ProcedureUnspecified,6-31G*,\\0,1\O\C,1,1.42961\C,1,1.44059,2,98.9347\C,2,1.51461,1,110.511,3,-179.541,0\H,4,1.09382,2,110.312,1,-55.2505,0\H,4,1.09413,2,109.803,1,64.0694,0\H,4,1.09472,2,110.694,1,-175.735,0\C,3,1.51523,1,110.42,2,176.611,0\H,8,1.08859,3,110.801,1,55.069,0\H,8,1.09486,3,109.22,1,-65.7846,0\H,8,1.09517,3,110.414,1,174.858,0\C,2,1.55051,1,102.769,3,-55.19,0\H,12,1.09419,2,112.739,1,155.366,0\H,12,1.09426,2,109.548,1,-84.5514,0\C,12,1.55077,2,101.346,1,33.1838,0\H,15,1.09382,12,111.221,2,-116.607,0\H,15,1.09466,12,113.774,2,121.61,0\C,3,1.56451,1,102.276,2,-55.669,0\H,18,1.09543,3,110.474,1,147.95,0\C,18,1.52373,3,117.786,1,-91.7933,0\O,20,1.20775,18,128.388,3,-4.54072,0\O,20,1.35824,18,108.419,3,178.643,0\C,22,1.43686,20,114.872,18,-172.783,0\H,23,1.09098,22,105.593,20,179.978,0\H,23,1.09342,22,110.897,20,-60.1602,0\H,23,1.09376,22,109.69,20,60.6425,0\C,18,1.56742,3,101.652,1,32.671,0\H,27,1.09111,18,112.14,3,118.681,0\C,27,1.51279,18,114.989,3,-117.5,0\O,29,1.21226,27,126.282,18,37.1092,0\O,29,1.35302,27,110.374,18,-146.642,0\C,31,1.43765,29,115.019,27,-176.35,0\H,32,1.09051,31,105.632,29,-178.732,0\H,32,1.09365,31,110.497,29,-58.9606,0\H,32,1.09392,31,110.578,29,61.4934,0\\\@

 Total job time:  272.05s(wall), 6034.89s(cpu) 
 Mon Oct  2 22:47:06 2017

        *************************************************************
        *                                                           *
        *  Thank you very much for using Q-Chem.  Have a nice day.  *
        *                                                           *
        *************************************************************


