nid04267 10.128.16
Q-Chem Developer Version! Running on 10.128.16.*
                  Welcome to Q-Chem
     A Quantum Leap Into The Future Of Chemistry


 Q-Chem 5.0, Q-Chem, Inc., Pleasanton, CA (2017)

 Yihan Shao,  Zhengting Gan,  E. Epifanovsky,  A. T. B. Gilbert,  M. Wormit,  
 J. Kussmann,  A. W. Lange,  A. Behn,  Jia Deng,  Xintian Feng,  D. Ghosh,  
 M. Goldey,  P. R. Horn,  L. D. Jacobson,  I. Kaliman,  T. Kus,  A. Landau,  
 Jie Liu,  E. I. Proynov,  R. M. Richard,  R. P. Steele,  E. J. Sundstrom,  
 H. L. Woodcock III,  P. M. Zimmerman,  D. Zuev,  B. Albrecht,  E. Alguire,  
 S. A. Baeppler,  Z. Benda,  Y. A. Bernard,  E. J. Berquist,  K. B. Bravaya,  
 D. Casanova,  Chun-Min Chang,  Yunqing Chen,  A. Chien,  K. D. Closser,  
 M. P. Coons,  S. Dasgupta,  M. Diedenhofen,  Hainam Do,  R. G. Edgar,  
 Po-Tung Fang,  S. Fatehi,  Qingguo Feng,  Qinghui Ge,  A. Ghysels,  
 J. Gomes,  J. Gonthier,  A. Gunina,  M. W. D. Hanson-Heine,  
 P. H. P. Harbach,  A. W. Hauser,  J. E. Herr,  E. G. Hohenstein,  
 Z. C. Holden,  Kerwin Hui,  T.-C. Jagau,  Hyunjun Ji,  B. Kaduk,  
 K. Khistyaev,  Jaehoon Kim,  P. Klunzinger,  K. Koh,  D. Kosenkov,  
 T. Kowalczyk,  C. M. Krauter,  A. Kunitsa,  Ka Un Lao,  A. Laurent,  
 K. V. Lawler,  Joonho Lee,  D. Lefrancois,  S. Lehtola,  D. S. Levine,  
 Yi-Pei Li,  You-Sheng Lin,  Fenglai Liu,  E. Livshits,  A. Luenser,  
 P. Manohar,  E. Mansoor,  S. F. Manzer,  Shan-Ping Mao,  Yuezhi Mao,  
 N. Mardirossian,  A. V. Marenich,  L. A. Martinez-Martinez,  S. A. Maurer,  
 N. J. Mayhall,  S. C. McKenzie,  J.-M. Mewes,  A. F. Morrison,  K. Nanda,  
 T. S. Nguyen-Beck,  R. Olivares-Amaya,  J. A. Parkhill,  T. M. Perrine,  
 F. Plasser,  S. Prager,  A. Prociuk,  D. R. Rehn,  F. Rob,  M. Schneider,  
 N. Sergueev,  S. M. Sharada,  S. Sharma,  D. W. Small,  T. Stauch,  
 T. Stein,  Yu-Chuan Su,  A. J. W. Thom,  T. Tsuchimochi,  L. Vogt,  
 O. Vydrov,  M. A. Watson,  J. Wenzel,  M. de Wergifosse,  T. A. Wesolowski,  
 A. White,  J. Witte,  A. Yamada,  Jun Yang,  K. Yao,  S. Yeganeh,  
 S. R. Yost,  Zhi-Qiang You,  A. Zech,  Igor Ying Zhang,  Xing Zhang,  
 Yan Zhao,  Ying Zhu,  B. R. Brooks,  G. K. L. Chan,  C. J. Cramer,  
 M. S. Gordon,  W. J. Hehre,  A. Klamt,  M. W. Schmidt,  C. D. Sherrill,  
 D. G. Truhlar,  A. Aspuru-Guzik,  R. Baer,  A. T. Bell,  N. A. Besley,  
 Jeng-Da Chai,  A. Dreuw,  B. D. Dunietz,  T. R. Furlani,  Chao-Ping Hsu,  
 Yousung Jung,  Jing Kong,  D. S. Lambrecht,  WanZhen Liang,  C. Ochsenfeld,  
 V. A. Rassolov,  L. V. Slipchenko,  J. E. Subotnik,  T. Van Voorhis,  
 J. M. Herbert,  A. I. Krylov,  P. M. W. Gill,  M. Head-Gordon

 Contributors to earlier versions of Q-Chem not listed above: 
 R. D. Adamson,  B. Austin,  J. Baker,  G. J. O. Beran,  K. Brandhorst,  
 S. T. Brown,  E. F. C. Byrd,  A. K. Chakraborty,  C.-L. Cheng,  
 Siu Hung Chien,  D. M. Chipman,  D. L. Crittenden,  H. Dachsel,  
 R. A. DiStasio Jr.,  R. J. Doerksen,  A. D. Dutoi,  L. Fusti-Molnar,  
 W. A. Goddard III,  A. Golubeva-Zadorozhnaya,  S. R. Gwaltney,  G. Hawkins,  
 A. Heyden,  S. Hirata,  G. Kedziora,  F. J. Keil,  C. Kelley,  Jihan Kim,  
 R. A. King,  R. Z. Khaliullin,  P. P. Korambath,  W. Kurlancheek,  
 A. M. Lee,  M. S. Lee,  S. V. Levchenko,  Ching Yeh Lin,  D. Liotard,  
 R. C. Lochan,  I. Lotan,  P. E. Maslen,  N. Nair,  D. P. O'Neill,  
 D. Neuhauser,  E. Neuscamman,  C. M. Oana,  R. Olson,  B. Peters,  
 R. Peverati,  P. A. Pieniazek,  Y. M. Rhee,  J. Ritchie,  M. A. Rohrdanz,  
 E. Rosta,  N. J. Russ,  H. F. Schaefer III,  N. E. Schultz,  N. Shenvi,  
 A. C. Simmonett,  A. Sodt,  D. Stuck,  K. S. Thanthiriwatte,  V. Vanovschi,  
 Tao Wang,  A. Warshel,  C. F. Williams,  Q. Wu,  X. Xu,  W. Zhang

 Please cite Q-Chem as follows:
 Y. Shao et al., Mol. Phys. 113, 184-215 (2015)
 DOI: 10.1080/00268976.2014.952696

 Q-Chem 5.0.0 for Intel X86 EM64T Linux

 Parts of Q-Chem use Armadillo 5.200.1 (Boston Tea Smuggler).
 http://arma.sourceforge.net/

 Q-Chem begins on Wed Oct  4 17:59:30 2017  

Host: nid04267
0

     Scratch files written to /global/cscratch1/sd/junteng/scratch/15/opt_1111oo.save//

Checking the input file for inconsistencies... 	...done.

--------------------------------------------------------------
User input:
--------------------------------------------------------------
$molecule
0  1
C    0.579  -1.978   0.499
C   -0.345  -1.987   1.740
C    0.941  -0.610  -0.048
C   -0.562  -0.630   2.386
O    2.215  -0.645  -0.542
O    0.210   0.366  -0.087
O    0.648  -0.161   2.826
O   -1.631  -0.088   2.617
C    0.572   1.116   3.461
C    2.652   0.593  -1.106
C   -0.242  -2.782  -0.524
C   -0.292  -4.259  -0.098
C   -1.265  -4.223   1.081
C   -1.594  -2.718   1.188
O   -1.591  -2.362  -0.216
H    1.516  -2.494   0.747
H    0.090  -2.606   2.538
H   -0.024   1.052   4.377
H    2.622   1.389  -0.356
H   -0.708  -4.895  -0.888
H    0.690  -4.657   0.174
H   -2.154  -4.811   0.825
H   -0.840  -4.639   1.999
H    1.587   1.422   3.729
H    0.156   1.863   2.777
H    2.039   0.852  -1.975
H    3.687   0.467  -1.436
C   -2.945  -2.478   1.828
H   -3.699  -3.155   1.411
H   -2.911  -2.635   2.910
H   -3.320  -1.473   1.614
C    0.085  -2.603  -1.994
H   -0.579  -3.214  -2.616
H   -0.074  -1.570  -2.320
H    1.119  -2.890  -2.210
$end


$opt
CONSTRAINT
tors    2    1    3    5    147.3
tors    1    2    4    7    -64.6
ENDCONSTRAINT
$end

$rem
JOBTYPE                   OPT
METHOD                    B3LYP
DFT_D                     D3_OP
BASIS                     STO-3G
GEOM_OPT_MAX_CYCLES       500
SYMMETRY                  False
THRESH                    12
SCF_CONVERGENCE           8
MAX_SUB_FILE_NUM          128
MEM_STATIC                400
MEM_TOTAL                 4000
$end

--------------------------------------------------------------
 Adding empirical dispersion correction 
 ----------------------------------------------------------------
 Doing -D3(op) with
 s6 =   1.00000
 s8 =   0.78311
 a1 =   0.30000
 a2 =   4.25000
 n  =  10.00000
 -D3 energy without 3body term =     -0.0411703493 hartrees
 ----------------------------------------------------------------
             Standard Nuclear Orientation (Angstroms)
    I     Atom           X                Y                Z
 ----------------------------------------------------------------
    1      C       0.0405485511     0.6575719166     0.6279970458
    2      C       0.4485580788    -0.8348816956     0.6210370951
    3      C      -1.2236982091     1.0027230799    -0.1363509142
    4      C      -0.5983616521    -1.7818052351     0.0614400192
    5      O      -1.8727982861     2.0215992616     0.5030999569
    6      O      -1.5961984503     0.4914952944    -1.1795899671
    7      O      -1.7171432315    -1.7052423029     0.8489213808
    8      O      -0.4521119641    -2.5882506495    -0.8430724586
    9      C      -2.7784272181    -2.5607562126     0.4228905721
   10      C      -3.0723596472     2.4436939349    -0.1485116050
   11      C       1.2695511140     1.3340043222    -0.0036499292
   12      C       2.4565832498     1.2598809157     0.9715246343
   13      C       2.8623527980    -0.2112841170     0.8761804153
   14      C       1.8144140588    -0.7767714946    -0.1070608698
   15      O       1.6672726917     0.3585939812    -0.9943351534
   16      H      -0.1006442077     0.9849117819     1.6665740614
   17      H       0.6216642017    -1.1903109685     1.6471434747
   18      H      -2.4797608129    -3.6105469360     0.5071865717
   19      H      -3.7802435395     1.6131239838    -0.2264214976
   20      H       3.2933331402     1.8856898890     0.6400661152
   21      H       2.1911460006     1.5619689502     1.9888730929
   22      H       3.8755559769    -0.2734341450     0.4624683269
   23      H       2.8636012425    -0.7181800102     1.8454378604
   24      H      -3.6353600821    -2.3906923623     1.0804841802
   25      H      -3.0783059100    -2.3222438675    -0.6028314328
   26      H      -2.8433670294     2.8555358485    -1.1364182905
   27      H      -3.5276066382     3.2308286629     0.4590820891
   28      C       2.3256610058    -2.0007489527    -0.8370654871
   29      H       3.3506780532    -1.8430305545    -1.1909001368
   30      H       2.3227728949    -2.8841446677    -0.1919820277
   31      H       1.7440132593    -2.2037087567    -1.7409123862
   32      C       1.0880301320     2.7130571330    -0.6079126850
   33      H       2.0289460417     3.0747186755    -1.0380047444
   34      H       0.3716132743     2.6999266795    -1.4356931372
   35      H       0.7526844869     3.4359215512     0.1425480610
 ----------------------------------------------------------------
 Molecular Point Group                 C1    NOp =  1
 Largest Abelian Subgroup              C1    NOp =  1
 Nuclear Repulsion Energy =  1395.7531872986 hartrees
 There are       65 alpha and       65 beta electrons
 Requested basis set is STO-3G
 There are 52 shells and 103 basis functions

 Total QAlloc Memory Limit   4000 MB
 Mega-Array Size       392 MB
 MEM_STATIC part       400 MB
 A cutoff of  1.0D-12 yielded   1204 shell pairs
 There are      5194 function pairs
 
 -------------------------------------------------------
 OpenMP Integral Computing Module                       
 Release: version 1.0, May 2013, Q-Chem Inc. Pittsburgh 
 -------------------------------------------------------
 Integral Job Info:
 Integral job number is                      11
 Integral operator is                         1
 short-range coefficients                     0
 long-range coefficients              100000000
 Omega coefficients                           0
 if combine SR and LR in K                    0
 Integral screening is                        0
 Integral computing path is                   2
 max size of driver memory is            800000
 size of driver memory is                 45569
 size of scratch memory is               945100
 max col of scratch BK array                289
 max len of scratch array in speh3           22
 max len of scratch index in speh4            8
 max int batch size is                      520
 min int batch size is                       52
 fixed nKL is                                52
 max L of basis functions is                  1
 order of int derivative is                   0
 number of shells is                         52
 number of basis is                         103
 number of cartesian basis is               103
 number of contracted shell pairs          1204
 number of primitive shell pairs           6556
 maxK2 (contraction) of shell pair            9
 max number of K2 of shell pair               1
 max number of CS2 of shell pair            185
 max number of PS2 of shell pair            828
 mem total for path MDJ                   33898
 -------------------------------------------------------
 Smallest overlap matrix eigenvalue = 1.95E-01

 Scale SEOQF with 1.000000e-01/1.000000e-01/1.000000e-01

 Standard Electronic Orientation quadrupole field applied
 Nucleus-field energy     =     0.0000000384 hartrees
 Guess from superposition of atomic densities
 Warning:  Energy on first SCF cycle will be non-variational
 A restricted hybrid HF-DFT SCF calculation will be
 performed using Pulay DIIS extrapolation
 Exchange:     0.2000 Hartree-Fock + 0.0800 Slater + 0.7200 B88
 Correlation:  0.1900 VWN1RPA + 0.8100 LYP
 Using SG-1 standard quadrature grid
 Dispersion:   Grimme D3
 SCF converges when DIIS error is below 1.0E-08
 -------------------------------------------------------
 OpenMP Integral computing Module                
 Release: version 1.0, May 2013, Q-Chem Inc. Pittsburgh 
 -------------------------------------------------------
 -------------------------------------------------------
 OpenMP BLAS3 based DFT computing Module                
 Release: version 1.0, May 2013, Q-Chem Inc. Pittsburgh 
 -------------------------------------------------------
 ---------------------------------------
  Cycle       Energy         DIIS Error
 ---------------------------------------
    1    -832.4613427662      1.05E-01
    2    -833.1370762580      1.27E-02
    3    -832.1370895692      3.08E-02
    4    -833.3782765538      4.55E-03
    5    -833.4066960607      1.46E-03
    6    -833.4098473704      2.71E-04
    7    -833.4099544728      7.62E-05
    8    -833.4099606041      4.17E-05
    9    -833.4099632398      4.63E-06
   10    -833.4099632746      1.22E-06
   11    -833.4099632769      3.03E-07
   12    -833.4099632770      8.71E-08
   13    -833.4099632770      1.56E-08
   14    -833.4099632771      3.41E-09 Convergence criterion met
 ---------------------------------------
 SCF time:  CPU 136.78 s  wall 7.08 s
 SCF   energy in the final basis set = -833.4099632771
 Total energy in the final basis set = -833.4099632771
 
 --------------------------------------------------------------
 
                    Orbital Energies (a.u.)
 --------------------------------------------------------------
 
 Alpha MOs
 -- Occupied --
-18.942 -18.934 -18.865 -18.864 -18.861 -10.107 -10.103 -10.074
-10.068 -10.064 -10.060 -10.030 -10.029 -10.013 -10.007 -10.005
-10.002  -1.042  -1.034  -0.985  -0.951  -0.945  -0.773  -0.753
 -0.733  -0.690  -0.680  -0.671  -0.624  -0.593  -0.545  -0.520
 -0.491  -0.482  -0.466  -0.447  -0.439  -0.429  -0.428  -0.422
 -0.411  -0.391  -0.387  -0.379  -0.371  -0.369  -0.364  -0.345
 -0.341  -0.334  -0.309  -0.305  -0.304  -0.292  -0.287  -0.281
 -0.271  -0.247  -0.241  -0.214  -0.181  -0.175  -0.151  -0.141
 -0.130
 -- Virtual --
  0.111   0.129   0.243   0.280   0.295   0.311   0.331   0.354
  0.372   0.379   0.388   0.400   0.403   0.413   0.419   0.432
  0.439   0.444   0.449   0.451   0.456   0.457   0.463   0.467
  0.475   0.480   0.487   0.492   0.498   0.506   0.510   0.513
  0.537   0.546   0.583   0.586   0.707   0.709
 --------------------------------------------------------------
 
          Ground-State Mulliken Net Atomic Charges

     Atom                 Charge (a.u.)
  ----------------------------------------
      1 C                    -0.084595
      2 C                    -0.084928
      3 C                     0.236932
      4 C                     0.238677
      5 O                    -0.187608
      6 O                    -0.231157
      7 O                    -0.194162
      8 O                    -0.225991
      9 C                    -0.126414
     10 C                    -0.126312
     11 C                     0.111091
     12 C                    -0.148495
     13 C                    -0.147098
     14 C                     0.111557
     15 O                    -0.214092
     16 H                     0.087026
     17 H                     0.085427
     18 H                     0.091170
     19 H                     0.093535
     20 H                     0.075293
     21 H                     0.069960
     22 H                     0.075299
     23 H                     0.068530
     24 H                     0.092479
     25 H                     0.096380
     26 H                     0.092817
     27 H                     0.095226
     28 C                    -0.230291
     29 H                     0.078853
     30 H                     0.081177
     31 H                     0.098540
     32 C                    -0.231645
     33 H                     0.084746
     34 H                     0.083765
     35 H                     0.084309
  ----------------------------------------
  Sum of atomic charges =    -0.000000

 -----------------------------------------------------------------
                    Cartesian Multipole Moments
 -----------------------------------------------------------------
    Charge (ESU x 10^10)
                 0.0000
    Dipole Moment (Debye)
         X      -0.8782      Y       1.1630      Z       2.3527
       Tot       2.7675
    Quadrupole Moments (Debye-Ang)
        XX     -83.8071     XY      -0.7113     YY     -88.8934
        XZ       0.9767     YZ      -3.9015     ZZ     -96.9292
    Octopole Moments (Debye-Ang^2)
       XXX     -46.3966    XXY      -1.7284    XYY     -21.3534
       YYY       5.1219    XXZ      -0.4018    XYZ       3.8207
       YYZ       2.3429    XZZ      -3.9993    YZZ      -0.3880
       ZZZ      -3.3241
    Hexadecapole Moments (Debye-Ang^3)
      XXXX   -2091.2066   XXXY      -6.0688   XXYY    -600.9185
      XYYY      -2.1704   YYYY   -1803.7757   XXXZ     -28.9029
      XXYZ      -4.3762   XYYZ      -7.7605   YYYZ     -36.1812
      XXZZ    -448.9289   XYZZ      -3.9821   YYZZ    -373.8865
      XZZZ      -5.3102   YZZZ       4.7161   ZZZZ    -389.6427
 -----------------------------------------------------------------
 Calculating analytic gradient of the SCF energy
 Gradient of SCF Energy
            1           2           3           4           5           6
    1   0.0068753  -0.0046877  -0.0166998  -0.0197001  -0.0083837   0.0221746
    2  -0.0061405   0.0027730   0.0136587  -0.0050542  -0.0333299   0.0277086
    3  -0.0439619  -0.0259477  -0.0049261   0.0059897  -0.0526228   0.0536548
            7           8           9          10          11          12
    1   0.0189254  -0.0015472   0.0137487   0.0155365  -0.0147881  -0.0140183
    2  -0.0354658   0.0374925   0.0122788  -0.0053058  -0.0088645  -0.0163340
    3  -0.0479698   0.0469183   0.0073292   0.0104380   0.0044710  -0.0276032
           13          14          15          16          17          18
    1  -0.0188788  -0.0134132   0.0002181   0.0010425   0.0008687  -0.0002796
    2   0.0098466   0.0013371  -0.0017583  -0.0047971  -0.0026952   0.0134481
    3  -0.0239240   0.0041002   0.0591838  -0.0036425  -0.0066526   0.0045960
           19          20          21          22          23          24
    1   0.0096437   0.0015668   0.0018289  -0.0016174   0.0000789   0.0064180
    2   0.0080000  -0.0065480  -0.0026222   0.0062579   0.0036352  -0.0035888
    3   0.0068064   0.0026614  -0.0056205   0.0037838  -0.0055836  -0.0080883
           25          26          27          28          29          30
    1   0.0035522   0.0029766   0.0019587  -0.0076661  -0.0055637   0.0022017
    2   0.0031584  -0.0020146  -0.0071906   0.0172553  -0.0035201   0.0034711
    3   0.0127123   0.0138624  -0.0075342   0.0224771  -0.0038969  -0.0029576
           31          32          33          34          35
    1   0.0094985   0.0042312  -0.0054129   0.0069380   0.0023733
    2   0.0036308  -0.0187618   0.0004390   0.0011666  -0.0015662
    3  -0.0003602   0.0173100  -0.0021302   0.0011114  -0.0039838
 Max gradient component =       5.918E-02
 RMS gradient           =       1.675E-02
 Gradient time:  CPU 25.22 s  wall 1.18 s
 Geometry Optimization Parameters
   NAtoms,    NIC,     NZ,  NCons,   NDum,   NFix, NCnnct, MaxDiis
       35     275       0       2       0       0       0       0


** CONSTRAINED OPTIMIZATION IN DELOCALIZED INTERNAL COORDINATES **
   Searching for a Minimum

   Optimization Cycle:   1

                       Coordinates (Angstroms)
     ATOM                X               Y               Z
      1  C         0.0405485511    0.6575719166    0.6279970458
      2  C         0.4485580788   -0.8348816956    0.6210370951
      3  C        -1.2236982091    1.0027230799   -0.1363509142
      4  C        -0.5983616521   -1.7818052351    0.0614400192
      5  O        -1.8727982861    2.0215992616    0.5030999569
      6  O        -1.5961984503    0.4914952944   -1.1795899671
      7  O        -1.7171432315   -1.7052423029    0.8489213808
      8  O        -0.4521119641   -2.5882506495   -0.8430724586
      9  C        -2.7784272181   -2.5607562126    0.4228905721
     10  C        -3.0723596472    2.4436939349   -0.1485116050
     11  C         1.2695511140    1.3340043222   -0.0036499292
     12  C         2.4565832498    1.2598809157    0.9715246343
     13  C         2.8623527980   -0.2112841170    0.8761804153
     14  C         1.8144140588   -0.7767714946   -0.1070608698
     15  O         1.6672726917    0.3585939812   -0.9943351534
     16  H        -0.1006442077    0.9849117819    1.6665740614
     17  H         0.6216642017   -1.1903109685    1.6471434747
     18  H        -2.4797608129   -3.6105469360    0.5071865717
     19  H        -3.7802435395    1.6131239838   -0.2264214976
     20  H         3.2933331402    1.8856898890    0.6400661152
     21  H         2.1911460006    1.5619689502    1.9888730929
     22  H         3.8755559769   -0.2734341450    0.4624683269
     23  H         2.8636012425   -0.7181800102    1.8454378604
     24  H        -3.6353600821   -2.3906923623    1.0804841802
     25  H        -3.0783059100   -2.3222438675   -0.6028314328
     26  H        -2.8433670294    2.8555358485   -1.1364182905
     27  H        -3.5276066382    3.2308286629    0.4590820891
     28  C         2.3256610058   -2.0007489527   -0.8370654871
     29  H         3.3506780532   -1.8430305545   -1.1909001368
     30  H         2.3227728949   -2.8841446677   -0.1919820277
     31  H         1.7440132593   -2.2037087567   -1.7409123862
     32  C         1.0880301320    2.7130571330   -0.6079126850
     33  H         2.0289460417    3.0747186755   -1.0380047444
     34  H         0.3716132743    2.6999266795   -1.4356931372
     35  H         0.7526844869    3.4359215512    0.1425480610
   Point Group: c1    Number of degrees of freedom:    99


   Energy is   -833.409963277

              Constraints and their Current Values
                                        Value     Constraint
   Dihedral:        2   1   3   5      145.794      147.300
   Dihedral:        1   2   4   7      -61.913      -64.600

 Attempting to Generate Delocalized Internal Coordinates

   Using Lagrange Multiplier Algorithm


101 Hessian modes will be used to form the next step
  Hessian Eigenvalues:
    -0.977753   -0.977753    0.045000    0.045000    0.045000    0.045000
     0.045000    0.045000    0.045023    0.045263    0.045502    0.048606
     0.060298    0.061777    0.067925    0.070278    0.071449    0.071695
     0.075522    0.076606    0.078244    0.080811    0.081377    0.081808
     0.083396    0.083502    0.083514    0.083675    0.084645    0.090017
     0.091538    0.091907    0.106339    0.109001    0.113820    0.113949
     0.116299    0.116905    0.116996    0.126894    0.131265    0.139894
     0.144501    0.160000    0.160000    0.160000    0.160000    0.160000
     0.160000    0.160000    0.160000    0.160000    0.160000    0.160000
     0.160000    0.165730    0.185925    0.241736    0.248635    0.249881
     0.250000    0.250000    0.250000    0.250000    0.250633    0.260748
     0.267050    0.282050    0.285547    0.305111    0.306449    0.307030
     0.309452    0.327325    0.337229    0.338979    0.340712    0.341060
     0.341086    0.341343    0.341531    0.342465    0.342607    0.342751
     0.342848    0.342936    0.343451    0.343609    0.343704    0.343747
     0.343768    0.343978    0.344143    0.411501    0.412503    0.509233
     0.515826    0.951140    0.953727    1.022753    1.022753

 Minimum Search - Taking P-RFO Step
 Searching for Lamda that Maximizes Along the Constraint modes Only
 Value Taken    Lamda =   0.00185075
 Searching for Lamda that Minimizes Along All other modes
 Value Taken    Lamda =  -0.06589645
 Calculated Step too Large.  Step scaled by  0.717536
 Step Taken.  Stepsize is  0.300000

                             Maximum     Tolerance    Cnvgd?
         Gradient            0.083192       0.000300      NO
         Displacement        0.102846       0.001200      NO
         Energy change     *********       0.000001      NO


 New Cartesian Coordinates Obtained by Inverse Iteration

 Displacement from previous Coordinates is:  0.641660
 Adding empirical dispersion correction 
 ----------------------------------------------------------------
 Doing -D3(op) with
 s6 =   1.00000
 s8 =   0.78311
 a1 =   0.30000
 a2 =   4.25000
 n  =  10.00000
 -D3 energy without 3body term =     -0.0407127376 hartrees
 ----------------------------------------------------------------
             Standard Nuclear Orientation (Angstroms)
    I     Atom           X                Y                Z
 ----------------------------------------------------------------
    1      C       0.0576770763     0.6772514349     0.6631052243
    2      C       0.4688346364    -0.8373696409     0.6496765424
    3      C      -1.2426407066     0.9968089086    -0.1177263038
    4      C      -0.6101660463    -1.7857099704     0.0524099053
    5      O      -1.9068146512     2.0525901544     0.5220718786
    6      O      -1.6326726752     0.4495525120    -1.1645373118
    7      O      -1.7396450933    -1.7201145728     0.8860993090
    8      O      -0.4942073488    -2.5828061876    -0.8941693422
    9      C      -2.8234281380    -2.5780512893     0.4223754340
   10      C      -3.1335074558     2.4394707395    -0.1667695200
   11      C       1.3143530084     1.3584197709    -0.0015348144
   12      C       2.5165344327     1.2840562277     1.0087491950
   13      C       2.9216658141    -0.2187934613     0.9086543601
   14      C       1.8555641652    -0.7782818405    -0.1100069789
   15      O       1.7084655955     0.3708977659    -1.0211412561
   16      H      -0.0793433276     1.0240159595     1.7009146589
   17      H       0.6498923632    -1.2004161180     1.6770040180
   18      H      -2.5381296382    -3.6466496010     0.4523643215
   19      H      -3.8445827544     1.5951897839    -0.2354657158
   20      H       3.3483795739     1.9215841657     0.6769466561
   21      H       2.2420016956     1.5915714158     2.0284592144
   22      H       3.9351078436    -0.3031890824     0.4913811266
   23      H       2.9132054872    -0.7362742948     1.8792420301
   24      H      -3.6747462784    -2.4217821807     1.1063017257
   25      H      -3.1416195059    -2.3125077010    -0.6033589816
   26      H      -2.9244841099     2.8257830330    -1.1821218118
   27      H      -3.5978316961     3.2441189394     0.4279028587
   28      C       2.3400637395    -2.0263442626    -0.8691384009
   29      H       3.3693100501    -1.8744113921    -1.2261126125
   30      H       2.3244225544    -2.9143856517    -0.2234498027
   31      H       1.7253920254    -2.2142494145    -1.7603864711
   32      C       1.1129980945     2.7493044411    -0.6308686873
   33      H       2.0572155663     3.1088777850    -1.0641747215
   34      H       0.3820381459     2.7166333175    -1.4520149966
   35      H       0.7732909313     3.4744232403     0.1215615009
 ----------------------------------------------------------------
 Molecular Point Group                 C1    NOp =  1
 Largest Abelian Subgroup              C1    NOp =  1
 Nuclear Repulsion Energy =  1373.8560569291 hartrees
 There are       65 alpha and       65 beta electrons
 Applying Cartesian multipole field
    Component          Value
    ---------          -----
     (2,0,0)        1.00000E-11
     (0,2,0)        2.00000E-11
     (0,0,2)       -3.00000E-11
 Nucleus-field energy     =     0.0000000390 hartrees
 Requested basis set is STO-3G
 There are 52 shells and 103 basis functions
 A cutoff of  1.0D-12 yielded   1202 shell pairs
 There are      5186 function pairs
 Smallest overlap matrix eigenvalue = 2.08E-01
 Guess MOs from SCF MO coefficient file
 Reading MOs from coefficient file
 Reading MOs from coefficient file
 A restricted hybrid HF-DFT SCF calculation will be
 performed using Pulay DIIS extrapolation
 Exchange:     0.2000 Hartree-Fock + 0.0800 Slater + 0.7200 B88
 Correlation:  0.1900 VWN1RPA + 0.8100 LYP
 Using SG-1 standard quadrature grid
 Dispersion:   Grimme D3
 SCF converges when DIIS error is below 1.0E-08
 Geometry optimization detected.  Setting ReadMinima to 0
 Setting SaveMinima to 0
 -------------------------------------------------------
 OpenMP Integral computing Module                
 Release: version 1.0, May 2013, Q-Chem Inc. Pittsburgh 
 -------------------------------------------------------
 -------------------------------------------------------
 OpenMP BLAS3 based DFT computing Module                
 Release: version 1.0, May 2013, Q-Chem Inc. Pittsburgh 
 -------------------------------------------------------
 ---------------------------------------
  Cycle       Energy         DIIS Error
 ---------------------------------------
    1    -833.2761985013      4.84E-03
    2    -833.4353326803      1.83E-03
    3    -833.4297102999      2.70E-03
    4    -833.4398713517      6.19E-04
    5    -833.4404673937      1.02E-04
    6    -833.4404840553      2.56E-05
    7    -833.4404845357      2.00E-05
    8    -833.4404851302      3.78E-06
    9    -833.4404851552      6.45E-07
   10    -833.4404851558      2.70E-07
   11    -833.4404851559      5.15E-08
   12    -833.4404851559      1.16E-08
   13    -833.4404851559      2.49E-09 Convergence criterion met
 ---------------------------------------
 SCF time:  CPU 122.00 s  wall 6.17 s
 SCF   energy in the final basis set = -833.4404851559
 Total energy in the final basis set = -833.4404851559
 
 --------------------------------------------------------------
 
                    Orbital Energies (a.u.)
 --------------------------------------------------------------
 
 Alpha MOs
 -- Occupied --
-18.939 -18.929 -18.869 -18.867 -18.863 -10.101 -10.096 -10.069
-10.063 -10.062 -10.058 -10.032 -10.030 -10.014 -10.010 -10.008
-10.003  -1.022  -1.013  -0.967  -0.939  -0.933  -0.762  -0.741
 -0.722  -0.679  -0.675  -0.661  -0.619  -0.589  -0.536  -0.514
 -0.483  -0.475  -0.455  -0.437  -0.428  -0.419  -0.419  -0.410
 -0.403  -0.384  -0.383  -0.378  -0.368  -0.364  -0.358  -0.341
 -0.338  -0.331  -0.307  -0.298  -0.296  -0.290  -0.287  -0.277
 -0.266  -0.249  -0.243  -0.219  -0.179  -0.171  -0.150  -0.141
 -0.132
 -- Virtual --
  0.102   0.119   0.236   0.263   0.277   0.295   0.314   0.336
  0.353   0.357   0.370   0.378   0.390   0.398   0.410   0.416
  0.425   0.426   0.431   0.432   0.437   0.441   0.445   0.449
  0.452   0.466   0.471   0.478   0.485   0.486   0.493   0.499
  0.519   0.523   0.559   0.564   0.668   0.671
 --------------------------------------------------------------
 
          Ground-State Mulliken Net Atomic Charges

     Atom                 Charge (a.u.)
  ----------------------------------------
      1 C                    -0.081190
      2 C                    -0.081421
      3 C                     0.220019
      4 C                     0.222405
      5 O                    -0.176805
      6 O                    -0.219719
      7 O                    -0.184081
      8 O                    -0.215977
      9 C                    -0.125427
     10 C                    -0.125291
     11 C                     0.107194
     12 C                    -0.146641
     13 C                    -0.145632
     14 C                     0.107369
     15 O                    -0.202899
     16 H                     0.085604
     17 H                     0.083611
     18 H                     0.087844
     19 H                     0.090517
     20 H                     0.074487
     21 H                     0.069977
     22 H                     0.074130
     23 H                     0.068429
     24 H                     0.088946
     25 H                     0.092988
     26 H                     0.089643
     27 H                     0.091940
     28 C                    -0.227672
     29 H                     0.078070
     30 H                     0.079840
     31 H                     0.098161
     32 C                    -0.228572
     33 H                     0.083651
     34 H                     0.083551
     35 H                     0.082949
  ----------------------------------------
  Sum of atomic charges =    -0.000000

 -----------------------------------------------------------------
                    Cartesian Multipole Moments
 -----------------------------------------------------------------
    Charge (ESU x 10^10)
                -0.0000
    Dipole Moment (Debye)
         X      -0.7187      Y       1.1482      Z       2.2667
       Tot       2.6406
    Quadrupole Moments (Debye-Ang)
        XX     -83.6171     XY      -0.8180     YY     -88.8282
        XZ       1.3839     YZ      -3.7860     ZZ     -96.7614
    Octopole Moments (Debye-Ang^2)
       XXX     -47.8194    XXY      -1.7452    XYY     -20.8210
       YYY       3.1923    XXZ      -0.9022    XYZ       4.3279
       YYZ       1.3670    XZZ      -4.0324    YZZ       0.2332
       ZZZ      -4.1069
    Hexadecapole Moments (Debye-Ang^3)
      XXXX   -2163.5538   XXXY     -13.4901   XXYY    -615.1488
      XYYY      -5.2467   YYYY   -1825.3836   XXXZ     -28.9313
      XXYZ      -6.3656   XYYZ      -7.3240   YYYZ     -37.0024
      XXZZ    -464.5527   XYZZ      -6.7311   YYZZ    -381.6438
      XZZZ      -6.8177   YZZZ       1.4818   ZZZZ    -406.1296
 -----------------------------------------------------------------
 Calculating analytic gradient of the SCF energy
 Gradient of SCF Energy
            1           2           3           4           5           6
    1   0.0035063  -0.0034832  -0.0071641  -0.0135525  -0.0031091   0.0070050
    2  -0.0040635   0.0024481   0.0111836   0.0067474  -0.0150523   0.0075281
    3  -0.0202194  -0.0072475   0.0077722   0.0094435  -0.0220624   0.0116130
            7           8           9          10          11          12
    1   0.0093121   0.0020265   0.0069964   0.0085131  -0.0096980  -0.0041624
    2  -0.0158808   0.0061445   0.0065811  -0.0018266  -0.0014857  -0.0020209
    3  -0.0211182   0.0126013   0.0049334   0.0063610   0.0039171  -0.0102390
           13          14          15          16          17          18
    1  -0.0044641  -0.0083815   0.0034611   0.0001821   0.0021029  -0.0006116
    2   0.0014576  -0.0027283  -0.0001490  -0.0026454  -0.0024076   0.0028528
    3  -0.0093950   0.0013641   0.0187712  -0.0004854  -0.0022342   0.0022506
           19          20          21          22          23          24
    1   0.0015143   0.0011828   0.0020206  -0.0004607   0.0017627   0.0005558
    2   0.0023349  -0.0030663   0.0001148   0.0030494   0.0010448  -0.0017110
    3   0.0024998   0.0021209  -0.0012315   0.0024125  -0.0013124  -0.0027952
           25          26          27          28          29          30
    1  -0.0001682   0.0005865  -0.0007090  -0.0037152  -0.0019327   0.0013295
    2   0.0011803   0.0008258  -0.0016614   0.0055450  -0.0015508   0.0008305
    3   0.0033556   0.0035596  -0.0026798   0.0113195  -0.0028692  -0.0013613
           31          32          33          34          35
    1   0.0055404   0.0021455  -0.0023183   0.0031558   0.0010311
    2   0.0015546  -0.0070746   0.0004456   0.0014654  -0.0000104
    3  -0.0025522   0.0083965  -0.0020138  -0.0013114  -0.0015639
 Max gradient component =       2.206E-02
 RMS gradient           =       6.591E-03
 Gradient time:  CPU 25.55 s  wall 1.12 s
 Geometry Optimization Parameters
   NAtoms,    NIC,     NZ,  NCons,   NDum,   NFix, NCnnct, MaxDiis
       35     275       0       2       0       0       0       0

 Cartesian Hessian Update
 Hessian Updated using BFGS Update


** CONSTRAINED OPTIMIZATION IN DELOCALIZED INTERNAL COORDINATES **
   Searching for a Minimum

   Optimization Cycle:   2

                       Coordinates (Angstroms)
     ATOM                X               Y               Z
      1  C         0.0576770763    0.6772514349    0.6631052243
      2  C         0.4688346364   -0.8373696409    0.6496765424
      3  C        -1.2426407066    0.9968089086   -0.1177263038
      4  C        -0.6101660463   -1.7857099704    0.0524099053
      5  O        -1.9068146512    2.0525901544    0.5220718786
      6  O        -1.6326726752    0.4495525120   -1.1645373118
      7  O        -1.7396450933   -1.7201145728    0.8860993090
      8  O        -0.4942073488   -2.5828061876   -0.8941693422
      9  C        -2.8234281380   -2.5780512893    0.4223754340
     10  C        -3.1335074558    2.4394707395   -0.1667695200
     11  C         1.3143530084    1.3584197709   -0.0015348144
     12  C         2.5165344327    1.2840562277    1.0087491950
     13  C         2.9216658141   -0.2187934613    0.9086543601
     14  C         1.8555641652   -0.7782818405   -0.1100069789
     15  O         1.7084655955    0.3708977659   -1.0211412561
     16  H        -0.0793433276    1.0240159595    1.7009146589
     17  H         0.6498923632   -1.2004161180    1.6770040180
     18  H        -2.5381296382   -3.6466496010    0.4523643215
     19  H        -3.8445827544    1.5951897839   -0.2354657158
     20  H         3.3483795739    1.9215841657    0.6769466561
     21  H         2.2420016956    1.5915714158    2.0284592144
     22  H         3.9351078436   -0.3031890824    0.4913811266
     23  H         2.9132054872   -0.7362742948    1.8792420301
     24  H        -3.6747462784   -2.4217821807    1.1063017257
     25  H        -3.1416195059   -2.3125077010   -0.6033589816
     26  H        -2.9244841099    2.8257830330   -1.1821218118
     27  H        -3.5978316961    3.2441189394    0.4279028587
     28  C         2.3400637395   -2.0263442626   -0.8691384009
     29  H         3.3693100501   -1.8744113921   -1.2261126125
     30  H         2.3244225544   -2.9143856517   -0.2234498027
     31  H         1.7253920254   -2.2142494145   -1.7603864711
     32  C         1.1129980945    2.7493044411   -0.6308686873
     33  H         2.0572155663    3.1088777850   -1.0641747215
     34  H         0.3820381459    2.7166333175   -1.4520149966
     35  H         0.7732909313    3.4744232403    0.1215615009
   Point Group: c1    Number of degrees of freedom:    99


   Energy is   -833.440485156

              Constraints and their Current Values
                                        Value     Constraint
   Dihedral:        2   1   3   5      146.836      147.300
   Dihedral:        1   2   4   7      -63.793      -64.600
 Hessian Updated using BFGS Update

   Using Lagrange Multiplier Algorithm


 85 Hessian modes will be used to form the next step
  Hessian Eigenvalues:
    -0.977823   -0.977728    0.044944    0.045002    0.045009    0.045177
     0.045493    0.048591    0.060299    0.061435    0.067904    0.070206
     0.071452    0.071695    0.075502    0.076545    0.078267    0.080799
     0.081265    0.081781    0.083162    0.083417    0.083516    0.083645
     0.084745    0.090004    0.091428    0.091898    0.106321    0.109029
     0.113713    0.113907    0.116122    0.116905    0.116997    0.126563
     0.131589    0.139919    0.144459    0.158495    0.161708    0.165895
     0.185900    0.241488    0.243195    0.248812    0.249885    0.250068
     0.251016    0.260781    0.268752    0.283519    0.289958    0.305688
     0.306854    0.308795    0.317195    0.327335    0.337241    0.338989
     0.340976    0.341073    0.341341    0.341521    0.342153    0.342565
     0.342651    0.342838    0.342868    0.343320    0.343590    0.343690
     0.343720    0.343759    0.343912    0.344097    0.374870    0.411947
     0.418084    0.498341    0.513778    0.952358    0.976282    1.022748
     1.023426

 Minimum Search - Taking P-RFO Step
 Searching for Lamda that Maximizes Along the Constraint modes Only
 Value Taken    Lamda =   0.00006674
 Searching for Lamda that Minimizes Along All other modes
 Value Taken    Lamda =  -0.01161578
 Step Taken.  Stepsize is  0.271062

                             Maximum     Tolerance    Cnvgd?
         Gradient            0.026885       0.000300      NO
         Displacement        0.083083       0.001200      NO
         Energy change     -0.030522       0.000001      NO


 New Cartesian Coordinates Obtained by Inverse Iteration

 Displacement from previous Coordinates is:  0.890393
 Adding empirical dispersion correction 
 ----------------------------------------------------------------
 Doing -D3(op) with
 s6 =   1.00000
 s8 =   0.78311
 a1 =   0.30000
 a2 =   4.25000
 n  =  10.00000
 -D3 energy without 3body term =     -0.0409842042 hartrees
 ----------------------------------------------------------------
             Standard Nuclear Orientation (Angstroms)
    I     Atom           X                Y                Z
 ----------------------------------------------------------------
    1      C       0.0922445927     0.6974011435     0.7121800921
    2      C       0.4993788282    -0.8255595434     0.6956429195
    3      C      -1.2326085603     0.9706845444    -0.0691685476
    4      C      -0.6023698874    -1.7493185496     0.0627394820
    5      O      -1.9163682208     2.0471970878     0.5659456733
    6      O      -1.6490963576     0.3725441789    -1.0873467061
    7      O      -1.7455335975    -1.6711026927     0.9176815018
    8      O      -0.5296549229    -2.5035484201    -0.9312514780
    9      C      -2.8370601110    -2.4905716912     0.3594926490
   10      C      -3.1652508745     2.3421406683    -0.1637684723
   11      C       1.3483031061     1.3677577353    -0.0017570447
   12      C       2.5619692817     1.2971205161     1.0136234073
   13      C       2.9618481985    -0.2190923040     0.9210873429
   14      C       1.8809066266    -0.7753378880    -0.0990586864
   15      O       1.7155785741     0.3668002716    -1.0330616390
   16      H      -0.0319460973     1.0736182455     1.7431810898
   17      H       0.6821816271    -1.1863185335     1.7244116345
   18      H      -2.5668145521    -3.5663747658     0.3233267871
   19      H      -3.8343415746     1.4581230458    -0.2046247124
   20      H       3.3821993097     1.9452629813     0.6653086152
   21      H       2.2805891271     1.6113164783     2.0316915066
   22      H       3.9696612122    -0.3323219499     0.4900764205
   23      H       2.9425350822    -0.7358924067     1.8943012986
   24      H      -3.7004534040    -2.3511415126     1.0364836803
   25      H      -3.1120136889    -2.1617788008    -0.6640113277
   26      H      -2.9635206411     2.6786147378    -1.2017870705
   27      H      -3.6618326067     3.1556859210     0.3970210511
   28      C       2.3156206022    -2.0477026174    -0.8693106774
   29      H       3.3411778077    -1.9164448187    -1.2486969470
   30      H       2.2908264586    -2.9239633255    -0.2043259647
   31      H       1.6404326717    -2.2262898570    -1.7196996758
   32      C       1.1096059832     2.7532684971    -0.6543523846
   33      H       2.0454225488     3.1149435907    -1.1074006873
   34      H       0.3468896658     2.6811162167    -1.4452891910
   35      H       0.7740871665     3.4783767501     0.1029582914
 ----------------------------------------------------------------
 Molecular Point Group                 C1    NOp =  1
 Largest Abelian Subgroup              C1    NOp =  1
 Nuclear Repulsion Energy =  1372.7123613049 hartrees
 There are       65 alpha and       65 beta electrons
 Applying Cartesian multipole field
    Component          Value
    ---------          -----
     (2,0,0)        1.00000E-11
     (0,2,0)        2.00000E-11
     (0,0,2)       -3.00000E-11
 Nucleus-field energy     =     0.0000000382 hartrees
 Requested basis set is STO-3G
 There are 52 shells and 103 basis functions
 A cutoff of  1.0D-12 yielded   1203 shell pairs
 There are      5187 function pairs
 Smallest overlap matrix eigenvalue = 2.13E-01
 Guess MOs from SCF MO coefficient file
 Reading MOs from coefficient file
 Reading MOs from coefficient file
 A restricted hybrid HF-DFT SCF calculation will be
 performed using Pulay DIIS extrapolation
 Exchange:     0.2000 Hartree-Fock + 0.0800 Slater + 0.7200 B88
 Correlation:  0.1900 VWN1RPA + 0.8100 LYP
 Using SG-1 standard quadrature grid
 Dispersion:   Grimme D3
 SCF converges when DIIS error is below 1.0E-08
 Geometry optimization detected.  Setting ReadMinima to 0
 Setting SaveMinima to 0
 -------------------------------------------------------
 OpenMP Integral computing Module                
 Release: version 1.0, May 2013, Q-Chem Inc. Pittsburgh 
 -------------------------------------------------------
 -------------------------------------------------------
 OpenMP BLAS3 based DFT computing Module                
 Release: version 1.0, May 2013, Q-Chem Inc. Pittsburgh 
 -------------------------------------------------------
 ---------------------------------------
  Cycle       Energy         DIIS Error
 ---------------------------------------
    1    -833.3562632247      4.07E-03
    2    -833.4448315261      1.15E-03
    3    -833.4406504687      2.07E-03
    4    -833.4467219372      3.72E-04
    5    -833.4469342481      8.60E-05
    6    -833.4469456608      2.42E-05
    7    -833.4469460366      1.98E-05
    8    -833.4469466279      3.68E-06
    9    -833.4469466517      5.96E-07
   10    -833.4469466523      2.75E-07
   11    -833.4469466524      5.11E-08
   12    -833.4469466524      1.92E-08
   13    -833.4469466525      3.53E-09 Convergence criterion met
 ---------------------------------------
 SCF time:  CPU 124.67 s  wall 6.30 s
 SCF   energy in the final basis set = -833.4469466525
 Total energy in the final basis set = -833.4469466525
 
 --------------------------------------------------------------
 
                    Orbital Energies (a.u.)
 --------------------------------------------------------------
 
 Alpha MOs
 -- Occupied --
-18.938 -18.924 -18.872 -18.872 -18.866 -10.098 -10.092 -10.066
-10.061 -10.057 -10.056 -10.032 -10.029 -10.015 -10.013 -10.010
-10.003  -1.014  -1.003  -0.962  -0.936  -0.928  -0.760  -0.737
 -0.718  -0.673  -0.671  -0.654  -0.616  -0.587  -0.532  -0.511
 -0.480  -0.471  -0.452  -0.435  -0.424  -0.416  -0.414  -0.404
 -0.399  -0.384  -0.381  -0.378  -0.367  -0.363  -0.353  -0.342
 -0.335  -0.329  -0.309  -0.295  -0.292  -0.288  -0.287  -0.275
 -0.264  -0.253  -0.246  -0.222  -0.179  -0.169  -0.152  -0.142
 -0.135
 -- Virtual --
  0.096   0.117   0.235   0.258   0.272   0.288   0.306   0.325
  0.343   0.343   0.361   0.370   0.384   0.392   0.403   0.412
  0.415   0.420   0.426   0.428   0.431   0.433   0.439   0.440
  0.448   0.459   0.464   0.471   0.481   0.481   0.489   0.494
  0.509   0.516   0.549   0.557   0.652   0.659
 --------------------------------------------------------------
 
          Ground-State Mulliken Net Atomic Charges

     Atom                 Charge (a.u.)
  ----------------------------------------
      1 C                    -0.080636
      2 C                    -0.081328
      3 C                     0.213366
      4 C                     0.215641
      5 O                    -0.169478
      6 O                    -0.214633
      7 O                    -0.178489
      8 O                    -0.211409
      9 C                    -0.127996
     10 C                    -0.127476
     11 C                     0.105344
     12 C                    -0.145689
     13 C                    -0.145030
     14 C                     0.105095
     15 O                    -0.198010
     16 H                     0.085110
     17 H                     0.082695
     18 H                     0.086434
     19 H                     0.089835
     20 H                     0.074334
     21 H                     0.070701
     22 H                     0.073800
     23 H                     0.069350
     24 H                     0.086266
     25 H                     0.092411
     26 H                     0.088516
     27 H                     0.090097
     28 C                    -0.227588
     29 H                     0.077683
     30 H                     0.078256
     31 H                     0.100182
     32 C                    -0.227063
     33 H                     0.083395
     34 H                     0.083897
     35 H                     0.082415
  ----------------------------------------
  Sum of atomic charges =    -0.000000

 -----------------------------------------------------------------
                    Cartesian Multipole Moments
 -----------------------------------------------------------------
    Charge (ESU x 10^10)
                 0.0000
    Dipole Moment (Debye)
         X      -0.5332      Y       1.1479      Z       2.1354
       Tot       2.4823
    Quadrupole Moments (Debye-Ang)
        XX     -84.0401     XY      -0.8954     YY     -89.3186
        XZ       1.8507     YZ      -3.5700     ZZ     -96.5949
    Octopole Moments (Debye-Ang^2)
       XXX     -47.8590    XXY      -1.5292    XYY     -18.4521
       YYY      -0.0474    XXZ      -2.4248    XYZ       4.0004
       YYZ      -0.3339    XZZ      -4.4243    YZZ       0.5827
       ZZZ      -6.6133
    Hexadecapole Moments (Debye-Ang^3)
      XXXX   -2200.3894   XXXY     -18.9191   XXYY    -618.8181
      XYYY      -6.4821   YYYY   -1774.2871   XXXZ     -32.1683
      XXYZ      -9.0253   XYYZ      -6.6733   YYYZ     -39.0283
      XXZZ    -470.8829   XYZZ      -8.8633   YYZZ    -374.3999
      XZZZ      -8.4941   YZZZ      -6.9563   ZZZZ    -410.3837
 -----------------------------------------------------------------
 Calculating analytic gradient of the SCF energy
 Gradient of SCF Energy
            1           2           3           4           5           6
    1   0.0027733  -0.0032415  -0.0035013  -0.0065842   0.0000430   0.0005845
    2  -0.0011353   0.0022638   0.0038662   0.0036809  -0.0020299  -0.0007221
    3  -0.0056773   0.0012004   0.0021625   0.0032790  -0.0014009  -0.0010238
            7           8           9          10          11          12
    1   0.0024387   0.0013312   0.0039129   0.0037519  -0.0035289  -0.0019203
    2  -0.0017163  -0.0022572   0.0016550  -0.0022219   0.0004039   0.0002575
    3  -0.0023634  -0.0004874   0.0000322   0.0008742   0.0035588  -0.0012879
           13          14          15          16          17          18
    1  -0.0015194  -0.0034526   0.0032860  -0.0000934   0.0022272   0.0000802
    2  -0.0010051  -0.0016754   0.0005300  -0.0009189  -0.0000778  -0.0002439
    3  -0.0006609   0.0002885   0.0000111   0.0008156  -0.0001259   0.0001816
           19          20          21          22          23          24
    1  -0.0003123   0.0004643   0.0008808   0.0002375   0.0013403   0.0000145
    2  -0.0000913  -0.0002748   0.0006348   0.0003661  -0.0001620   0.0002754
    3   0.0001200   0.0000468   0.0003581  -0.0001011   0.0003348   0.0001798
           25          26          27          28          29          30
    1  -0.0003202   0.0000761   0.0000936  -0.0016142   0.0002905  -0.0001751
    2  -0.0000797   0.0002051   0.0000707   0.0002360   0.0002668   0.0000434
    3  -0.0001253  -0.0001257   0.0002849   0.0022030  -0.0004645   0.0000087
           31          32          33          34          35
    1   0.0014847   0.0001048   0.0002292   0.0004177   0.0002004
    2   0.0009092  -0.0009488  -0.0002937   0.0001525   0.0000373
    3  -0.0018162   0.0009280  -0.0005176  -0.0008477   0.0001575
 Max gradient component =       6.584E-03
 RMS gradient           =       1.729E-03
 Gradient time:  CPU 23.77 s  wall 1.19 s
 Geometry Optimization Parameters
   NAtoms,    NIC,     NZ,  NCons,   NDum,   NFix, NCnnct, MaxDiis
       35     275       0       2       0       0       0       0

 Cartesian Hessian Update
 Hessian Updated using BFGS Update


** CONSTRAINED OPTIMIZATION IN DELOCALIZED INTERNAL COORDINATES **
   Searching for a Minimum

   Optimization Cycle:   3

                       Coordinates (Angstroms)
     ATOM                X               Y               Z
      1  C         0.0922445927    0.6974011435    0.7121800921
      2  C         0.4993788282   -0.8255595434    0.6956429195
      3  C        -1.2326085603    0.9706845444   -0.0691685476
      4  C        -0.6023698874   -1.7493185496    0.0627394820
      5  O        -1.9163682208    2.0471970878    0.5659456733
      6  O        -1.6490963576    0.3725441789   -1.0873467061
      7  O        -1.7455335975   -1.6711026927    0.9176815018
      8  O        -0.5296549229   -2.5035484201   -0.9312514780
      9  C        -2.8370601110   -2.4905716912    0.3594926490
     10  C        -3.1652508745    2.3421406683   -0.1637684723
     11  C         1.3483031061    1.3677577353   -0.0017570447
     12  C         2.5619692817    1.2971205161    1.0136234073
     13  C         2.9618481985   -0.2190923040    0.9210873429
     14  C         1.8809066266   -0.7753378880   -0.0990586864
     15  O         1.7155785741    0.3668002716   -1.0330616390
     16  H        -0.0319460973    1.0736182455    1.7431810898
     17  H         0.6821816271   -1.1863185335    1.7244116345
     18  H        -2.5668145521   -3.5663747658    0.3233267871
     19  H        -3.8343415746    1.4581230458   -0.2046247124
     20  H         3.3821993097    1.9452629813    0.6653086152
     21  H         2.2805891271    1.6113164783    2.0316915066
     22  H         3.9696612122   -0.3323219499    0.4900764205
     23  H         2.9425350822   -0.7358924067    1.8943012986
     24  H        -3.7004534040   -2.3511415126    1.0364836803
     25  H        -3.1120136889   -2.1617788008   -0.6640113277
     26  H        -2.9635206411    2.6786147378   -1.2017870705
     27  H        -3.6618326067    3.1556859210    0.3970210511
     28  C         2.3156206022   -2.0477026174   -0.8693106774
     29  H         3.3411778077   -1.9164448187   -1.2486969470
     30  H         2.2908264586   -2.9239633255   -0.2043259647
     31  H         1.6404326717   -2.2262898570   -1.7196996758
     32  C         1.1096059832    2.7532684971   -0.6543523846
     33  H         2.0454225488    3.1149435907   -1.1074006873
     34  H         0.3468896658    2.6811162167   -1.4452891910
     35  H         0.7740871665    3.4783767501    0.1029582914
   Point Group: c1    Number of degrees of freedom:    99


   Energy is   -833.446946652

              Constraints and their Current Values
                                        Value     Constraint
   Dihedral:        2   1   3   5      147.297      147.300
   Dihedral:        1   2   4   7      -64.593      -64.600
 Hessian Updated using BFGS Update

   Using Lagrange Multiplier Algorithm


 88 Hessian modes will be used to form the next step
  Hessian Eigenvalues:
    -0.977764   -0.976857    0.042954    0.045000    0.045002    0.045080
     0.045209    0.045491    0.048410    0.059143    0.060452    0.067610
     0.070103    0.071436    0.071695    0.075028    0.075997    0.078236
     0.080469    0.080908    0.081729    0.082908    0.083417    0.083634
     0.083717    0.084971    0.090092    0.091370    0.091963    0.106409
     0.108446    0.113498    0.113895    0.115993    0.116911    0.116997
     0.127369    0.131578    0.139862    0.144609    0.158693    0.160764
     0.161847    0.169818    0.185836    0.241545    0.244938    0.249277
     0.249980    0.250062    0.250559    0.260698    0.268309    0.272053
     0.283340    0.289764    0.305592    0.306845    0.308782    0.314665
     0.327250    0.337135    0.338936    0.340770    0.341071    0.341357
     0.341386    0.341755    0.342535    0.342650    0.342846    0.342864
     0.343263    0.343594    0.343688    0.343710    0.343759    0.343925
     0.344098    0.378944    0.394731    0.412065    0.477594    0.513435
     0.952294    0.986692    1.022750    1.029085

 Minimum Search - Taking P-RFO Step
 Searching for Lamda that Maximizes Along the Constraint modes Only
 Value Taken    Lamda =   0.00000900
 Searching for Lamda that Minimizes Along All other modes
 Value Taken    Lamda =  -0.00125235
 Step Taken.  Stepsize is  0.129467

                             Maximum     Tolerance    Cnvgd?
         Gradient            0.007527       0.000300      NO
         Displacement        0.038107       0.001200      NO
         Energy change     -0.006461       0.000001      NO


 New Cartesian Coordinates Obtained by Inverse Iteration

 Displacement from previous Coordinates is:  0.348022
 Adding empirical dispersion correction 
 ----------------------------------------------------------------
 Doing -D3(op) with
 s6 =   1.00000
 s8 =   0.78311
 a1 =   0.30000
 a2 =   4.25000
 n  =  10.00000
 -D3 energy without 3body term =     -0.0410843661 hartrees
 ----------------------------------------------------------------
             Standard Nuclear Orientation (Angstroms)
    I     Atom           X                Y                Z
 ----------------------------------------------------------------
    1      C       0.1038379987     0.6940520849     0.7268818941
    2      C       0.5175051777    -0.8351388605     0.7108056829
    3      C      -1.2247218301     0.9628147299    -0.0559419882
    4      C      -0.5839405621    -1.7565258213     0.0634022485
    5      O      -1.9210775541     2.0429509521     0.5771864928
    6      O      -1.6480729031     0.3572630713    -1.0668553471
    7      O      -1.7429219048    -1.6811970618     0.9133623232
    8      O      -0.5197424708    -2.4843036594    -0.9498359687
    9      C      -2.8548131868    -2.4663597197     0.3282877173
   10      C      -3.1792177318     2.3396024869    -0.1510137074
   11      C       1.3556408231     1.3627865666    -0.0072104620
   12      C       2.5773539539     1.3051442516     1.0029959362
   13      C       2.9843223261    -0.2087686951     0.9197411041
   14      C       1.8999390983    -0.7793380790    -0.0907109448
   15      O       1.7098133019     0.3527230918    -1.0347434762
   16      H      -0.0183146694     1.0815882471     1.7531314412
   17      H       0.6909305520    -1.1944688153     1.7411342821
   18      H      -2.6056339652    -3.5453982721     0.2606371538
   19      H      -3.8442508126     1.4529388478    -0.1919865751
   20      H       3.3893518598     1.9598314451     0.6479818113
   21      H       2.2905218171     1.6210466935     2.0185949709
   22      H       3.9909963961    -0.3253070947     0.4873593589
   23      H       2.9612971273    -0.7191735604     1.8956699582
   24      H      -3.7192162471    -2.3291662753     1.0041782613
   25      H      -3.1139493679    -2.1025381689    -0.6872889714
   26      H      -2.9805221631     2.6747080546    -1.1898146775
   27      H      -3.6766293957     3.1518797842     0.4105346037
   28      C       2.3279018906    -2.0631476808    -0.8515255758
   29      H       3.3460523846    -1.9392818269    -1.2506430537
   30      H       2.3158177929    -2.9270891174    -0.1699572606
   31      H       1.6258656362    -2.2593232955    -1.6751519733
   32      C       1.0920691423     2.7446079776    -0.6640758742
   33      H       2.0152741788     3.1192212542    -1.1310950905
   34      H       0.3141857808     2.6552591515    -1.4375423499
   35      H       0.7569409001     3.4673202469     0.0957502863
 ----------------------------------------------------------------
 Molecular Point Group                 C1    NOp =  1
 Largest Abelian Subgroup              C1    NOp =  1
 Nuclear Repulsion Energy =  1371.2837753268 hartrees
 There are       65 alpha and       65 beta electrons
 Applying Cartesian multipole field
    Component          Value
    ---------          -----
     (2,0,0)        1.00000E-11
     (0,2,0)        2.00000E-11
     (0,0,2)       -3.00000E-11
 Nucleus-field energy     =     0.0000000382 hartrees
 Requested basis set is STO-3G
 There are 52 shells and 103 basis functions
 A cutoff of  1.0D-12 yielded   1200 shell pairs
 There are      5178 function pairs
 Smallest overlap matrix eigenvalue = 2.13E-01
 Guess MOs from SCF MO coefficient file
 Reading MOs from coefficient file
 Reading MOs from coefficient file
 A restricted hybrid HF-DFT SCF calculation will be
 performed using Pulay DIIS extrapolation
 Exchange:     0.2000 Hartree-Fock + 0.0800 Slater + 0.7200 B88
 Correlation:  0.1900 VWN1RPA + 0.8100 LYP
 Using SG-1 standard quadrature grid
 Dispersion:   Grimme D3
 SCF converges when DIIS error is below 1.0E-08
 Geometry optimization detected.  Setting ReadMinima to 0
 Setting SaveMinima to 0
 -------------------------------------------------------
 OpenMP Integral computing Module                
 Release: version 1.0, May 2013, Q-Chem Inc. Pittsburgh 
 -------------------------------------------------------
 -------------------------------------------------------
 OpenMP BLAS3 based DFT computing Module                
 Release: version 1.0, May 2013, Q-Chem Inc. Pittsburgh 
 -------------------------------------------------------
 ---------------------------------------
  Cycle       Energy         DIIS Error
 ---------------------------------------
    1    -833.4306600122      1.52E-03
    2    -833.4474078664      3.56E-04
    3    -833.4466895579      7.85E-04
    4    -833.4476080504      6.31E-05
    5    -833.4476140532      2.02E-05
    6    -833.4476145148      1.10E-05
    7    -833.4476146668      5.09E-06
    8    -833.4476147064      9.48E-07
    9    -833.4476147079      1.18E-07
   10    -833.4476147079      2.99E-08
   11    -833.4476147079      1.25E-08
   12    -833.4476147079      3.92E-09 Convergence criterion met
 ---------------------------------------
 SCF time:  CPU 118.56 s  wall 5.79 s
 SCF   energy in the final basis set = -833.4476147079
 Total energy in the final basis set = -833.4476147079
 
 --------------------------------------------------------------
 
                    Orbital Energies (a.u.)
 --------------------------------------------------------------
 
 Alpha MOs
 -- Occupied --
-18.934 -18.920 -18.873 -18.872 -18.868 -10.097 -10.092 -10.064
-10.061 -10.057 -10.056 -10.032 -10.030 -10.015 -10.013 -10.011
-10.003  -1.011  -0.999  -0.961  -0.934  -0.926  -0.759  -0.736
 -0.718  -0.674  -0.670  -0.653  -0.616  -0.588  -0.531  -0.511
 -0.478  -0.470  -0.451  -0.434  -0.423  -0.415  -0.413  -0.402
 -0.399  -0.384  -0.381  -0.378  -0.367  -0.362  -0.352  -0.342
 -0.335  -0.329  -0.310  -0.296  -0.293  -0.288  -0.286  -0.274
 -0.263  -0.252  -0.245  -0.223  -0.177  -0.167  -0.152  -0.142
 -0.135
 -- Virtual --
  0.096   0.116   0.232   0.254   0.268   0.287   0.304   0.323
  0.340   0.341   0.358   0.369   0.382   0.390   0.401   0.409
  0.414   0.420   0.424   0.427   0.431   0.432   0.439   0.440
  0.448   0.457   0.463   0.470   0.480   0.481   0.487   0.495
  0.506   0.514   0.547   0.556   0.650   0.657
 --------------------------------------------------------------
 
          Ground-State Mulliken Net Atomic Charges

     Atom                 Charge (a.u.)
  ----------------------------------------
      1 C                    -0.080256
      2 C                    -0.080842
      3 C                     0.211598
      4 C                     0.214425
      5 O                    -0.169424
      6 O                    -0.214106
      7 O                    -0.177912
      8 O                    -0.210014
      9 C                    -0.129456
     10 C                    -0.128745
     11 C                     0.105405
     12 C                    -0.145788
     13 C                    -0.145289
     14 C                     0.105106
     15 O                    -0.197189
     16 H                     0.085233
     17 H                     0.082741
     18 H                     0.086159
     19 H                     0.089660
     20 H                     0.074654
     21 H                     0.071186
     22 H                     0.074414
     23 H                     0.070070
     24 H                     0.086392
     25 H                     0.092357
     26 H                     0.088180
     27 H                     0.090305
     28 C                    -0.228887
     29 H                     0.077948
     30 H                     0.077649
     31 H                     0.101503
     32 C                    -0.227334
     33 H                     0.083431
     34 H                     0.084251
     35 H                     0.082579
  ----------------------------------------
  Sum of atomic charges =     0.000000

 -----------------------------------------------------------------
                    Cartesian Multipole Moments
 -----------------------------------------------------------------
    Charge (ESU x 10^10)
                 0.0000
    Dipole Moment (Debye)
         X      -0.4735      Y       1.1560      Z       2.1163
       Tot       2.4574
    Quadrupole Moments (Debye-Ang)
        XX     -83.8966     XY      -0.9179     YY     -89.2956
        XZ       1.9830     YZ      -3.5086     ZZ     -96.6333
    Octopole Moments (Debye-Ang^2)
       XXX     -49.1370    XXY      -1.2091    XYY     -18.5938
       YYY       0.2300    XXZ      -2.7487    XYZ       3.7043
       YYZ      -0.8348    XZZ      -4.7593    YZZ       1.0078
       ZZZ      -6.8224
    Hexadecapole Moments (Debye-Ang^3)
      XXXX   -2213.8484   XXXY     -16.2504   XXYY    -620.0597
      XYYY      -2.9987   YYYY   -1766.6130   XXXZ     -34.1606
      XXYZ      -9.7637   XYYZ      -6.7286   YYYZ     -40.0143
      XXZZ    -473.5405   XYZZ      -7.9263   YYZZ    -373.5160
      XZZZ      -9.7238   YZZZ      -9.9894   ZZZZ    -408.8906
 -----------------------------------------------------------------
 Calculating analytic gradient of the SCF energy
 Gradient of SCF Energy
            1           2           3           4           5           6
    1   0.0019542  -0.0011287   0.0019114   0.0007808  -0.0001505  -0.0004887
    2   0.0004766  -0.0004585   0.0012076   0.0013398  -0.0009923  -0.0010504
    3  -0.0012797   0.0021327   0.0003252   0.0005839   0.0004362  -0.0008142
            7           8           9          10          11          12
    1   0.0003052   0.0001172  -0.0017240  -0.0015259  -0.0013042  -0.0002474
    2   0.0001332  -0.0012276  -0.0004132   0.0011860   0.0006714  -0.0001200
    3  -0.0002841  -0.0005488   0.0005390   0.0002276   0.0019951   0.0004935
           13          14          15          16          17          18
    1   0.0002910  -0.0010729   0.0012879  -0.0005050   0.0012944  -0.0000110
    2  -0.0004390  -0.0008423   0.0003801  -0.0002925   0.0003669  -0.0000514
    3   0.0005988   0.0000763  -0.0014774  -0.0000514  -0.0002935  -0.0001774
           19          20          21          22          23          24
    1  -0.0000338   0.0000792   0.0002475   0.0000684   0.0005614  -0.0003885
    2  -0.0000092  -0.0000643   0.0002802   0.0002150  -0.0001067  -0.0001515
    3  -0.0001963  -0.0002413   0.0000530  -0.0002823  -0.0000265  -0.0000960
           25          26          27          28          29          30
    1   0.0000364  -0.0001355  -0.0003817  -0.0003267   0.0003304  -0.0005731
    2  -0.0002563  -0.0001278   0.0001706  -0.0006392  -0.0000778  -0.0001108
    3  -0.0001289  -0.0001274  -0.0001234  -0.0005539   0.0004706  -0.0002457
           31          32          33          34          35
    1   0.0007425  -0.0001955   0.0000972   0.0000185   0.0000695
    2   0.0006391   0.0005578  -0.0001270  -0.0001646   0.0000980
    3  -0.0005385  -0.0005467   0.0001021  -0.0000002  -0.0000003
 Max gradient component =       2.133E-03
 RMS gradient           =       7.043E-04
 Gradient time:  CPU 27.39 s  wall 1.18 s
 Geometry Optimization Parameters
   NAtoms,    NIC,     NZ,  NCons,   NDum,   NFix, NCnnct, MaxDiis
       35     275       0       2       0       0       0       0

 Cartesian Hessian Update
 Hessian Updated using BFGS Update


** CONSTRAINED OPTIMIZATION IN DELOCALIZED INTERNAL COORDINATES **
   Searching for a Minimum

   Optimization Cycle:   4

                       Coordinates (Angstroms)
     ATOM                X               Y               Z
      1  C         0.1038379987    0.6940520849    0.7268818941
      2  C         0.5175051777   -0.8351388605    0.7108056829
      3  C        -1.2247218301    0.9628147299   -0.0559419882
      4  C        -0.5839405621   -1.7565258213    0.0634022485
      5  O        -1.9210775541    2.0429509521    0.5771864928
      6  O        -1.6480729031    0.3572630713   -1.0668553471
      7  O        -1.7429219048   -1.6811970618    0.9133623232
      8  O        -0.5197424708   -2.4843036594   -0.9498359687
      9  C        -2.8548131868   -2.4663597197    0.3282877173
     10  C        -3.1792177318    2.3396024869   -0.1510137074
     11  C         1.3556408231    1.3627865666   -0.0072104620
     12  C         2.5773539539    1.3051442516    1.0029959362
     13  C         2.9843223261   -0.2087686951    0.9197411041
     14  C         1.8999390983   -0.7793380790   -0.0907109448
     15  O         1.7098133019    0.3527230918   -1.0347434762
     16  H        -0.0183146694    1.0815882471    1.7531314412
     17  H         0.6909305520   -1.1944688153    1.7411342821
     18  H        -2.6056339652   -3.5453982721    0.2606371538
     19  H        -3.8442508126    1.4529388478   -0.1919865751
     20  H         3.3893518598    1.9598314451    0.6479818113
     21  H         2.2905218171    1.6210466935    2.0185949709
     22  H         3.9909963961   -0.3253070947    0.4873593589
     23  H         2.9612971273   -0.7191735604    1.8956699582
     24  H        -3.7192162471   -2.3291662753    1.0041782613
     25  H        -3.1139493679   -2.1025381689   -0.6872889714
     26  H        -2.9805221631    2.6747080546   -1.1898146775
     27  H        -3.6766293957    3.1518797842    0.4105346037
     28  C         2.3279018906   -2.0631476808   -0.8515255758
     29  H         3.3460523846   -1.9392818269   -1.2506430537
     30  H         2.3158177929   -2.9270891174   -0.1699572606
     31  H         1.6258656362   -2.2593232955   -1.6751519733
     32  C         1.0920691423    2.7446079776   -0.6640758742
     33  H         2.0152741788    3.1192212542   -1.1310950905
     34  H         0.3141857808    2.6552591515   -1.4375423499
     35  H         0.7569409001    3.4673202469    0.0957502863
   Point Group: c1    Number of degrees of freedom:    99


   Energy is   -833.447614708

              Constraints and their Current Values
                                        Value     Constraint
   Dihedral:        2   1   3   5      147.300      147.300
   Dihedral:        1   2   4   7      -64.600      -64.600
 Hessian Updated using BFGS Update

   Using Lagrange Multiplier Algorithm


 89 Hessian modes will be used to form the next step
  Hessian Eigenvalues:
    -0.975861    0.028658    0.045000    0.045002    0.045012    0.045074
     0.045372    0.046053    0.048107    0.057513    0.060536    0.067242
     0.070127    0.071382    0.071762    0.074089    0.075797    0.078177
     0.080712    0.080943    0.081748    0.083008    0.083416    0.083635
     0.083800    0.084957    0.090071    0.091542    0.091978    0.106407
     0.107763    0.113880    0.114529    0.116145    0.116915    0.116998
     0.127683    0.131381    0.139923    0.144629    0.158698    0.160345
     0.161109    0.162290    0.168168    0.185888    0.240254    0.243675
     0.249173    0.249999    0.250053    0.250061    0.250574    0.260681
     0.268275    0.283129    0.289289    0.291836    0.305851    0.306848
     0.308810    0.321357    0.327255    0.337447    0.339243    0.341066
     0.341115    0.341385    0.341608    0.342511    0.342643    0.342823
     0.342863    0.343120    0.343512    0.343616    0.343686    0.343750
     0.343877    0.344090    0.345973    0.379766    0.412048    0.451261
     0.512846    0.537680    0.952449    0.983428    1.032187

 Minimum Search - Taking P-RFO Step
 Searching for Lamda that Maximizes Along the Constraint modes Only
 Value Taken    Lamda =   0.00000038
 Searching for Lamda that Minimizes Along All other modes
 Value Taken    Lamda =  -0.00035124
 Step Taken.  Stepsize is  0.093916

                             Maximum     Tolerance    Cnvgd?
         Gradient            0.003404       0.000300      NO
         Displacement        0.032143       0.001200      NO
         Energy change     -0.000668       0.000001      NO


 New Cartesian Coordinates Obtained by Inverse Iteration

 Displacement from previous Coordinates is:  0.279087
 Adding empirical dispersion correction 
 ----------------------------------------------------------------
 Doing -D3(op) with
 s6 =   1.00000
 s8 =   0.78311
 a1 =   0.30000
 a2 =   4.25000
 n  =  10.00000
 -D3 energy without 3body term =     -0.0411996891 hartrees
 ----------------------------------------------------------------
             Standard Nuclear Orientation (Angstroms)
    I     Atom           X                Y                Z
 ----------------------------------------------------------------
    1      C       0.1056273947     0.6885291982     0.7348552233
    2      C       0.5232066437    -0.8411070670     0.7188766693
    3      C      -1.2255680570     0.9576446062    -0.0427906820
    4      C      -0.5765818495    -1.7596929363     0.0649441851
    5      O      -1.9166729527     2.0385512426     0.5969946747
    6      O      -1.6556995259     0.3574371998    -1.0533898760
    7      O      -1.7386658445    -1.6839241511     0.9129530348
    8      O      -0.5170250075    -2.4712415279    -0.9592938485
    9      C      -2.8508112320    -2.4457912273     0.2994098308
   10      C      -3.1716148651     2.3347379526    -0.1357361222
   11      C       1.3522670718     1.3561754999    -0.0146712764
   12      C       2.5791745087     1.3117768190     0.9901230168
   13      C       2.9903006441    -0.2000412695     0.9167851398
   14      C       1.9048810359    -0.7826246949    -0.0847123606
   15      O       1.6974890659     0.3391140111    -1.0368803495
   16      H      -0.0114652410     1.0814505232     1.7596800616
   17      H       0.6893331437    -1.1999226017     1.7508738859
   18      H      -2.6111637563    -3.5253462898     0.2090243023
   19      H      -3.8361135288     1.4477282410    -0.1793231233
   20      H       3.3862685737     1.9697810982     0.6306606067
   21      H       2.2898267153     1.6306004521     2.0039866723
   22      H       3.9966995221    -0.3199585031     0.4854316806
   23      H       2.9649483813    -0.7028995173     1.8965018555
   24      H      -3.7182799698    -2.3148984377     0.9721183694
   25      H      -3.0969309159    -2.0541065326    -0.7091617157
   26      H      -2.9690010004     2.6720423374    -1.1731012631
   27      H      -3.6686822097     3.1459166566     0.4271187694
   28      C       2.3316976504    -2.0743710003    -0.8325519937
   29      H       3.3419922698    -1.9520976157    -1.2507165101
   30      H       2.3369213460    -2.9256160061    -0.1348036439
   31      H       1.6125152340    -2.2919872780    -1.6360625975
   32      C       1.0745798883     2.7341241741    -0.6739873394
   33      H       1.9896125481     3.1157345137    -1.1511036151
   34      H       0.2881312063     2.6379907448    -1.4377970188
   35      H       0.7413964860     3.4555043195     0.0879875882
 ----------------------------------------------------------------
 Molecular Point Group                 C1    NOp =  1
 Largest Abelian Subgroup              C1    NOp =  1
 Nuclear Repulsion Energy =  1372.6479760919 hartrees
 There are       65 alpha and       65 beta electrons
 Applying Cartesian multipole field
    Component          Value
    ---------          -----
     (2,0,0)        1.00000E-11
     (0,2,0)        2.00000E-11
     (0,0,2)       -3.00000E-11
 Nucleus-field energy     =     0.0000000381 hartrees
 Requested basis set is STO-3G
 There are 52 shells and 103 basis functions
 A cutoff of  1.0D-12 yielded   1202 shell pairs
 There are      5183 function pairs
 Smallest overlap matrix eigenvalue = 2.13E-01
 Guess MOs from SCF MO coefficient file
 Reading MOs from coefficient file
 Reading MOs from coefficient file
 A restricted hybrid HF-DFT SCF calculation will be
 performed using Pulay DIIS extrapolation
 Exchange:     0.2000 Hartree-Fock + 0.0800 Slater + 0.7200 B88
 Correlation:  0.1900 VWN1RPA + 0.8100 LYP
 Using SG-1 standard quadrature grid
 Dispersion:   Grimme D3
 SCF converges when DIIS error is below 1.0E-08
 Geometry optimization detected.  Setting ReadMinima to 0
 Setting SaveMinima to 0
 -------------------------------------------------------
 OpenMP Integral computing Module                
 Release: version 1.0, May 2013, Q-Chem Inc. Pittsburgh 
 -------------------------------------------------------
 -------------------------------------------------------
 OpenMP BLAS3 based DFT computing Module                
 Release: version 1.0, May 2013, Q-Chem Inc. Pittsburgh 
 -------------------------------------------------------
 ---------------------------------------
  Cycle       Energy         DIIS Error
 ---------------------------------------
    1    -833.4461377963      9.29E-04
    2    -833.4478296766      1.00E-04
    3    -833.4477979562      1.90E-04
    4    -833.4478489115      3.78E-05
    5    -833.4478509048      1.28E-05
    6    -833.4478511469      4.72E-06
    7    -833.4478511784      1.71E-06
    8    -833.4478511825      5.00E-07
    9    -833.4478511830      8.60E-08
   10    -833.4478511830      3.43E-08
   11    -833.4478511830      8.12E-09 Convergence criterion met
 ---------------------------------------
 SCF time:  CPU 102.80 s  wall 4.98 s
 SCF   energy in the final basis set = -833.4478511830
 Total energy in the final basis set = -833.4478511830
 
 --------------------------------------------------------------
 
                    Orbital Energies (a.u.)
 --------------------------------------------------------------
 
 Alpha MOs
 -- Occupied --
-18.934 -18.921 -18.874 -18.872 -18.869 -10.097 -10.092 -10.064
-10.061 -10.057 -10.056 -10.031 -10.030 -10.015 -10.014 -10.011
-10.003  -1.011  -1.000  -0.962  -0.934  -0.927  -0.759  -0.736
 -0.719  -0.674  -0.670  -0.652  -0.616  -0.588  -0.531  -0.511
 -0.478  -0.470  -0.451  -0.434  -0.423  -0.415  -0.413  -0.403
 -0.399  -0.385  -0.381  -0.378  -0.367  -0.362  -0.352  -0.342
 -0.335  -0.329  -0.311  -0.296  -0.293  -0.289  -0.286  -0.274
 -0.263  -0.252  -0.246  -0.223  -0.177  -0.168  -0.152  -0.143
 -0.136
 -- Virtual --
  0.095   0.116   0.233   0.254   0.269   0.288   0.304   0.323
  0.339   0.341   0.358   0.369   0.381   0.391   0.401   0.409
  0.414   0.420   0.424   0.427   0.432   0.432   0.438   0.440
  0.448   0.456   0.463   0.471   0.480   0.481   0.487   0.496
  0.506   0.514   0.546   0.556   0.651   0.658
 --------------------------------------------------------------
 
          Ground-State Mulliken Net Atomic Charges

     Atom                 Charge (a.u.)
  ----------------------------------------
      1 C                    -0.080369
      2 C                    -0.080870
      3 C                     0.211478
      4 C                     0.214651
      5 O                    -0.169287
      6 O                    -0.214439
      7 O                    -0.177380
      8 O                    -0.209442
      9 C                    -0.129727
     10 C                    -0.128933
     11 C                     0.105639
     12 C                    -0.145847
     13 C                    -0.145448
     14 C                     0.105266
     15 O                    -0.197004
     16 H                     0.085030
     17 H                     0.082497
     18 H                     0.086274
     19 H                     0.089638
     20 H                     0.074802
     21 H                     0.071377
     22 H                     0.074730
     23 H                     0.070344
     24 H                     0.086126
     25 H                     0.092633
     26 H                     0.088064
     27 H                     0.090018
     28 C                    -0.229702
     29 H                     0.078005
     30 H                     0.077090
     31 H                     0.102093
     32 C                    -0.227492
     33 H                     0.083383
     34 H                     0.084191
     35 H                     0.082612
[...]
 C          0.000  0.000 -0.000    0.000  0.000 -0.000   -0.001  0.000 -0.001
 C         -0.000 -0.000  0.000    0.015  0.032  0.021    0.020  0.040  0.021
 C         -0.001  0.001 -0.001   -0.032  0.022 -0.030    0.011 -0.013  0.019
 C          0.000  0.000 -0.000    0.000  0.000  0.000   -0.001 -0.001 -0.001
 O         -0.000 -0.000  0.000   -0.000 -0.000 -0.000    0.000 -0.000  0.000
 H          0.001 -0.002 -0.004   -0.007  0.023  0.063    0.003 -0.010 -0.029
 H         -0.003  0.006 -0.021   -0.041  0.084 -0.287    0.082 -0.168  0.576
 H         -0.106  0.407  0.011    0.006 -0.025 -0.001   -0.005  0.021  0.001
 H          0.274  0.365  0.049    0.002  0.002  0.000    0.001  0.001  0.000
 H          0.001  0.001 -0.001   -0.302 -0.244  0.154   -0.375 -0.303  0.191
 H          0.000 -0.000 -0.001    0.135 -0.139 -0.399    0.148 -0.152 -0.431
 H          0.016 -0.001 -0.006    0.410 -0.031 -0.158   -0.144  0.010  0.059
 H         -0.002 -0.009  0.019   -0.046 -0.233  0.504    0.025  0.133 -0.282
 H          0.223 -0.050 -0.201   -0.014  0.003  0.013    0.011 -0.003 -0.010
 H          0.107 -0.136  0.376   -0.007  0.008 -0.023    0.006 -0.007  0.019
 H         -0.103 -0.202  0.431   -0.000 -0.001  0.002   -0.000 -0.000  0.001
 H          0.134 -0.219 -0.204    0.001 -0.001 -0.001    0.000 -0.000 -0.000
 C          0.001 -0.001  0.000   -0.005  0.005  0.000    0.000 -0.000  0.000
 H         -0.009 -0.002  0.004    0.071  0.018 -0.028   -0.002 -0.001  0.001
 H         -0.001  0.010 -0.008    0.006 -0.065  0.053   -0.000  0.003 -0.003
 H          0.003  0.001  0.004   -0.022 -0.010 -0.029   -0.000  0.001  0.001
 C         -0.000  0.000  0.000   -0.001  0.004 -0.002   -0.001  0.003 -0.001
 H         -0.001 -0.000  0.001   -0.037 -0.015  0.019   -0.027 -0.011  0.014
 H          0.002  0.001  0.003    0.032  0.007  0.034    0.028  0.005  0.030
 H          0.002 -0.003 -0.003    0.017 -0.034 -0.032    0.014 -0.027 -0.025
 TransDip  -0.225 -0.014 -0.045   -0.065  0.164 -0.005    0.088  0.117  0.051

 Mode:                88                     89                     90
 Frequency:      3067.68                3090.51                3099.25
 Force Cnst:      5.9439                 6.2290                 6.2376
 Red. Mass:       1.0720                 1.1069                 1.1022
 IR Active:          YES                    YES                    YES
 IR Intens:       28.531                  0.260                 12.796
 Raman Active:       YES                    YES                    YES
               X      Y      Z        X      Y      Z        X      Y      Z
 C         -0.001  0.004  0.010   -0.001  0.002  0.007   -0.001  0.002  0.006
 C         -0.007  0.017 -0.055    0.001 -0.003  0.009    0.000 -0.000  0.001
 C          0.000 -0.000  0.000   -0.000  0.000  0.000   -0.000  0.000  0.000
 C          0.000 -0.000 -0.001   -0.000  0.000  0.000    0.000 -0.000 -0.000
 O         -0.000  0.000 -0.000    0.000 -0.000 -0.000   -0.000 -0.000 -0.000
 O         -0.000 -0.000 -0.000    0.000 -0.000  0.000    0.000 -0.000 -0.000
 O         -0.000 -0.000  0.000   -0.000 -0.000 -0.000   -0.000  0.000  0.000
 O         -0.000  0.000  0.000    0.000 -0.000 -0.000   -0.000  0.000  0.000
 C         -0.000 -0.001 -0.000    0.000  0.000 -0.000   -0.000  0.000  0.000
 C          0.000 -0.000  0.000   -0.000 -0.000  0.000    0.000  0.000 -0.000
 C          0.001 -0.001  0.000    0.001  0.000 -0.000    0.000  0.000 -0.000
 C         -0.007 -0.019 -0.012    0.042  0.011 -0.053    0.017  0.004 -0.020
 C         -0.034  0.018 -0.017   -0.041 -0.011  0.045    0.002  0.001 -0.003
 C         -0.000  0.001  0.000   -0.000 -0.000  0.000   -0.001 -0.001  0.001
 O          0.000 -0.000  0.000   -0.000  0.000  0.000   -0.000  0.000 -0.000
 H          0.013 -0.043 -0.120    0.007 -0.030 -0.079    0.007 -0.025 -0.069
 H          0.094 -0.193  0.664   -0.015  0.034 -0.115   -0.001  0.003 -0.012
 H         -0.002  0.009  0.000    0.000 -0.001 -0.000    0.001 -0.003 -0.000
 H         -0.004 -0.005 -0.001    0.000  0.000  0.000   -0.001 -0.001 -0.000
 H          0.166  0.134 -0.085   -0.361 -0.301  0.169   -0.143 -0.120  0.067
 H         -0.077  0.080  0.224   -0.144  0.172  0.457   -0.055  0.066  0.173
 H          0.424 -0.034 -0.158    0.467 -0.043 -0.162   -0.020  0.003  0.009
 H         -0.034 -0.168  0.362    0.021  0.176 -0.377   -0.002 -0.015  0.028
 H          0.005 -0.001 -0.004   -0.001  0.000  0.001    0.000 -0.000 -0.000
 H          0.002 -0.002  0.007   -0.000  0.000 -0.001    0.000 -0.000  0.000
 H          0.002  0.003 -0.007    0.000  0.000 -0.001    0.000  0.000 -0.000
 H         -0.002  0.003  0.003   -0.000  0.000  0.000   -0.000  0.000  0.000
 C         -0.003  0.004  0.000    0.009  0.012 -0.010   -0.043 -0.054  0.055
 H          0.051  0.012 -0.021   -0.117 -0.029  0.042    0.610  0.146 -0.222
 H          0.005 -0.051  0.041    0.014 -0.111  0.092   -0.065  0.523 -0.430
 H         -0.020 -0.009 -0.026   -0.001  0.001 -0.009   -0.023 -0.020 -0.002
 C          0.000 -0.001  0.000   -0.006  0.000  0.002   -0.003  0.000  0.001
 H          0.009  0.004 -0.005    0.044  0.017 -0.021    0.025  0.010 -0.012
 H         -0.009 -0.001 -0.010    0.013  0.003  0.016    0.006  0.001  0.007
 H         -0.004  0.008  0.008    0.010 -0.022 -0.021    0.006 -0.013 -0.013
 TransDip  -0.116  0.054 -0.114    0.005  0.011 -0.011   -0.072 -0.061  0.064

 Mode:                91                     92                     93
 Frequency:      3108.44                3110.50                3116.71
 Force Cnst:      6.2811                 6.2745                 6.3106
 Red. Mass:       1.1033                 1.1007                 1.1026
 IR Active:          YES                    YES                    YES
 IR Intens:       14.742                 29.097                 20.085
 Raman Active:       YES                    YES                    YES
               X      Y      Z        X      Y      Z        X      Y      Z
 C          0.003 -0.010 -0.026    0.003 -0.009 -0.024   -0.000  0.002  0.005
 C          0.000 -0.000  0.002   -0.000  0.001 -0.001    0.000 -0.000  0.001
 C          0.000 -0.001 -0.001    0.001 -0.000 -0.000    0.000  0.000 -0.000
 C          0.000  0.000  0.000    0.000  0.000  0.000   -0.000  0.000  0.000
 O         -0.000  0.000  0.000   -0.000 -0.000  0.000    0.000 -0.000 -0.000
 O          0.000  0.000  0.000    0.000  0.000 -0.000   -0.000 -0.000  0.000
 O         -0.000 -0.000  0.000   -0.000 -0.000  0.000    0.000 -0.000 -0.000
 O         -0.000 -0.000 -0.000   -0.000 -0.000 -0.000    0.000 -0.000 -0.000
 C         -0.000  0.000 -0.000    0.000 -0.000  0.000    0.000 -0.001  0.000
 C          0.000  0.001 -0.001   -0.000 -0.001  0.001   -0.001 -0.002  0.002
 C         -0.000 -0.000 -0.000   -0.001  0.000  0.002   -0.002 -0.001 -0.001
 C         -0.028 -0.008  0.032   -0.015 -0.005  0.017   -0.008 -0.002  0.010
 C         -0.040 -0.011  0.045   -0.017 -0.005  0.019   -0.005 -0.002  0.006
 C         -0.001 -0.001  0.001   -0.001 -0.000  0.001   -0.000 -0.000  0.000
 O          0.000  0.000 -0.000    0.000 -0.000 -0.000    0.000  0.000 -0.000
 H         -0.032  0.112  0.303   -0.029  0.103  0.277    0.007 -0.024 -0.064
 H         -0.001  0.006 -0.021    0.003 -0.004  0.012   -0.002  0.005 -0.018
 H          0.001 -0.004 -0.000   -0.000  0.000  0.000   -0.001  0.005  0.000
 H         -0.003 -0.004 -0.001    0.004  0.005  0.001    0.012  0.016  0.003
 H          0.246  0.207 -0.117    0.138  0.116 -0.064    0.075  0.061 -0.033
 H          0.086 -0.105 -0.270    0.046 -0.055 -0.145    0.027 -0.032 -0.084
 H          0.459 -0.043 -0.159    0.194 -0.019 -0.067    0.064 -0.006 -0.022
 H          0.021  0.178 -0.376    0.008  0.074 -0.156    0.003  0.027 -0.055
 H         -0.000 -0.000 -0.000   -0.000  0.000  0.000   -0.001  0.000  0.001
 H          0.000 -0.000  0.000   -0.001  0.001 -0.002   -0.001  0.002 -0.005
 H         -0.002 -0.004  0.009    0.001  0.003 -0.006    0.005  0.009 -0.021
 H          0.001 -0.001 -0.001   -0.000 -0.000 -0.000    0.001 -0.002 -0.002
 C         -0.009 -0.011  0.012   -0.004 -0.004  0.005   -0.001 -0.001  0.001
 H          0.135  0.031 -0.050    0.054  0.012 -0.020    0.014  0.003 -0.005
 H         -0.013  0.105 -0.086   -0.005  0.040 -0.033   -0.001  0.010 -0.008
 H         -0.011 -0.007 -0.010   -0.005 -0.003 -0.004   -0.002 -0.001 -0.002
 C          0.033 -0.008 -0.029   -0.043  0.023  0.064   -0.073 -0.036 -0.041
 H         -0.294 -0.124  0.146    0.458  0.197 -0.225    0.418  0.170 -0.230
 H          0.007 -0.002 -0.007   -0.156 -0.027 -0.136    0.553  0.116  0.573
 H         -0.104  0.221  0.206    0.215 -0.447 -0.415   -0.094  0.155  0.147
 TransDip  -0.082 -0.064  0.065   -0.125 -0.025  0.116   -0.133 -0.053 -0.006

 Mode:                94                     95                     96
 Frequency:      3118.53                3122.18                3123.46
 Force Cnst:      6.2425                 6.3577                 6.3639
 Red. Mass:       1.0895                 1.1070                 1.1071
 IR Active:          YES                    YES                    YES
 IR Intens:       26.155                 20.333                 14.038
 Raman Active:       YES                    YES                    YES
               X      Y      Z        X      Y      Z        X      Y      Z
 C          0.007 -0.026 -0.069    0.000  0.000 -0.000   -0.000  0.000  0.000
 C         -0.002  0.004 -0.010   -0.000  0.000 -0.000    0.000 -0.000  0.000
 C          0.001 -0.001 -0.001   -0.000 -0.000  0.000    0.000  0.000  0.000
 C          0.000  0.000 -0.000    0.000  0.000 -0.000   -0.000 -0.000 -0.000
 O         -0.000  0.000  0.000   -0.000 -0.000  0.000   -0.000 -0.000  0.000
 O          0.000  0.000  0.001   -0.000 -0.000  0.000   -0.000 -0.000 -0.000
 O         -0.000 -0.000  0.000   -0.000 -0.000  0.000   -0.000  0.000 -0.000
 O         -0.000  0.000  0.000   -0.000 -0.000  0.000    0.000  0.000 -0.000
 C          0.000 -0.001  0.001   -0.004  0.008 -0.005    0.032 -0.075  0.048
 C         -0.001 -0.000  0.000    0.048  0.067 -0.046    0.005  0.007 -0.005
 C          0.000 -0.001 -0.001   -0.000 -0.000  0.000    0.000  0.000 -0.000
 C          0.018  0.002 -0.026    0.000 -0.000 -0.000   -0.000  0.000  0.000
 C          0.014  0.005 -0.018    0.000  0.000 -0.000   -0.000 -0.000  0.000
 C         -0.000  0.001 -0.001    0.000  0.000 -0.000    0.000 -0.000  0.000
 O         -0.000  0.000  0.001    0.000 -0.000  0.000   -0.000  0.000 -0.000
 H         -0.089  0.302  0.816   -0.001  0.002  0.004    0.001 -0.002 -0.006
 H          0.019 -0.041  0.131    0.000 -0.001  0.002   -0.000  0.001 -0.002
 H         -0.001  0.006  0.000    0.020 -0.075 -0.004   -0.182  0.683  0.033
 H          0.006  0.008  0.001   -0.415 -0.563 -0.094   -0.044 -0.059 -0.010
 H         -0.142 -0.120  0.068   -0.000 -0.000  0.000    0.000  0.000 -0.000
 H         -0.079  0.094  0.248   -0.000  0.000  0.001    0.000 -0.000 -0.001
 H         -0.160  0.016  0.055   -0.002  0.000  0.001    0.001 -0.000 -0.000
 H         -0.009 -0.075  0.157   -0.000 -0.001  0.002    0.000  0.001 -0.002
 H          0.001 -0.000 -0.001    0.005  0.000 -0.006   -0.023 -0.008  0.035
 H         -0.001  0.002 -0.005    0.017 -0.022  0.065   -0.170  0.214 -0.635
 H          0.000 -0.000  0.000   -0.142 -0.272  0.619   -0.015 -0.030  0.067
 H          0.002 -0.004 -0.004   -0.009  0.043  0.018   -0.002  0.006  0.004
 C          0.002  0.002 -0.002    0.000  0.000 -0.000   -0.000 -0.000  0.000
 H         -0.026 -0.006  0.010   -0.001 -0.000  0.001    0.001  0.000 -0.001
 H          0.003 -0.020  0.016    0.000 -0.001  0.001   -0.000  0.002 -0.002
 H          0.001  0.001  0.001    0.000  0.000 -0.000   -0.000 -0.000 -0.000
 C         -0.004 -0.008 -0.014   -0.003 -0.001 -0.000    0.000  0.000  0.000
 H         -0.001 -0.002 -0.002    0.020  0.008 -0.010   -0.003 -0.001  0.001
 H          0.089  0.017  0.090    0.017  0.004  0.019   -0.003 -0.001 -0.003
 H         -0.043  0.085  0.078    0.000 -0.002 -0.002    0.000 -0.001 -0.001
 TransDip   0.052 -0.029 -0.152    0.068  0.104 -0.073    0.038 -0.101  0.052

 Mode:                97                     98                     99
 Frequency:      3152.51                3156.24                3165.33
 Force Cnst:      6.4790                 6.4921                 6.4726
 Red. Mass:       1.1065                 1.1061                 1.0965
 IR Active:          YES                    YES                    YES
 IR Intens:       14.035                 14.384                  2.163
 Raman Active:       YES                    YES                    YES
               X      Y      Z        X      Y      Z        X      Y      Z
 C         -0.000  0.000  0.000    0.000  0.000 -0.000    0.000 -0.000 -0.000
 C          0.000 -0.000 -0.000   -0.000  0.000 -0.000    0.000 -0.000 -0.000
 C         -0.000  0.000  0.000   -0.001 -0.000 -0.001    0.000 -0.000 -0.000
 C          0.000  0.001  0.001   -0.000  0.000 -0.000    0.000 -0.000 -0.000
 O          0.000 -0.000 -0.000   -0.000  0.000  0.000   -0.000  0.000 -0.000
 O         -0.000 -0.000 -0.000    0.000  0.000  0.000    0.000  0.000  0.000
 O          0.000 -0.000 -0.000    0.000 -0.000  0.000   -0.000  0.000  0.000
 O         -0.000 -0.000 -0.000    0.000 -0.000  0.000   -0.001 -0.000  0.000
 C         -0.052  0.025  0.075    0.000  0.000 -0.001    0.000 -0.000 -0.000
 C         -0.000 -0.001 -0.000    0.019 -0.062 -0.069    0.000 -0.000 -0.000
 C          0.000  0.000  0.000   -0.000 -0.000  0.000    0.000 -0.000 -0.000
 C         -0.000  0.000  0.000    0.000 -0.000 -0.000   -0.000  0.000 -0.000
 C         -0.000 -0.000  0.000   -0.000  0.000 -0.000   -0.001  0.000  0.001
 C          0.000  0.000  0.000   -0.000  0.000 -0.000   -0.001  0.000 -0.001
 O         -0.000 -0.000 -0.000    0.000  0.000  0.000    0.000 -0.000  0.000
 H          0.000 -0.001 -0.002    0.000  0.000  0.002   -0.000  0.001  0.002
 H         -0.000 -0.000 -0.001    0.000 -0.000  0.000   -0.000 -0.001  0.003
 H          0.067 -0.280  0.008    0.000 -0.001 -0.000   -0.000  0.002 -0.000
 H          0.003  0.004  0.001    0.201  0.258  0.023    0.000  0.000  0.000
 H         -0.000 -0.000  0.000    0.000  0.000 -0.000    0.000  0.000 -0.000
 H          0.000 -0.000 -0.001   -0.000  0.000  0.001   -0.000  0.000  0.002
 H          0.000 -0.000 -0.000    0.000 -0.000 -0.000    0.011  0.000 -0.003
 H          0.000  0.000 -0.000   -0.000 -0.000  0.000    0.000  0.002 -0.005
 H          0.649 -0.145 -0.589   -0.003  0.001  0.003   -0.003  0.001  0.002
 H         -0.099  0.123 -0.307    0.001 -0.001  0.004    0.000 -0.000  0.001
 H          0.000  0.000 -0.001   -0.059 -0.129  0.238   -0.000 -0.000  0.000
 H         -0.002  0.003  0.003   -0.367  0.601  0.558   -0.000  0.001  0.001
 C         -0.000  0.000 -0.000    0.000  0.000  0.000   -0.063 -0.014 -0.063
 H         -0.000 -0.000  0.000    0.000  0.000 -0.000    0.198  0.053 -0.086
 H          0.000 -0.001  0.001   -0.000  0.000 -0.000    0.004 -0.152  0.113
 H          0.003  0.001  0.003   -0.001 -0.000 -0.001    0.561  0.270  0.720
 C         -0.000  0.000  0.000   -0.000 -0.000 -0.000   -0.000 -0.000 -0.000
 H         -0.000 -0.000  0.000    0.001  0.001 -0.001    0.000  0.000 -0.000
 H         -0.000  0.000 -0.000    0.001  0.000  0.002    0.001  0.000  0.001
 H          0.000 -0.000 -0.000   -0.000  0.001  0.001   -0.000  0.001  0.000
 TransDip  -0.083  0.021  0.084    0.045 -0.084 -0.075   -0.023 -0.005 -0.041

 STANDARD THERMODYNAMIC QUANTITIES AT   298.15 K  AND     1.00 ATM

   This Molecule has  0 Imaginary Frequencies
   Zero point vibrational energy:      183.654 kcal/mol

   Atom    1 Element C  Has Mass   12.00000
   Atom    2 Element C  Has Mass   12.00000
   Atom    3 Element C  Has Mass   12.00000
   Atom    4 Element C  Has Mass   12.00000
   Atom    5 Element O  Has Mass   15.99491
   Atom    6 Element O  Has Mass   15.99491
   Atom    7 Element O  Has Mass   15.99491
   Atom    8 Element O  Has Mass   15.99491
   Atom    9 Element C  Has Mass   12.00000
   Atom   10 Element C  Has Mass   12.00000
   Atom   11 Element C  Has Mass   12.00000
   Atom   12 Element C  Has Mass   12.00000
   Atom   13 Element C  Has Mass   12.00000
   Atom   14 Element C  Has Mass   12.00000
   Atom   15 Element O  Has Mass   15.99491
   Atom   16 Element H  Has Mass    1.00783
   Atom   17 Element H  Has Mass    1.00783
   Atom   18 Element H  Has Mass    1.00783
   Atom   19 Element H  Has Mass    1.00783
   Atom   20 Element H  Has Mass    1.00783
   Atom   21 Element H  Has Mass    1.00783
   Atom   22 Element H  Has Mass    1.00783
   Atom   23 Element H  Has Mass    1.00783
   Atom   24 Element H  Has Mass    1.00783
   Atom   25 Element H  Has Mass    1.00783
   Atom   26 Element H  Has Mass    1.00783
   Atom   27 Element H  Has Mass    1.00783
   Atom   28 Element C  Has Mass   12.00000
   Atom   29 Element H  Has Mass    1.00783
   Atom   30 Element H  Has Mass    1.00783
   Atom   31 Element H  Has Mass    1.00783
   Atom   32 Element C  Has Mass   12.00000
   Atom   33 Element H  Has Mass    1.00783
   Atom   34 Element H  Has Mass    1.00783
   Atom   35 Element H  Has Mass    1.00783
   Molecular Mass:   242.115490 amu
   Principal axes and moments of inertia in amu*Bohr^2:
                             1           2           3
    Eigenvalues --     2977.16070  3616.89369  5613.45742
          X               0.99992    -0.01163     0.00564
          Y               0.01166     0.99992    -0.00476
          Z              -0.00558     0.00483     0.99997
   Rotational Symmetry Number is   1
   The Molecule is an Asymmetric Top
   Translational Enthalpy:        0.889 kcal/mol
   Rotational Enthalpy:           0.889 kcal/mol
   Vibrational Enthalpy:        192.705 kcal/mol
   gas constant (RT):             0.592 kcal/mol
   Translational Entropy:        42.354  cal/mol.K
   Rotational Entropy:           32.469  cal/mol.K
   Vibrational Entropy:          58.042  cal/mol.K

   Total Enthalpy:              195.075 kcal/mol
   Total Entropy:               132.864  cal/mol.K
Archival summary:
1\1\nid04267\FREQ\ProcedureUnspecified\BasisUnspecified\51218\junteng\WedOct422:42:532017WedOct422:42:532017\0\\#,FREQ,ProcedureUnspecified,BasisUnspecified,\\0,1\O\C,1,1.43122\C,1,1.44191,2,99.1151\C,2,1.5129,1,110.851,3,179.408,0\H,4,1.09144,2,110.814,1,56.9125,0\H,4,1.09187,2,109.677,1,-62.5926,0\H,4,1.09289,2,110.561,1,177.682,0\C,3,1.51343,1,110.743,2,-176.315,0\H,8,1.08662,3,111.119,1,-55.4013,0\H,8,1.0926,3,109.183,1,65.6146,0\H,8,1.0934,3,110.328,1,-175.322,0\C,2,1.54986,1,102.592,3,55.1621,0\H,12,1.09169,2,112.54,1,-155.553,0\H,12,1.09186,2,109.572,1,84.4106,0\C,12,1.54971,2,101.44,1,-33.4488,0\H,15,1.09123,12,111.241,2,117.2,0\H,15,1.09196,12,113.719,2,-120.877,0\C,3,1.56381,1,102.131,2,55.7115,0\H,18,1.09299,3,110.043,1,-147.985,0\C,18,1.52254,3,117.928,1,92.3217,0\O,20,1.20179,18,128.216,3,3.04527,0\O,20,1.35679,18,108.57,3,179.934,0\C,22,1.43912,20,115.76,18,174.691,0\H,23,1.08806,22,105.477,20,-179.328,0\H,23,1.09097,22,110.731,20,61.042,0\H,23,1.09118,22,109.846,20,-59.9635,0\C,18,1.56725,3,101.735,1,-33.0696,0\H,27,1.0884,18,111.679,3,-117.473,0\C,27,1.51195,18,115.394,3,119.387,0\O,29,1.20568,27,126.467,18,-38.8802,0\O,29,1.35292,27,110.213,18,143.968,0\C,31,1.4395,29,115.909,27,176.73,0\H,32,1.08777,31,105.476,29,177.847,0\H,32,1.09089,31,110.459,29,58.2446,0\H,32,1.09128,31,110.484,29,-62.616,0\\\@

 Total job time:  14296.57s(wall), 84775.78s(cpu) 
 Wed Oct  4 22:42:53 2017

        *************************************************************
        *                                                           *
        *  Thank you very much for using Q-Chem.  Have a nice day.  *
        *                                                           *
        *************************************************************


