nid01039 10.128.4
Q-Chem Developer Version! Running on 10.128.4.*
                  Welcome to Q-Chem
     A Quantum Leap Into The Future Of Chemistry


 Q-Chem 5.0, Q-Chem, Inc., Pleasanton, CA (2017)

 Yihan Shao,  Zhengting Gan,  E. Epifanovsky,  A. T. B. Gilbert,  M. Wormit,  
 J. Kussmann,  A. W. Lange,  A. Behn,  Jia Deng,  Xintian Feng,  D. Ghosh,  
 M. Goldey,  P. R. Horn,  L. D. Jacobson,  I. Kaliman,  T. Kus,  A. Landau,  
 Jie Liu,  E. I. Proynov,  R. M. Richard,  R. P. Steele,  E. J. Sundstrom,  
 H. L. Woodcock III,  P. M. Zimmerman,  D. Zuev,  B. Albrecht,  E. Alguire,  
 S. A. Baeppler,  Z. Benda,  Y. A. Bernard,  E. J. Berquist,  K. B. Bravaya,  
 D. Casanova,  Chun-Min Chang,  Yunqing Chen,  A. Chien,  K. D. Closser,  
 M. P. Coons,  S. Dasgupta,  M. Diedenhofen,  Hainam Do,  R. G. Edgar,  
 Po-Tung Fang,  S. Fatehi,  Qingguo Feng,  Qinghui Ge,  A. Ghysels,  
 J. Gomes,  J. Gonthier,  A. Gunina,  M. W. D. Hanson-Heine,  
 P. H. P. Harbach,  A. W. Hauser,  J. E. Herr,  E. G. Hohenstein,  
 Z. C. Holden,  Kerwin Hui,  T.-C. Jagau,  Hyunjun Ji,  B. Kaduk,  
 K. Khistyaev,  Jaehoon Kim,  P. Klunzinger,  K. Koh,  D. Kosenkov,  
 T. Kowalczyk,  C. M. Krauter,  A. Kunitsa,  Ka Un Lao,  A. Laurent,  
 K. V. Lawler,  Joonho Lee,  D. Lefrancois,  S. Lehtola,  D. S. Levine,  
 Yi-Pei Li,  You-Sheng Lin,  Fenglai Liu,  E. Livshits,  A. Luenser,  
 P. Manohar,  E. Mansoor,  S. F. Manzer,  Shan-Ping Mao,  Yuezhi Mao,  
 N. Mardirossian,  A. V. Marenich,  L. A. Martinez-Martinez,  S. A. Maurer,  
 N. J. Mayhall,  S. C. McKenzie,  J.-M. Mewes,  A. F. Morrison,  K. Nanda,  
 T. S. Nguyen-Beck,  R. Olivares-Amaya,  J. A. Parkhill,  T. M. Perrine,  
 F. Plasser,  S. Prager,  A. Prociuk,  D. R. Rehn,  F. Rob,  M. Schneider,  
 N. Sergueev,  S. M. Sharada,  S. Sharma,  D. W. Small,  T. Stauch,  
 T. Stein,  Yu-Chuan Su,  A. J. W. Thom,  T. Tsuchimochi,  L. Vogt,  
 O. Vydrov,  M. A. Watson,  J. Wenzel,  M. de Wergifosse,  T. A. Wesolowski,  
 A. White,  J. Witte,  A. Yamada,  Jun Yang,  K. Yao,  S. Yeganeh,  
 S. R. Yost,  Zhi-Qiang You,  A. Zech,  Igor Ying Zhang,  Xing Zhang,  
 Yan Zhao,  Ying Zhu,  B. R. Brooks,  G. K. L. Chan,  C. J. Cramer,  
 M. S. Gordon,  W. J. Hehre,  A. Klamt,  M. W. Schmidt,  C. D. Sherrill,  
 D. G. Truhlar,  A. Aspuru-Guzik,  R. Baer,  A. T. Bell,  N. A. Besley,  
 Jeng-Da Chai,  A. Dreuw,  B. D. Dunietz,  T. R. Furlani,  Chao-Ping Hsu,  
 Yousung Jung,  Jing Kong,  D. S. Lambrecht,  WanZhen Liang,  C. Ochsenfeld,  
 V. A. Rassolov,  L. V. Slipchenko,  J. E. Subotnik,  T. Van Voorhis,  
 J. M. Herbert,  A. I. Krylov,  P. M. W. Gill,  M. Head-Gordon

 Contributors to earlier versions of Q-Chem not listed above: 
 R. D. Adamson,  B. Austin,  J. Baker,  G. J. O. Beran,  K. Brandhorst,  
 S. T. Brown,  E. F. C. Byrd,  A. K. Chakraborty,  C.-L. Cheng,  
 Siu Hung Chien,  D. M. Chipman,  D. L. Crittenden,  H. Dachsel,  
 R. A. DiStasio Jr.,  R. J. Doerksen,  A. D. Dutoi,  L. Fusti-Molnar,  
 W. A. Goddard III,  A. Golubeva-Zadorozhnaya,  S. R. Gwaltney,  G. Hawkins,  
 A. Heyden,  S. Hirata,  G. Kedziora,  F. J. Keil,  C. Kelley,  Jihan Kim,  
 R. A. King,  R. Z. Khaliullin,  P. P. Korambath,  W. Kurlancheek,  
 A. M. Lee,  M. S. Lee,  S. V. Levchenko,  Ching Yeh Lin,  D. Liotard,  
 R. C. Lochan,  I. Lotan,  P. E. Maslen,  N. Nair,  D. P. O'Neill,  
 D. Neuhauser,  E. Neuscamman,  C. M. Oana,  R. Olson,  B. Peters,  
 R. Peverati,  P. A. Pieniazek,  Y. M. Rhee,  J. Ritchie,  M. A. Rohrdanz,  
 E. Rosta,  N. J. Russ,  H. F. Schaefer III,  N. E. Schultz,  N. Shenvi,  
 A. C. Simmonett,  A. Sodt,  D. Stuck,  K. S. Thanthiriwatte,  V. Vanovschi,  
 Tao Wang,  A. Warshel,  C. F. Williams,  Q. Wu,  X. Xu,  W. Zhang

 Please cite Q-Chem as follows:
 Y. Shao et al., Mol. Phys. 113, 184-215 (2015)
 DOI: 10.1080/00268976.2014.952696

 Q-Chem 5.0.0 for Intel X86 EM64T Linux

 Parts of Q-Chem use Armadillo 5.200.1 (Boston Tea Smuggler).
 http://arma.sourceforge.net/

 Q-Chem begins on Wed Oct  4 18:04:27 2017  

Host: nid01039
0

     Scratch files written to /global/cscratch1/sd/junteng/scratch/17/opt_11n01-+.save//

Checking the input file for inconsistencies... 	...done.

--------------------------------------------------------------
User input:
--------------------------------------------------------------
$molecule
0  1
C    0.469  -2.369   0.246
C   -0.100  -2.666   1.497
C    0.820  -0.970  -0.128
C   -0.250  -1.617   2.525
O    1.710  -0.973  -1.154
O    0.353   0.027   0.395
O    0.994  -1.244   2.918
O   -1.315  -1.271   3.005
C    0.990  -0.231   3.923
C    2.104   0.331  -1.586
C    0.633  -3.406  -0.690
C    0.237  -4.708  -0.384
C   -0.335  -4.993   0.854
C   -0.510  -3.982   1.810
H    0.475   0.666   3.564
H    1.246   0.871  -1.997
H   -0.645  -6.015   1.070
H    0.524  -0.605   4.840
H    2.028   0.031   4.144
H    2.851   0.214  -2.376
H    2.557   0.890  -0.761
H    0.365  -5.501  -1.118
H    1.053  -3.209  -1.674
C   -1.128  -4.326   3.139
H   -2.093  -3.824   3.253
H   -0.462  -4.036   3.958
H   -1.304  -5.403   3.231
$end


$opt
CONSTRAINT
tors    2    1    3    5    158.6
tors    1    2    4    7    -62.3
ENDCONSTRAINT
$end

$rem
JOBTYPE                   OPT
METHOD                    B3LYP
DFT_D                     D3_OP
BASIS                     STO-3G
GEOM_OPT_MAX_CYCLES       500
SYMMETRY                  False
THRESH                    12
SCF_CONVERGENCE           8
MAX_SUB_FILE_NUM          128
MEM_STATIC                400
MEM_TOTAL                 4000
$end

--------------------------------------------------------------
 Adding empirical dispersion correction 
 ----------------------------------------------------------------
 Doing -D3(op) with
 s6 =   1.00000
 s8 =   0.78311
 a1 =   0.30000
 a2 =   4.25000
 n  =  10.00000
 -D3 energy without 3body term =     -0.0281099174 hartrees
 ----------------------------------------------------------------
             Standard Nuclear Orientation (Angstroms)
    I     Atom           X                Y                Z
 ----------------------------------------------------------------
    1      C       0.4276448099    -0.8415736243    -0.0588692333
    2      C      -0.8060843738    -0.1694900882    -0.1153229467
    3      C       1.7108516923    -0.1157460900    -0.2752773829
    4      C      -0.8586766063     1.2982395328    -0.2659510208
    5      O       2.7440659004    -0.8386462100     0.2293698371
    6      O       1.8151246914     0.9559824043    -0.8463747267
    7      O      -0.3462610882     1.8472865541     0.8641338013
    8      O      -1.3960448180     1.8760408395    -1.1942408759
    9      C      -0.3453536797     3.2741738433     0.8499267384
   10      C       4.0219453492    -0.2207266872     0.0636122501
   11      C       0.4347697576    -2.2356355990     0.1279500539
   12      C      -0.7617862935    -2.9413211965     0.2541144457
   13      C      -1.9807647890    -2.2699771573     0.1874690522
   14      C      -2.0220088454    -0.8801964136     0.0044651935
   15      H       0.2409006342     3.6507951732     0.0054285126
   16      H       4.2682047510    -0.1351699828    -0.9988007380
   17      H      -2.9041102496    -2.8410186193     0.2801232975
   18      H      -1.3703322120     3.6561049330     0.8116037554
   19      H       0.1193667722     3.6218521173     1.7762548225
   20      H       4.7702630880    -0.8580083794     0.5428727289
   21      H       4.0413877155     0.7607414868     0.5480265539
   22      H      -0.7435362013    -4.0202578732     0.3939414170
   23      H       1.3701157423    -2.7903072772     0.1584823066
   24      C      -3.3565948521    -0.1864117253    -0.0591272334
   25      H      -3.5169381685     0.2431909134    -1.0520807034
   26      H      -3.4152264497     0.6020259728     0.6980684692
   27      H      -4.1788259208    -0.8832659350     0.1350357913
 ----------------------------------------------------------------
 Molecular Point Group                 C1    NOp =  1
 Largest Abelian Subgroup              C1    NOp =  1
 Nuclear Repulsion Energy =  1009.1896279882 hartrees
 There are       55 alpha and       55 beta electrons
 Requested basis set is STO-3G
 There are 42 shells and 87 basis functions

 Total QAlloc Memory Limit   4000 MB
 Mega-Array Size       392 MB
 MEM_STATIC part       400 MB
 A cutoff of  1.0D-12 yielded    765 shell pairs
 There are      3696 function pairs
 
 -------------------------------------------------------
 OpenMP Integral Computing Module                       
 Release: version 1.0, May 2013, Q-Chem Inc. Pittsburgh 
 -------------------------------------------------------
 Integral Job Info:
 Integral job number is                      11
 Integral operator is                         1
 short-range coefficients                     0
 long-range coefficients              100000000
 Omega coefficients                           0
 if combine SR and LR in K                    0
 Integral screening is                        0
 Integral computing path is                   2
 max size of driver memory is            800000
 size of driver memory is                 45569
 size of scratch memory is               945100
 max col of scratch BK array                289
 max len of scratch array in speh3           22
 max len of scratch index in speh4            8
 max int batch size is                      520
 min int batch size is                       52
 fixed nKL is                                52
 max L of basis functions is                  1
 order of int derivative is                   0
 number of shells is                         42
 number of basis is                          87
 number of cartesian basis is                87
 number of contracted shell pairs           765
 number of primitive shell pairs           4169
 maxK2 (contraction) of shell pair            9
 max number of K2 of shell pair               1
 max number of CS2 of shell pair            112
 max number of PS2 of shell pair            564
 mem total for path MDJ                   25842
 -------------------------------------------------------
 Smallest overlap matrix eigenvalue = 1.75E-01

 Scale SEOQF with 1.000000e-01/1.000000e-01/1.000000e-01

 Standard Electronic Orientation quadrupole field applied
 Nucleus-field energy     =     0.0000000367 hartrees
 Guess from superposition of atomic densities
 Warning:  Energy on first SCF cycle will be non-variational
 A restricted hybrid HF-DFT SCF calculation will be
 performed using Pulay DIIS extrapolation
 Exchange:     0.2000 Hartree-Fock + 0.0800 Slater + 0.7200 B88
 Correlation:  0.1900 VWN1RPA + 0.8100 LYP
 Using SG-1 standard quadrature grid
 Dispersion:   Grimme D3
 SCF converges when DIIS error is below 1.0E-08
 -------------------------------------------------------
 OpenMP Integral computing Module                
 Release: version 1.0, May 2013, Q-Chem Inc. Pittsburgh 
 -------------------------------------------------------
 -------------------------------------------------------
 OpenMP BLAS3 based DFT computing Module                
 Release: version 1.0, May 2013, Q-Chem Inc. Pittsburgh 
 -------------------------------------------------------
 ---------------------------------------
  Cycle       Energy         DIIS Error
 ---------------------------------------
    1    -717.8019365690      1.20E-01
    2    -717.7010378448      1.35E-02
    3    -716.6909548447      3.55E-02
    4    -717.8989360821      4.93E-03
    5    -717.9220252155      1.83E-03
    6    -717.9252541391      6.40E-04
    7    -717.9256752319      2.14E-04
    8    -717.9257222207      5.99E-05
    9    -717.9257259474      2.45E-05
   10    -717.9257267525      3.51E-06
   11    -717.9257267669      1.14E-06
   12    -717.9257267684      2.20E-07
   13    -717.9257267684      1.01E-07
   14    -717.9257267684      3.15E-08
   15    -717.9257267684      8.11E-09 Convergence criterion met
 ---------------------------------------
 SCF time:  CPU 57.07 s  wall 2.42 s
 SCF   energy in the final basis set = -717.9257267684
 Total energy in the final basis set = -717.9257267684
 
 --------------------------------------------------------------
 
                    Orbital Energies (a.u.)
 --------------------------------------------------------------
 
 Alpha MOs
 -- Occupied --
-18.948 -18.944 -18.869 -18.865 -10.116 -10.112 -10.076 -10.069
-10.024 -10.023 -10.020 -10.016 -10.010 -10.010 -10.009  -1.048
 -1.041  -0.957  -0.953  -0.821  -0.742  -0.730  -0.692  -0.672
 -0.648  -0.595  -0.566  -0.516  -0.504  -0.472  -0.451  -0.440
 -0.433  -0.422  -0.418  -0.395  -0.390  -0.385  -0.372  -0.360
 -0.352  -0.343  -0.339  -0.322  -0.312  -0.300  -0.293  -0.253
 -0.246  -0.199  -0.190  -0.185  -0.179  -0.154  -0.147
 -- Virtual --
  0.052   0.076   0.129   0.152   0.251   0.281   0.311   0.352
  0.373   0.392   0.397   0.405   0.432   0.437   0.443   0.446
  0.453   0.456   0.457   0.459   0.467   0.471   0.483   0.493
  0.574   0.582   0.592   0.613   0.701   0.710   0.788   0.802
 --------------------------------------------------------------
 
          Ground-State Mulliken Net Atomic Charges

     Atom                 Charge (a.u.)
  ----------------------------------------
      1 C                    -0.018582
      2 C                    -0.016936
      3 C                     0.234617
      4 C                     0.240956
      5 O                    -0.184918
      6 O                    -0.230663
      7 O                    -0.182368
      8 O                    -0.224940
      9 C                    -0.127135
     10 C                    -0.125431
     11 C                    -0.074859
     12 C                    -0.080052
     13 C                    -0.077609
     14 C                     0.012689
     15 H                     0.097897
     16 H                     0.094244
     17 H                     0.080944
     18 H                     0.091047
     19 H                     0.094514
     20 H                     0.096685
     21 H                     0.094839
     22 H                     0.082779
     23 H                     0.091068
     24 C                    -0.232605
     25 H                     0.096456
     26 H                     0.085477
     27 H                     0.081886
  ----------------------------------------
  Sum of atomic charges =     0.000000

 -----------------------------------------------------------------
                    Cartesian Multipole Moments
 -----------------------------------------------------------------
    Charge (ESU x 10^10)
                -0.0000
    Dipole Moment (Debye)
         X       0.7982      Y      -0.5502      Z       1.4656
       Tot       1.7573
    Quadrupole Moments (Debye-Ang)
        XX     -68.8640     XY       1.0683     YY     -74.0057
        XZ      -1.4979     YZ       4.7411     ZZ     -83.2885
    Octopole Moments (Debye-Ang^2)
       XXX      41.5766    XXY      -2.7669    XYY       0.8577
       YYY      25.2011    XXZ       3.5524    XYZ      -0.6167
       YYZ      13.0115    XZZ       9.2585    YZZ       6.8348
       ZZZ      -3.0962
    Hexadecapole Moments (Debye-Ang^3)
      XXXX   -1834.3719   XXXY     -13.9583   XXYY    -592.7498
      XYYY      -6.0514   YYYY   -1421.5834   XXXZ       3.4567
      XXYZ       8.8362   XYYZ      -9.5961   YYYZ      16.3355
      XXZZ    -378.5399   XYZZ      -4.8522   YYZZ    -299.7002
      XZZZ      -0.3707   YZZZ       2.9732   ZZZZ    -200.2064
 -----------------------------------------------------------------
 Calculating analytic gradient of the SCF energy
 Gradient of SCF Energy
            1           2           3           4           5           6
    1   0.0155520   0.0002434   0.0288734   0.0033619  -0.0165587  -0.0090033
    2   0.0247654   0.0340006   0.0084045   0.0202584   0.0561898  -0.0668372
    3  -0.0054958  -0.0064167  -0.0034908   0.0083047  -0.0327235   0.0327088
            7           8           9          10          11          12
    1  -0.0295598   0.0255054  -0.0003711  -0.0164199  -0.0008983  -0.0031731
    2   0.0085524  -0.0425767  -0.0241214  -0.0093064   0.0067387   0.0046852
    3  -0.0553920   0.0504006  -0.0000651   0.0029537   0.0000270  -0.0002477
           13          14          15          16          17          18
    1   0.0029767  -0.0065585  -0.0025396  -0.0055135   0.0073378   0.0102249
    2   0.0029842   0.0110264  -0.0077578  -0.0067668   0.0014604  -0.0087175
    3  -0.0002257  -0.0001337   0.0102837   0.0117449  -0.0006387   0.0042723
           19          20          21          22          23          24
    1  -0.0046865  -0.0047308  -0.0030343  -0.0003432  -0.0094996   0.0157825
    2  -0.0008429   0.0080769  -0.0133174   0.0081641   0.0001020  -0.0050621
    3  -0.0097686  -0.0052144  -0.0006932  -0.0010887  -0.0004175  -0.0020005
           25          26          27
    1   0.0009587   0.0010130   0.0010607
    2  -0.0069575  -0.0076169   0.0044717
    3   0.0047262  -0.0008020  -0.0006072
 Max gradient component =       6.684E-02
 RMS gradient           =       1.774E-02
 Gradient time:  CPU 13.25 s  wall 0.57 s
 Geometry Optimization Parameters
   NAtoms,    NIC,     NZ,  NCons,   NDum,   NFix, NCnnct, MaxDiis
       27     173       0       2       0       0       0       0


** CONSTRAINED OPTIMIZATION IN DELOCALIZED INTERNAL COORDINATES **
   Searching for a Minimum

   Optimization Cycle:   1

                       Coordinates (Angstroms)
     ATOM                X               Y               Z
      1  C         0.4276448099   -0.8415736243   -0.0588692333
      2  C        -0.8060843738   -0.1694900882   -0.1153229467
      3  C         1.7108516923   -0.1157460900   -0.2752773829
      4  C        -0.8586766063    1.2982395328   -0.2659510208
      5  O         2.7440659004   -0.8386462100    0.2293698371
      6  O         1.8151246914    0.9559824043   -0.8463747267
      7  O        -0.3462610882    1.8472865541    0.8641338013
      8  O        -1.3960448180    1.8760408395   -1.1942408759
      9  C        -0.3453536797    3.2741738433    0.8499267384
     10  C         4.0219453492   -0.2207266872    0.0636122501
     11  C         0.4347697576   -2.2356355990    0.1279500539
     12  C        -0.7617862935   -2.9413211965    0.2541144457
     13  C        -1.9807647890   -2.2699771573    0.1874690522
     14  C        -2.0220088454   -0.8801964136    0.0044651935
     15  H         0.2409006342    3.6507951732    0.0054285126
     16  H         4.2682047510   -0.1351699828   -0.9988007380
     17  H        -2.9041102496   -2.8410186193    0.2801232975
     18  H        -1.3703322120    3.6561049330    0.8116037554
     19  H         0.1193667722    3.6218521173    1.7762548225
     20  H         4.7702630880   -0.8580083794    0.5428727289
     21  H         4.0413877155    0.7607414868    0.5480265539
     22  H        -0.7435362013   -4.0202578732    0.3939414170
     23  H         1.3701157423   -2.7903072772    0.1584823066
     24  C        -3.3565948521   -0.1864117253   -0.0591272334
     25  H        -3.5169381685    0.2431909134   -1.0520807034
     26  H        -3.4152264497    0.6020259728    0.6980684692
     27  H        -4.1788259208   -0.8832659350    0.1350357913
   Point Group: c1    Number of degrees of freedom:    75


   Energy is   -717.925726768

              Constraints and their Current Values
                                        Value     Constraint
   Dihedral:        2   1   3   5      160.883      158.600
   Dihedral:        1   2   4   7      -66.511      -62.300

 Attempting to Generate Delocalized Internal Coordinates

   Using Lagrange Multiplier Algorithm


 77 Hessian modes will be used to form the next step
  Hessian Eigenvalues:
    -0.977753   -0.977753    0.045000    0.045000    0.045000    0.045000
     0.045000    0.045000    0.045000    0.045000    0.045000    0.045001
     0.045002    0.045007    0.045012    0.045014    0.045073    0.045391
     0.094103    0.094233    0.113874    0.113890    0.116885    0.116948
     0.159973    0.159992    0.160000    0.160000    0.160000    0.160000
     0.160000    0.160000    0.160000    0.160000    0.160000    0.160000
     0.220831    0.234483    0.248788    0.249003    0.249488    0.249924
     0.249954    0.250000    0.250000    0.250000    0.250000    0.250000
     0.318081    0.334430    0.342234    0.342572    0.342726    0.342778
     0.342982    0.343623    0.343862    0.344084    0.344536    0.348583
     0.349879    0.350317    0.350597    0.408825    0.411215    0.413739
     0.414295    0.441969    0.449403    0.456885    0.464260    0.533072
     0.535839    0.958888    0.961246    1.022753    1.022753

 Minimum Search - Taking P-RFO Step
 Searching for Lamda that Maximizes Along the Constraint modes Only
 Value Taken    Lamda =   0.00331160
 Searching for Lamda that Minimizes Along All other modes
 Value Taken    Lamda =  -0.05684646
 Calculated Step too Large.  Step scaled by  0.864942
 Step Taken.  Stepsize is  0.300000

                             Maximum     Tolerance    Cnvgd?
         Gradient            0.091802       0.000300      NO
         Displacement        0.121139       0.001200      NO
         Energy change     *********       0.000001      NO


 New Cartesian Coordinates Obtained by Inverse Iteration

 Displacement from previous Coordinates is:  1.085608
 Adding empirical dispersion correction 
 ----------------------------------------------------------------
 Doing -D3(op) with
 s6 =   1.00000
 s8 =   0.78311
 a1 =   0.30000
 a2 =   4.25000
 n  =  10.00000
 -D3 energy without 3body term =     -0.0279564823 hartrees
 ----------------------------------------------------------------
             Standard Nuclear Orientation (Angstroms)
    I     Atom           X                Y                Z
 ----------------------------------------------------------------
    1      C       0.3869838597    -0.9170559812    -0.0674809400
    2      C      -0.8536599101    -0.2299023942    -0.1097065213
    3      C       1.6836696180    -0.1287095065    -0.2695883532
    4      C      -0.8834327203     1.3028852588    -0.2464847483
    5      O       2.7716869715    -0.8413091794     0.2667106513
    6      O       1.7690526970     0.9921400412    -0.8222221336
    7      O      -0.2689290638     1.8733177327     0.8841157038
    8      O      -1.4092275729     1.9442717568    -1.1813663044
    9      C      -0.2109315118     3.3378542650     0.8157984301
   10      C       4.0402715790    -0.1261023780     0.1069606933
   11      C       0.4061224261    -2.3233941862     0.0974975071
   12      C      -0.7987048764    -3.0368230696     0.2165643203
   13      C      -2.0296605355    -2.3537104942     0.1671541135
   14      C      -2.0772926358    -0.9487321879     0.0070659368
   15      H       0.3474449575     3.6833586695    -0.0774017255
   16      H       4.3100270220    -0.0007367246    -0.9614027746
   17      H      -2.9651487193    -2.9207550231     0.2563118105
   18      H      -1.2241738291     3.7887802917     0.8052943154
   19      H       0.3203193425     3.6831573494     1.7212644380
   20      H       4.8163281734    -0.7404531010     0.5986817854
   21      H       4.0150126290     0.8707321228     0.5917306704
   22      H      -0.7800879288    -4.1269536689     0.3410718758
   23      H       1.3625618447    -2.8604646372     0.1184063941
   24      C      -3.4304815566    -0.2267332978    -0.0398923675
   25      H      -3.5957527141     0.2339052895    -1.0271490432
   26      H      -3.4874618989     0.5628365476     0.7263437628
   27      H      -4.2524392913    -0.9327225830     0.1465566693
 ----------------------------------------------------------------
 Molecular Point Group                 C1    NOp =  1
 Largest Abelian Subgroup              C1    NOp =  1
 Nuclear Repulsion Energy =   991.6870006732 hartrees
 There are       55 alpha and       55 beta electrons
 Applying Cartesian multipole field
    Component          Value
    ---------          -----
     (2,0,0)        1.00000E-11
     (0,2,0)        2.00000E-11
     (0,0,2)       -3.00000E-11
 Nucleus-field energy     =     0.0000000385 hartrees
 Requested basis set is STO-3G
 There are 42 shells and 87 basis functions
 A cutoff of  1.0D-12 yielded    763 shell pairs
 There are      3691 function pairs
 Smallest overlap matrix eigenvalue = 1.82E-01
 Guess MOs from SCF MO coefficient file
 Reading MOs from coefficient file
 Reading MOs from coefficient file
 A restricted hybrid HF-DFT SCF calculation will be
 performed using Pulay DIIS extrapolation
 Exchange:     0.2000 Hartree-Fock + 0.0800 Slater + 0.7200 B88
 Correlation:  0.1900 VWN1RPA + 0.8100 LYP
 Using SG-1 standard quadrature grid
 Dispersion:   Grimme D3
 SCF converges when DIIS error is below 1.0E-08
 Geometry optimization detected.  Setting ReadMinima to 0
 Setting SaveMinima to 0
 -------------------------------------------------------
 OpenMP Integral computing Module                
 Release: version 1.0, May 2013, Q-Chem Inc. Pittsburgh 
 -------------------------------------------------------
 -------------------------------------------------------
 OpenMP BLAS3 based DFT computing Module                
 Release: version 1.0, May 2013, Q-Chem Inc. Pittsburgh 
 -------------------------------------------------------
 ---------------------------------------
  Cycle       Energy         DIIS Error
 ---------------------------------------
    1    -717.7815053994      7.26E-03
    2    -717.9446778305      2.56E-03
    3    -717.9313360615      4.36E-03
    4    -717.9515635607      6.84E-04
    5    -717.9520902389      1.90E-04
    6    -717.9521312390      5.16E-05
    7    -717.9521342000      2.14E-05
    8    -717.9521346473      1.20E-05
    9    -717.9521348021      2.69E-06
   10    -717.9521348118      5.52E-07
   11    -717.9521348123      1.93E-07
   12    -717.9521348123      5.55E-08
   13    -717.9521348123      2.20E-08
   14    -717.9521348123      6.29E-09 Convergence criterion met
 ---------------------------------------
 SCF time:  CPU 53.32 s  wall 2.25 s
 SCF   energy in the final basis set = -717.9521348123
 Total energy in the final basis set = -717.9521348123
 
 --------------------------------------------------------------
 
                    Orbital Energies (a.u.)
 --------------------------------------------------------------
 
 Alpha MOs
 -- Occupied --
-18.943 -18.934 -18.871 -18.866 -10.107 -10.102 -10.071 -10.063
-10.027 -10.027 -10.024 -10.019 -10.015 -10.014 -10.012  -1.020
 -1.011  -0.939  -0.933  -0.815  -0.735  -0.720  -0.678  -0.661
 -0.646  -0.587  -0.562  -0.509  -0.497  -0.460  -0.440  -0.427
 -0.418  -0.413  -0.408  -0.388  -0.382  -0.376  -0.370  -0.358
 -0.348  -0.341  -0.330  -0.314  -0.310  -0.296  -0.288  -0.255
 -0.246  -0.197  -0.191  -0.181  -0.171  -0.153  -0.146
 -- Virtual --
  0.047   0.071   0.119   0.139   0.239   0.253   0.279   0.327
  0.349   0.359   0.375   0.392   0.412   0.421   0.426   0.429
  0.431   0.436   0.439   0.442   0.447   0.458   0.465   0.477
  0.548   0.559   0.566   0.589   0.654   0.662   0.756   0.773
 --------------------------------------------------------------
 
          Ground-State Mulliken Net Atomic Charges

     Atom                 Charge (a.u.)
  ----------------------------------------
      1 C                    -0.016401
      2 C                    -0.014946
      3 C                     0.214191
      4 C                     0.219538
      5 O                    -0.171893
      6 O                    -0.214998
      7 O                    -0.171841
      8 O                    -0.212612
      9 C                    -0.124507
     10 C                    -0.123718
     11 C                    -0.074550
     12 C                    -0.077142
     13 C                    -0.076299
     14 C                     0.011328
     15 H                     0.094279
     16 H                     0.089957
     17 H                     0.080757
     18 H                     0.087008
     19 H                     0.090495
     20 H                     0.092595
     21 H                     0.091286
     22 H                     0.083185
     23 H                     0.091152
     24 C                    -0.225796
     25 H                     0.093670
     26 H                     0.084671
     27 H                     0.080589
  ----------------------------------------
  Sum of atomic charges =     0.000000

 -----------------------------------------------------------------
                    Cartesian Multipole Moments
 -----------------------------------------------------------------
    Charge (ESU x 10^10)
                 0.0000
    Dipole Moment (Debye)
         X       0.7061      Y      -0.6553      Z       1.3016
       Tot       1.6193
    Quadrupole Moments (Debye-Ang)
        XX     -68.7903     XY       1.9166     YY     -73.6143
        XZ      -1.5048     YZ       4.4330     ZZ     -83.3214
    Octopole Moments (Debye-Ang^2)
       XXX      42.1637    XXY      -0.1785    XYY       2.0454
       YYY      27.2792    XXZ       3.0878    XYZ      -0.5143
       YYZ      12.4335    XZZ      10.2722    YZZ       8.2552
       ZZZ      -4.2585
    Hexadecapole Moments (Debye-Ang^3)
      XXXX   -1864.9843   XXXY     -36.3412   XXYY    -612.3795
      XYYY     -33.3787   YYYY   -1488.3369   XXXZ      -5.4530
      XXYZ       6.8837   XYYZ     -12.0015   YYYZ      15.2403
      XXZZ    -384.1001   XYZZ     -15.0269   YYZZ    -314.5059
      XZZZ      -9.1730   YZZZ      -0.5651   ZZZZ    -196.3439
 -----------------------------------------------------------------
 Calculating analytic gradient of the SCF energy
 Gradient of SCF Energy
            1           2           3           4           5           6
    1   0.0006425   0.0017959   0.0107636   0.0057692  -0.0053692  -0.0023509
    2   0.0063010   0.0038039  -0.0095006   0.0024682   0.0184672  -0.0059486
    3  -0.0005225  -0.0056252   0.0038115   0.0152277  -0.0094197   0.0026542
            7           8           9          10          11          12
    1  -0.0097160   0.0019851   0.0014208  -0.0066336   0.0003883   0.0001853
    2   0.0035154  -0.0054672  -0.0080664  -0.0059944   0.0012551  -0.0014000
    3  -0.0194751   0.0031525   0.0035131   0.0023135   0.0007101   0.0002893
           13          14          15          16          17          18
    1  -0.0012315  -0.0023013   0.0008400   0.0006243   0.0012081   0.0007124
    2  -0.0002997   0.0027162   0.0001374  -0.0015147  -0.0004320  -0.0002015
    3   0.0003572   0.0007310   0.0015259   0.0007872  -0.0002137   0.0015803
           19          20          21          22          23          24
    1  -0.0004336   0.0010165   0.0007279   0.0001787  -0.0018988   0.0043964
    2   0.0023605   0.0018011  -0.0013281   0.0007814  -0.0014512  -0.0000597
    3  -0.0013522  -0.0007411   0.0010621  -0.0000953  -0.0003456  -0.0009746
           25          26          27
    1  -0.0011238  -0.0011478  -0.0004485
    2  -0.0017840  -0.0016062   0.0014467
    3   0.0001732   0.0007539   0.0001221
 Max gradient component =       1.948E-02
 RMS gradient           =       4.801E-03
 Gradient time:  CPU 12.44 s  wall 0.52 s
 Geometry Optimization Parameters
   NAtoms,    NIC,     NZ,  NCons,   NDum,   NFix, NCnnct, MaxDiis
       27     173       0       2       0       0       0       0

 Cartesian Hessian Update
 Hessian Updated using BFGS Update


** CONSTRAINED OPTIMIZATION IN DELOCALIZED INTERNAL COORDINATES **
   Searching for a Minimum

   Optimization Cycle:   2

                       Coordinates (Angstroms)
     ATOM                X               Y               Z
      1  C         0.3869838597   -0.9170559812   -0.0674809400
      2  C        -0.8536599101   -0.2299023942   -0.1097065213
      3  C         1.6836696180   -0.1287095065   -0.2695883532
      4  C        -0.8834327203    1.3028852588   -0.2464847483
      5  O         2.7716869715   -0.8413091794    0.2667106513
      6  O         1.7690526970    0.9921400412   -0.8222221336
      7  O        -0.2689290638    1.8733177327    0.8841157038
      8  O        -1.4092275729    1.9442717568   -1.1813663044
      9  C        -0.2109315118    3.3378542650    0.8157984301
     10  C         4.0402715790   -0.1261023780    0.1069606933
     11  C         0.4061224261   -2.3233941862    0.0974975071
     12  C        -0.7987048764   -3.0368230696    0.2165643203
     13  C        -2.0296605355   -2.3537104942    0.1671541135
     14  C        -2.0772926358   -0.9487321879    0.0070659368
     15  H         0.3474449575    3.6833586695   -0.0774017255
     16  H         4.3100270220   -0.0007367246   -0.9614027746
     17  H        -2.9651487193   -2.9207550231    0.2563118105
     18  H        -1.2241738291    3.7887802917    0.8052943154
     19  H         0.3203193425    3.6831573494    1.7212644380
     20  H         4.8163281734   -0.7404531010    0.5986817854
     21  H         4.0150126290    0.8707321228    0.5917306704
     22  H        -0.7800879288   -4.1269536689    0.3410718758
     23  H         1.3625618447   -2.8604646372    0.1184063941
     24  C        -3.4304815566   -0.2267332978   -0.0398923675
     25  H        -3.5957527141    0.2339052895   -1.0271490432
     26  H        -3.4874618989    0.5628365476    0.7263437628
     27  H        -4.2524392913   -0.9327225830    0.1465566693
   Point Group: c1    Number of degrees of freedom:    75


   Energy is   -717.952134812

              Constraints and their Current Values
                                        Value     Constraint
   Dihedral:        2   1   3   5      158.961      158.600
   Dihedral:        1   2   4   7      -62.975      -62.300
 Hessian Updated using BFGS Update

   Using Lagrange Multiplier Algorithm


 65 Hessian modes will be used to form the next step
  Hessian Eigenvalues:
    -0.977760   -0.977315    0.044966    0.045000    0.045000    0.045000
     0.045000    0.045000    0.045002    0.045002    0.045005    0.045008
     0.045068    0.045070    0.045765    0.094009    0.094224    0.113791
     0.113884    0.116885    0.116948    0.158418    0.159978    0.159992
     0.160000    0.162301    0.220819    0.233943    0.238124    0.248932
     0.249176    0.249779    0.249935    0.249959    0.250000    0.253353
     0.319416    0.336650    0.342233    0.342628    0.342731    0.342872
     0.343255    0.343784    0.343948    0.344332    0.345154    0.348601
     0.350307    0.350583    0.371392    0.408102    0.411426    0.413689
     0.421782    0.442541    0.451456    0.463331    0.468429    0.517952
     0.534767    0.960065    0.987338    1.022750    1.025025

 Minimum Search - Taking P-RFO Step
 Searching for Lamda that Maximizes Along the Constraint modes Only
 Value Taken    Lamda =   0.00011513
 Searching for Lamda that Minimizes Along All other modes
 Value Taken    Lamda =  -0.00382308
 Step Taken.  Stepsize is  0.132168

                             Maximum     Tolerance    Cnvgd?
         Gradient            0.018084       0.000300      NO
         Displacement        0.050483       0.001200      NO
         Energy change     -0.026408       0.000001      NO


 New Cartesian Coordinates Obtained by Inverse Iteration

 Displacement from previous Coordinates is:  0.422952
 Adding empirical dispersion correction 
 ----------------------------------------------------------------
 Doing -D3(op) with
 s6 =   1.00000
 s8 =   0.78311
 a1 =   0.30000
 a2 =   4.25000
 n  =  10.00000
 -D3 energy without 3body term =     -0.0279823324 hartrees
 ----------------------------------------------------------------
             Standard Nuclear Orientation (Angstroms)
    I     Atom           X                Y                Z
 ----------------------------------------------------------------
    1      C       0.3810556676    -0.9358369448    -0.0558700682
    2      C      -0.8581907858    -0.2428917399    -0.0878181592
    3      C       1.6784621402    -0.1338246434    -0.2374104585
    4      C      -0.8781312435     1.2995975108    -0.2189250296
    5      O       2.7758307212    -0.8650548539     0.3022479437
    6      O       1.7783709915     0.9980888192    -0.7752081054
    7      O      -0.2296124472     1.8581716495     0.9208735263
    8      O      -1.4030279207     1.9697678492    -1.1395131894
    9      C      -0.1840622870     3.3267002318     0.7824247123
   10      C       4.0199787689    -0.0935398762     0.1141268560
   11      C       0.4022237990    -2.3429734078     0.0874718639
   12      C      -0.8068966802    -3.0537972127     0.1924740807
   13      C      -2.0370980807    -2.3657807264     0.1512201513
   14      C      -2.0818412798    -0.9591455906     0.0138585465
   15      H       0.3560442359     3.6302157731    -0.1383036945
   16      H       4.2566474698     0.0481022314    -0.9612387990
   17      H      -2.9790563363    -2.9260537078     0.2312131088
   18      H      -1.2015093687     3.7703588637     0.7596088820
   19      H       0.3604383697     3.6947628492     1.6719580081
   20      H       4.8199594141    -0.6885167186     0.5932675658
   21      H       3.9596774106     0.9049910319     0.5948173209
   22      H      -0.7939838191    -4.1468375969     0.3023013538
   23      H       1.3674731369    -2.8673201646     0.1070284143
   24      C      -3.4312753934    -0.2209866286    -0.0274839077
   25      H      -3.5762749355     0.2648491794    -1.0071465009
   26      H      -3.4745159265     0.5622660475     0.7474274903
   27      H      -4.2585892651    -0.9266313127     0.1414322536
 ----------------------------------------------------------------
 Molecular Point Group                 C1    NOp =  1
 Largest Abelian Subgroup              C1    NOp =  1
 Nuclear Repulsion Energy =   991.2626781825 hartrees
 There are       55 alpha and       55 beta electrons
 Applying Cartesian multipole field
    Component          Value
    ---------          -----
     (2,0,0)        1.00000E-11
     (0,2,0)        2.00000E-11
     (0,0,2)       -3.00000E-11
 Nucleus-field energy     =     0.0000000388 hartrees
 Requested basis set is STO-3G
 There are 42 shells and 87 basis functions
 A cutoff of  1.0D-12 yielded    764 shell pairs
 There are      3692 function pairs
 Smallest overlap matrix eigenvalue = 1.82E-01
 Guess MOs from SCF MO coefficient file
 Reading MOs from coefficient file
 Reading MOs from coefficient file
 A restricted hybrid HF-DFT SCF calculation will be
 performed using Pulay DIIS extrapolation
 Exchange:     0.2000 Hartree-Fock + 0.0800 Slater + 0.7200 B88
 Correlation:  0.1900 VWN1RPA + 0.8100 LYP
 Using SG-1 standard quadrature grid
 Dispersion:   Grimme D3
 SCF converges when DIIS error is below 1.0E-08
 Geometry optimization detected.  Setting ReadMinima to 0
 Setting SaveMinima to 0
 -------------------------------------------------------
 OpenMP Integral computing Module                
 Release: version 1.0, May 2013, Q-Chem Inc. Pittsburgh 
 -------------------------------------------------------
 -------------------------------------------------------
 OpenMP BLAS3 based DFT computing Module                
 Release: version 1.0, May 2013, Q-Chem Inc. Pittsburgh 
 -------------------------------------------------------
 ---------------------------------------
  Cycle       Energy         DIIS Error
 ---------------------------------------
    1    -717.9154181650      2.70E-03
    2    -717.9532270973      8.28E-04
    3    -717.9513353682      1.58E-03
    4    -717.9539480009      2.24E-04
    5    -717.9540044274      6.17E-05
    6    -717.9540086369      1.86E-05
    7    -717.9540090192      7.81E-06
    8    -717.9540090840      3.81E-06
    9    -717.9540090988      1.24E-06
   10    -717.9540091007      1.56E-07
   11    -717.9540091007      4.84E-08
   12    -717.9540091007      1.62E-08
   13    -717.9540091007      7.22E-09 Convergence criterion met
 ---------------------------------------
 SCF time:  CPU 49.58 s  wall 2.10 s
 SCF   energy in the final basis set = -717.9540091007
 Total energy in the final basis set = -717.9540091007
 
 --------------------------------------------------------------
 
                    Orbital Energies (a.u.)
 --------------------------------------------------------------
 
 Alpha MOs
 -- Occupied --
-18.941 -18.933 -18.874 -18.870 -10.104 -10.100 -10.067 -10.060
-10.028 -10.027 -10.024 -10.019 -10.016 -10.015 -10.014  -1.015
 -1.007  -0.937  -0.931  -0.816  -0.735  -0.720  -0.673  -0.657
 -0.645  -0.586  -0.562  -0.507  -0.495  -0.458  -0.439  -0.426
 -0.415  -0.413  -0.406  -0.387  -0.379  -0.373  -0.368  -0.358
 -0.349  -0.342  -0.329  -0.312  -0.309  -0.296  -0.286  -0.259
 -0.252  -0.197  -0.192  -0.181  -0.171  -0.155  -0.148
 -- Virtual --
  0.045   0.070   0.116   0.136   0.238   0.251   0.277   0.318
  0.339   0.350   0.370   0.388   0.409   0.420   0.423   0.428
  0.429   0.435   0.436   0.440   0.446   0.454   0.461   0.474
  0.545   0.556   0.564   0.586   0.645   0.657   0.754   0.772
 --------------------------------------------------------------
 
          Ground-State Mulliken Net Atomic Charges

     Atom                 Charge (a.u.)
  ----------------------------------------
      1 C                    -0.016427
      2 C                    -0.015582
      3 C                     0.209343
      4 C                     0.214376
      5 O                    -0.166753
      6 O                    -0.211570
      7 O                    -0.166670
      8 O                    -0.209284
      9 C                    -0.126626
     10 C                    -0.126169
     11 C                    -0.074772
     12 C                    -0.076412
     13 C                    -0.076202
     14 C                     0.010816
     15 H                     0.094180
     16 H                     0.089351
     17 H                     0.080887
     18 H                     0.086751
     19 H                     0.088792
     20 H                     0.091007
     21 H                     0.091189
     22 H                     0.083528
     23 H                     0.092009
     24 C                    -0.224642
     25 H                     0.093461
     26 H                     0.084706
     27 H                     0.080711
  ----------------------------------------
  Sum of atomic charges =     0.000000

 -----------------------------------------------------------------
                    Cartesian Multipole Moments
 -----------------------------------------------------------------
    Charge (ESU x 10^10)
                 0.0000
    Dipole Moment (Debye)
         X       0.5670      Y      -0.6945      Z       1.1312
       Tot       1.4434
    Quadrupole Moments (Debye-Ang)
        XX     -69.3465     XY       2.0839     YY     -73.9500
        XZ      -1.5363     YZ       4.1157     ZZ     -83.2417
    Octopole Moments (Debye-Ang^2)
       XXX      38.9384    XXY       0.6035    XYY       1.8027
       YYY      26.2724    XXZ       1.9324    XYZ      -0.4463
       YYZ      10.4805    XZZ      10.0531    YZZ       8.8308
       ZZZ      -7.1317
    Hexadecapole Moments (Debye-Ang^3)
      XXXX   -1872.0419   XXXY     -40.0121   XXYY    -612.5754
      XYYY     -38.6054   YYYY   -1502.5249   XXXZ      -8.4754
      XXYZ       6.0889   XYYZ     -12.3160   YYYZ      12.2585
      XXZZ    -382.1273   XYZZ     -17.1742   YYZZ    -315.4074
      XZZZ     -11.9663   YZZZ      -3.2684   ZZZZ    -189.7479
 -----------------------------------------------------------------
 Calculating analytic gradient of the SCF energy
 Gradient of SCF Energy
            1           2           3           4           5           6
    1  -0.0008878   0.0008340   0.0061451   0.0024821  -0.0015406  -0.0005275
    2  -0.0010954  -0.0008279  -0.0039511   0.0043065   0.0021482   0.0029860
    3   0.0001442  -0.0018221   0.0019273   0.0081590  -0.0002424  -0.0012495
            7           8           9          10          11          12
    1  -0.0001234  -0.0012973  -0.0014682  -0.0044285   0.0000383   0.0003281
    2  -0.0004410   0.0010591  -0.0045344  -0.0006701   0.0005918  -0.0001486
    3  -0.0025062  -0.0030479  -0.0018506  -0.0003471   0.0002443   0.0000365
           13          14          15          16          17          18
    1  -0.0004337  -0.0000411   0.0002314   0.0002827  -0.0002641  -0.0004739
    2   0.0006169   0.0000988   0.0003025   0.0000887  -0.0000082   0.0003403
    3  -0.0001368   0.0008738  -0.0004776  -0.0004853  -0.0000957   0.0001022
           19          20          21          22          23          24
    1   0.0003110  -0.0000237   0.0001563   0.0000831   0.0002091   0.0009592
    2  -0.0006907  -0.0004902   0.0005097  -0.0001052  -0.0002870   0.0007377
    3   0.0004276   0.0002978   0.0002525   0.0000856  -0.0002297  -0.0002614
           25          26          27
    1  -0.0002268  -0.0000935  -0.0002303
    2  -0.0001932   0.0000464  -0.0003896
    3  -0.0002434   0.0002244   0.0002203
 Max gradient component =       8.159E-03
 RMS gradient           =       1.737E-03
 Gradient time:  CPU 12.75 s  wall 0.53 s
 Geometry Optimization Parameters
   NAtoms,    NIC,     NZ,  NCons,   NDum,   NFix, NCnnct, MaxDiis
       27     173       0       2       0       0       0       0

 Cartesian Hessian Update
 Hessian Updated using BFGS Update


** CONSTRAINED OPTIMIZATION IN DELOCALIZED INTERNAL COORDINATES **
   Searching for a Minimum

   Optimization Cycle:   3

                       Coordinates (Angstroms)
     ATOM                X               Y               Z
      1  C         0.3810556676   -0.9358369448   -0.0558700682
      2  C        -0.8581907858   -0.2428917399   -0.0878181592
      3  C         1.6784621402   -0.1338246434   -0.2374104585
      4  C        -0.8781312435    1.2995975108   -0.2189250296
      5  O         2.7758307212   -0.8650548539    0.3022479437
      6  O         1.7783709915    0.9980888192   -0.7752081054
      7  O        -0.2296124472    1.8581716495    0.9208735263
      8  O        -1.4030279207    1.9697678492   -1.1395131894
      9  C        -0.1840622870    3.3267002318    0.7824247123
     10  C         4.0199787689   -0.0935398762    0.1141268560
     11  C         0.4022237990   -2.3429734078    0.0874718639
     12  C        -0.8068966802   -3.0537972127    0.1924740807
     13  C        -2.0370980807   -2.3657807264    0.1512201513
     14  C        -2.0818412798   -0.9591455906    0.0138585465
     15  H         0.3560442359    3.6302157731   -0.1383036945
     16  H         4.2566474698    0.0481022314   -0.9612387990
     17  H        -2.9790563363   -2.9260537078    0.2312131088
     18  H        -1.2015093687    3.7703588637    0.7596088820
     19  H         0.3604383697    3.6947628492    1.6719580081
     20  H         4.8199594141   -0.6885167186    0.5932675658
     21  H         3.9596774106    0.9049910319    0.5948173209
     22  H        -0.7939838191   -4.1468375969    0.3023013538
     23  H         1.3674731369   -2.8673201646    0.1070284143
     24  C        -3.4312753934   -0.2209866286   -0.0274839077
     25  H        -3.5762749355    0.2648491794   -1.0071465009
     26  H        -3.4745159265    0.5622660475    0.7474274903
     27  H        -4.2585892651   -0.9266313127    0.1414322536
   Point Group: c1    Number of degrees of freedom:    75


   Energy is   -717.954009101

              Constraints and their Current Values
                                        Value     Constraint
   Dihedral:        2   1   3   5      158.601      158.600
   Dihedral:        1   2   4   7      -62.301      -62.300
 Hessian Updated using BFGS Update

   Using Lagrange Multiplier Algorithm


 68 Hessian modes will be used to form the next step
  Hessian Eigenvalues:
    -0.977743   -0.977331    0.043791    0.045000    0.045000    0.045000
     0.045000    0.045000    0.045001    0.045002    0.045004    0.045007
     0.045031    0.045069    0.045230    0.045813    0.093084    0.094216
     0.112610    0.113899    0.116883    0.116948    0.157707    0.159987
     0.159996    0.160000    0.161320    0.163675    0.220883    0.233615
     0.235274    0.248985    0.249518    0.249818    0.249936    0.249998
     0.250000    0.251973    0.293764    0.319772    0.336650    0.342280
     0.342645    0.342724    0.342884    0.343347    0.343795    0.343975
     0.344433    0.345467    0.348659    0.350309    0.350666    0.375952
     0.393264    0.410575    0.413664    0.420571    0.442914    0.452890
     0.463868    0.467833    0.471791    0.534747    0.960053    1.010162
     1.022798    1.028911

 Minimum Search - Taking P-RFO Step
 Searching for Lamda that Maximizes Along the Constraint modes Only
 Value Taken    Lamda =   0.00000019
 Searching for Lamda that Minimizes Along All other modes
 Value Taken    Lamda =  -0.00047006
 Step Taken.  Stepsize is  0.046673

                             Maximum     Tolerance    Cnvgd?
         Gradient            0.005719       0.000300      NO
         Displacement        0.018466       0.001200      NO
         Energy change     -0.001874       0.000001      NO


 New Cartesian Coordinates Obtained by Inverse Iteration

 Displacement from previous Coordinates is:  0.139016
 Adding empirical dispersion correction 
 ----------------------------------------------------------------
 Doing -D3(op) with
 s6 =   1.00000
 s8 =   0.78311
 a1 =   0.30000
 a2 =   4.25000
 n  =  10.00000
 -D3 energy without 3body term =     -0.0279505803 hartrees
 ----------------------------------------------------------------
             Standard Nuclear Orientation (Angstroms)
    I     Atom           X                Y                Z
 ----------------------------------------------------------------
    1      C       0.3767792504    -0.9318026692    -0.0519429425
    2      C      -0.8653629816    -0.2421019058    -0.0832007647
    3      C       1.6745423785    -0.1313151067    -0.2347551436
    4      C      -0.8897398811     1.3001677296    -0.2185002734
    5      O       2.7785425863    -0.8651307383     0.3073175497
    6      O       1.7813633398     0.9953455120    -0.7789950671
    7      O      -0.2372851445     1.8701385115     0.9235388610
    8      O      -1.4185503310     1.9703383019    -1.1347864784
    9      C      -0.1829432379     3.3452199732     0.7894189644
   10      C       4.0347929562    -0.1044351264     0.1100860515
   11      C       0.4017528453    -2.3389610777     0.0914251977
   12      C      -0.8048941719    -3.0539748437     0.1933695270
   13      C      -2.0366068554    -2.3706284577     0.1490968226
   14      C      -2.0865098464    -0.9639633489     0.0127589097
   15      H       0.3606784259     3.6443382427    -0.1296208327
   16      H       4.2656533645     0.0282044457    -0.9668462076
   17      H      -2.9765058465    -2.9341917420     0.2270989927
   18      H      -1.1982853539     3.7910830910     0.7600104386
   19      H       0.3583967231     3.7138579431     1.6801348016
   20      H       4.8322437315    -0.7013339193     0.5897574842
   21      H       3.9815862863     0.8976222670     0.5821738882
   22      H      -0.7893552242    -4.1469338885     0.3026932477
   23      H       1.3697343258    -2.8573416447     0.1143145525
   24      C      -3.4390951304    -0.2302466431    -0.0322976681
   25      H      -3.5775089500     0.2602613509    -1.0103976124
   26      H      -3.4854480733     0.5516770435     0.7434604772
   27      H      -4.2658788297    -0.9372123881     0.1295213903
 ----------------------------------------------------------------
 Molecular Point Group                 C1    NOp =  1
 Largest Abelian Subgroup              C1    NOp =  1
 Nuclear Repulsion Energy =   989.4805500860 hartrees
 There are       55 alpha and       55 beta electrons
 Applying Cartesian multipole field
    Component          Value
    ---------          -----
     (2,0,0)        1.00000E-11
     (0,2,0)        2.00000E-11
     (0,0,2)       -3.00000E-11
 Nucleus-field energy     =     0.0000000389 hartrees
 Requested basis set is STO-3G
 There are 42 shells and 87 basis functions
 A cutoff of  1.0D-12 yielded    764 shell pairs
 There are      3692 function pairs
 Smallest overlap matrix eigenvalue = 1.82E-01
 Guess MOs from SCF MO coefficient file
 Reading MOs from coefficient file
 Reading MOs from coefficient file
 A restricted hybrid HF-DFT SCF calculation will be
 performed using Pulay DIIS extrapolation
 Exchange:     0.2000 Hartree-Fock + 0.0800 Slater + 0.7200 B88
 Correlation:  0.1900 VWN1RPA + 0.8100 LYP
 Using SG-1 standard quadrature grid
 Dispersion:   Grimme D3
 SCF converges when DIIS error is below 1.0E-08
 Geometry optimization detected.  Setting ReadMinima to 0
 Setting SaveMinima to 0
 -------------------------------------------------------
 OpenMP Integral computing Module                
 Release: version 1.0, May 2013, Q-Chem Inc. Pittsburgh 
 -------------------------------------------------------
 -------------------------------------------------------
 OpenMP BLAS3 based DFT computing Module                
 Release: version 1.0, May 2013, Q-Chem Inc. Pittsburgh 
 -------------------------------------------------------
 ---------------------------------------
  Cycle       Energy         DIIS Error
 ---------------------------------------
    1    -717.9482207889      9.15E-04
    2    -717.9541176135      3.16E-04
    3    -717.9537676161      6.43E-04
    4    -717.9542287186      6.23E-05
    5    -717.9542329441      1.52E-05
    6    -717.9542331919      5.31E-06
    7    -717.9542332245      2.41E-06
    8    -717.9542332304      9.39E-07
    9    -717.9542332312      3.84E-07
   10    -717.9542332314      4.77E-08
   11    -717.9542332314      1.62E-08
   12    -717.9542332314      5.98E-09 Convergence criterion met
 ---------------------------------------
 SCF time:  CPU 44.34 s  wall 1.87 s
 SCF   energy in the final basis set = -717.9542332314
 Total energy in the final basis set = -717.9542332314
 
 --------------------------------------------------------------
 
                    Orbital Energies (a.u.)
 --------------------------------------------------------------
 
 Alpha MOs
 -- Occupied --
-18.938 -18.930 -18.875 -18.872 -10.104 -10.100 -10.066 -10.059
-10.028 -10.028 -10.025 -10.020 -10.016 -10.016 -10.014  -1.012
 -1.004  -0.936  -0.930  -0.816  -0.735  -0.720  -0.672  -0.656
 -0.646  -0.587  -0.562  -0.507  -0.494  -0.457  -0.439  -0.426
 -0.413  -0.413  -0.405  -0.387  -0.379  -0.373  -0.368  -0.359
 -0.349  -0.342  -0.329  -0.313  -0.310  -0.296  -0.287  -0.258
 -0.251  -0.197  -0.193  -0.180  -0.170  -0.155  -0.149
 -- Virtual --
  0.045   0.069   0.115   0.136   0.237   0.247   0.273   0.317
  0.338   0.349   0.369   0.386   0.408   0.421   0.423   0.428
  0.430   0.436   0.437   0.441   0.446   0.453   0.461   0.474
  0.544   0.556   0.563   0.586   0.645   0.657   0.753   0.771
 --------------------------------------------------------------
 
          Ground-State Mulliken Net Atomic Charges

     Atom                 Charge (a.u.)
  ----------------------------------------
      1 C                    -0.015905
      2 C                    -0.015378
      3 C                     0.208579
      4 C                     0.213361
      5 O                    -0.166792
      6 O                    -0.210790
      7 O                    -0.166588
      8 O                    -0.208468
      9 C                    -0.128171
     10 C                    -0.127620
     11 C                    -0.074568
     12 C                    -0.076316
     13 C                    -0.076179
     14 C                     0.011163
     15 H                     0.093862
     16 H                     0.089202
     17 H                     0.081125
     18 H                     0.086740
     19 H                     0.089229
     20 H                     0.091281
     21 H                     0.091121
     22 H                     0.083787
     23 H                     0.092536
     24 C                    -0.224877
     25 H                     0.093614
     26 H                     0.085003
     27 H                     0.081047
  ----------------------------------------
  Sum of atomic charges =     0.000000

 -----------------------------------------------------------------
                    Cartesian Multipole Moments
 -----------------------------------------------------------------
    Charge (ESU x 10^10)
                 0.0000
    Dipole Moment (Debye)
         X       0.5371      Y      -0.7164      Z       1.1016
       Tot       1.4195
    Quadrupole Moments (Debye-Ang)
        XX     -69.3345     XY       2.1302     YY     -73.8338
        XZ      -1.5283     YZ       4.1009     ZZ     -83.2413
    Octopole Moments (Debye-Ang^2)
       XXX      39.6360    XXY       0.3267    XYY       1.9788
       YYY      26.5296    XXZ       1.8301    XYZ      -0.4219
       YYZ      10.5035    XZZ      10.1739    YZZ       8.8416
       ZZZ      -7.4050
    Hexadecapole Moments (Debye-Ang^3)
      XXXX   -1878.5272   XXXY     -39.3859   XXYY    -615.1382
      XYYY     -37.3026   YYYY   -1506.1577   XXXZ      -8.8613
      XXYZ       5.9737   XYYZ     -12.2895   YYYZ      12.0650
      XXZZ    -384.1362   XYZZ     -16.9349   YYZZ    -316.3035
      XZZZ     -12.3510   YZZZ      -4.0553   ZZZZ    -190.0282
 -----------------------------------------------------------------
 Calculating analytic gradient of the SCF energy
 Gradient of SCF Energy
            1           2           3           4           5           6
    1  -0.0006819  -0.0000452   0.0002329  -0.0004327  -0.0007256   0.0001270
    2  -0.0009186  -0.0010033  -0.0017832  -0.0002833   0.0005445   0.0012709
    3  -0.0005186  -0.0013241   0.0002891   0.0022746   0.0005896  -0.0006766
            7           8           9          10          11          12
    1   0.0002280  -0.0003457   0.0003940   0.0011444  -0.0000692  -0.0000439
    2  -0.0001848   0.0006872   0.0009449  -0.0000500   0.0001260   0.0002582
    3  -0.0007934  -0.0009938   0.0006326   0.0002678   0.0002390  -0.0000167
           13          14          15          16          17          18
    1   0.0001037   0.0002577  -0.0002769  -0.0000609  -0.0000898   0.0001078
    2   0.0000956  -0.0002871  -0.0000613   0.0001642   0.0000487   0.0000100
    3  -0.0001626   0.0005869  -0.0000846   0.0000566  -0.0000126  -0.0000933
           19          20          21          22          23          24
    1   0.0001275   0.0001883  -0.0000746  -0.0000439   0.0000729  -0.0003428
    2   0.0001872  -0.0000032   0.0000106  -0.0000292   0.0000862   0.0001589
    3   0.0000651   0.0000080  -0.0002166   0.0000437  -0.0001282   0.0000088
           25          26          27
    1   0.0000495   0.0001829   0.0000165
    2  -0.0000182   0.0001395  -0.0001107
    3  -0.0000182  -0.0001342   0.0001118
 Max gradient component =       2.275E-03
 RMS gradient           =       5.299E-04
 Gradient time:  CPU 12.52 s  wall 0.53 s
 Geometry Optimization Parameters
   NAtoms,    NIC,     NZ,  NCons,   NDum,   NFix, NCnnct, MaxDiis
       27     173       0       2       0       0       0       0

 Cartesian Hessian Update
 Hessian Updated using BFGS Update


** CONSTRAINED OPTIMIZATION IN DELOCALIZED INTERNAL COORDINATES **
   Searching for a Minimum

   Optimization Cycle:   4

                       Coordinates (Angstroms)
     ATOM                X               Y               Z
      1  C         0.3767792504   -0.9318026692   -0.0519429425
      2  C        -0.8653629816   -0.2421019058   -0.0832007647
      3  C         1.6745423785   -0.1313151067   -0.2347551436
      4  C        -0.8897398811    1.3001677296   -0.2185002734
      5  O         2.7785425863   -0.8651307383    0.3073175497
      6  O         1.7813633398    0.9953455120   -0.7789950671
      7  O        -0.2372851445    1.8701385115    0.9235388610
      8  O        -1.4185503310    1.9703383019   -1.1347864784
      9  C        -0.1829432379    3.3452199732    0.7894189644
     10  C         4.0347929562   -0.1044351264    0.1100860515
     11  C         0.4017528453   -2.3389610777    0.0914251977
     12  C        -0.8048941719   -3.0539748437    0.1933695270
     13  C        -2.0366068554   -2.3706284577    0.1490968226
     14  C        -2.0865098464   -0.9639633489    0.0127589097
     15  H         0.3606784259    3.6443382427   -0.1296208327
     16  H         4.2656533645    0.0282044457   -0.9668462076
     17  H        -2.9765058465   -2.9341917420    0.2270989927
     18  H        -1.1982853539    3.7910830910    0.7600104386
     19  H         0.3583967231    3.7138579431    1.6801348016
     20  H         4.8322437315   -0.7013339193    0.5897574842
     21  H         3.9815862863    0.8976222670    0.5821738882
     22  H        -0.7893552242   -4.1469338885    0.3026932477
     23  H         1.3697343258   -2.8573416447    0.1143145525
     24  C        -3.4390951304   -0.2302466431   -0.0322976681
     25  H        -3.5775089500    0.2602613509   -1.0103976124
     26  H        -3.4854480733    0.5516770435    0.7434604772
     27  H        -4.2658788297   -0.9372123881    0.1295213903
   Point Group: c1    Number of degrees of freedom:    75


   Energy is   -717.954233231

              Constraints and their Current Values
                                        Value     Constraint
   Dihedral:        2   1   3   5      158.600      158.600
   Dihedral:        1   2   4   7      -62.300      -62.300
 Hessian Updated using BFGS Update

 64 Hessian modes will be used to form the next step
  Hessian Eigenvalues:
     0.040440    0.045000    0.045000    0.045000    0.045001    0.045002
     0.045004    0.045007    0.045011    0.045035    0.045149    0.045243
     0.045925    0.093666    0.094220    0.113892    0.114743    0.116883
     0.116946    0.158636    0.159988    0.159996    0.160000    0.160129
     0.161304    0.163837    0.220766    0.230679    0.234707    0.248992
     0.249506    0.249812    0.249978    0.249998    0.250073    0.251742
     0.295822    0.319691    0.336110    0.342242    0.342646    0.342726
     0.342884    0.343377    0.343835    0.343893    0.344423    0.347046
     0.348705    0.350268    0.350665    0.367732    0.408602    0.412139
     0.413714    0.442584    0.450835    0.457630    0.462777    0.465824
     0.510993    0.536533    0.960183    0.985695

 Minimum Search - Taking Simple RFO Step
 Searching for Lamda that Minimizes Along All modes
 Value Taken    Lamda =  -0.00003680
 Step Taken.  Stepsize is  0.018207

                             Maximum     Tolerance    Cnvgd?
         Gradient           0.001576      0.000300      NO
         Displacement       0.005682      0.001200      NO
         Energy change     -0.000224      0.000001      NO


 New Cartesian Coordinates Obtained by Inverse Iteration

 Displacement from previous Coordinates is:  0.047937
 Adding empirical dispersion correction 
 ----------------------------------------------------------------
 Doing -D3(op) with
 s6 =   1.00000
 s8 =   0.78311
 a1 =   0.30000
 a2 =   4.25000
 n  =  10.00000
 -D3 energy without 3body term =     -0.0279603011 hartrees
 ----------------------------------------------------------------
             Standard Nuclear Orientation (Angstroms)
    I     Atom           X                Y                Z
 ----------------------------------------------------------------
    1      C       0.3763171839    -0.9289528359    -0.0482768621
    2      C      -0.8662728224    -0.2404124218    -0.0782838029
    3      C       1.6728806767    -0.1286101717    -0.2318038079
    4      C      -0.8902961042     1.3002258976    -0.2156063577
    5      O       2.7764600452    -0.8637472913     0.3098146240
    6      O       1.7799146992     0.9978124667    -0.7747140087
    7      O      -0.2352758989     1.8696066043     0.9254626555
    8      O      -1.4194534231     1.9699918960    -1.1310615839
    9      C      -0.1779575808     3.3434253674     0.7860584580
   10      C       4.0312796591    -0.1032320406     0.1092082555
   11      C       0.4022867209    -2.3367947615     0.0923740536
   12      C      -0.8036361880    -3.0533923094     0.1920536709
   13      C      -2.0359499124    -2.3709898662     0.1476992558
   14      C      -2.0872415895    -0.9637512583     0.0137373480
   15      H       0.3698673909     3.6392270871    -0.1316961082
   16      H       4.2606180304     0.0273884402    -0.9683777890
   17      H      -2.9750349130    -2.9360836450     0.2234880849
   18      H      -1.1924443375     3.7912890862     0.7534483579
   19      H       0.3615609052     3.7130560762     1.6772006240
   20      H       4.8287380978    -0.7004963629     0.5879867911
   21      H       3.9800841828     0.8989382142     0.5814816386
   22      H      -0.7869159334    -4.1465430932     0.2989979079
   23      H       1.3703314922    -2.8549594575     0.1154378699
   24      C      -3.4408588662    -0.2321352745    -0.0322019626
   25      H      -3.5779752450     0.2620006316    -1.0086657007
   26      H      -3.4917313027     0.5463822800     0.7467287458
   27      H      -4.2671986114    -0.9405623455     0.1243438081
 ----------------------------------------------------------------
 Molecular Point Group                 C1    NOp =  1
 Largest Abelian Subgroup              C1    NOp =  1
 Nuclear Repulsion Energy =   989.8388050955 hartrees
 There are       55 alpha and       55 beta electrons
 Applying Cartesian multipole field
    Component          Value
    ---------          -----
     (2,0,0)        1.00000E-11
     (0,2,0)        2.00000E-11
     (0,0,2)       -3.00000E-11
 Nucleus-field energy     =     0.0000000389 hartrees
 Requested basis set is STO-3G
 There are 42 shells and 87 basis functions
 A cutoff of  1.0D-12 yielded    764 shell pairs
 There are      3692 function pairs
 Smallest overlap matrix eigenvalue = 1.82E-01
 Guess MOs from SCF MO coefficient file
 Reading MOs from coefficient file
 Reading MOs from coefficient file
 A restricted hybrid HF-DFT SCF calculation will be
 performed using Pulay DIIS extrapolation
 Exchange:     0.2000 Hartree-Fock + 0.0800 Slater + 0.7200 B88
 Correlation:  0.1900 VWN1RPA + 0.8100 LYP
 Using SG-1 standard quadrature grid
 Dispersion:   Grimme D3
 SCF converges when DIIS error is below 1.0E-08
 Geometry optimization detected.  Setting ReadMinima to 0
 Setting SaveMinima to 0
 -------------------------------------------------------
 OpenMP Integral computing Module                
 Release: version 1.0, May 2013, Q-Chem Inc. Pittsburgh 
 -------------------------------------------------------
 -------------------------------------------------------
 OpenMP BLAS3 based DFT computing Module                
 Release: version 1.0, May 2013, Q-Chem Inc. Pittsburgh 
 -------------------------------------------------------
 ---------------------------------------
  Cycle       Energy         DIIS Error
 ---------------------------------------
    1    -717.9554718158      2.28E-04
    2    -717.9542499535      3.05E-05
    3    -717.9542482092      5.06E-05
    4    -717.9542513964      1.11E-05
    5    -717.9542514935      6.14E-06
    6    -717.9542515333      1.42E-06
    7    -717.9542515358      3.38E-07
    8    -717.9542515359      1.38E-07
    9    -717.9542515360      6.72E-08
   10    -717.9542515360      2.58E-08
   11    -717.9542515360      5.14E-09 Convergence criterion met
 ---------------------------------------
 SCF time:  CPU 41.44 s  wall 1.75 s
 SCF   energy in the final basis set = -717.9542515360
 Total energy in the final basis set = -717.9542515360
 
 --------------------------------------------------------------
 
                    Orbital Energies (a.u.)
 --------------------------------------------------------------
 
 Alpha MOs
 -- Occupied --
-18.938 -18.929 -18.875 -18.872 -10.104 -10.100 -10.066 -10.059
-10.028 -10.028 -10.025 -10.020 -10.016 -10.016 -10.014  -1.013
 -1.004  -0.936  -0.931  -0.816  -0.735  -0.720  -0.672  -0.656
 -0.646  -0.587  -0.562  -0.507  -0.494  -0.457  -0.439  -0.426
 -0.414  -0.413  -0.405  -0.387  -0.379  -0.373  -0.368  -0.359
 -0.349  -0.342  -0.329  -0.313  -0.310  -0.296  -0.287  -0.259
 -0.251  -0.197  -0.192  -0.180  -0.170  -0.155  -0.149
 -- Virtual --
  0.045   0.069   0.116   0.136   0.237   0.248   0.273   0.317
  0.338   0.349   0.370   0.386   0.409   0.421   0.423   0.428
  0.430   0.436   0.437   0.440   0.446   0.453   0.461   0.474
  0.544   0.556   0.563   0.586   0.646   0.657   0.753   0.771
 --------------------------------------------------------------
 
          Ground-State Mulliken Net Atomic Charges

     Atom                 Charge (a.u.)
  ----------------------------------------
      1 C                    -0.015985
      2 C                    -0.015499
      3 C                     0.208912
      4 C                     0.213650
      5 O                    -0.166810
      6 O                    -0.210852
      7 O                    -0.166586
      8 O                    -0.208446
      9 C                    -0.128195
     10 C                    -0.127606
     11 C                    -0.074470
     12 C                    -0.076365
     13 C                    -0.076131
     14 C                     0.011236
     15 H                     0.093799
     16 H                     0.089127
     17 H                     0.081117
     18 H                     0.086726
     19 H                     0.089081
     20 H                     0.091167
     21 H                     0.091084
     22 H                     0.083800
     23 H                     0.092521
     24 C                    -0.224966
     25 H                     0.093609
     26 H                     0.085008
     27 H                     0.081074
  ----------------------------------------
  Sum of atomic charges =     0.000000

 -----------------------------------------------------------------
                    Cartesian Multipole Moments
 -----------------------------------------------------------------
    Charge (ESU x 10^10)
                 0.0000
    Dipole Moment (Debye)
         X       0.5337      Y      -0.7225      Z       1.0877
       Tot       1.4106
    Quadrupole Moments (Debye-Ang)
        XX     -69.3681     XY       2.1380     YY     -73.8592
        XZ      -1.5346     YZ       4.0850     ZZ     -83.2351
    Octopole Moments (Debye-Ang^2)
       XXX      39.4122    XXY       0.2913    XYY       2.0241
       YYY      26.2248    XXZ       1.6935    XYZ      -0.4267
       YYZ      10.3139    XZZ      10.1861    YZZ       8.8042
       ZZZ      -7.7052
    Hexadecapole Moments (Debye-Ang^3)
      XXXX   -1878.5354   XXXY     -40.1106   XXYY    -614.7293
      XYYY     -37.9334   YYYY   -1505.5237   XXXZ      -9.1873
      XXYZ       6.0657   XYYZ     -12.2577   YYYZ      11.9899
      XXZZ    -383.8103   XYZZ     -17.2091   YYZZ    -316.0999
      XZZZ     -12.6214   YZZZ      -4.1294   ZZZZ    -189.3532
 -----------------------------------------------------------------
 Calculating analytic gradient of the SCF energy
 Gradient of SCF Energy
            1           2           3           4           5           6
    1  -0.0002220   0.0003930   0.0002273  -0.0007977  -0.0003315  -0.0000460
    2  -0.0001089  -0.0001799  -0.0007197   0.0000904   0.0002478   0.0002930
    3  -0.0005583  -0.0007560  -0.0004471   0.0011813   0.0008381  -0.0000918
            7           8           9          10          11          12
    1   0.0004660   0.0000710   0.0002079   0.0004143   0.0000182  -0.0000788
    2  -0.0002520   0.0001190   0.0004136   0.0001004  -0.0000160  -0.0000200
    3  -0.0002860  -0.0002376   0.0001219   0.0000678   0.0001510   0.0000060
           13          14          15          16          17          18
    1   0.0000431   0.0000510  -0.0000967  -0.0000261   0.0000064  -0.0000160
    2  -0.0001740   0.0000737   0.0000286   0.0000041   0.0000037   0.0000101
    3  -0.0001501   0.0003741  -0.0000688  -0.0000344   0.0000089   0.0000543
           19          20          21          22          23          24
    1   0.0000457  -0.0000775  -0.0000311  -0.0000214  -0.0000102  -0.0002300
    2  -0.0000186  -0.0000128   0.0000178  -0.0000178   0.0000067  -0.0000278
    3  -0.0000741  -0.0000196  -0.0000355   0.0000242  -0.0000590   0.0000225
           25          26          27
    1  -0.0000470   0.0000530   0.0000348
    2  -0.0000513   0.0001070   0.0000831
    3  -0.0000248  -0.0001033   0.0000965
 Max gradient component =       1.181E-03
 RMS gradient           =       2.753E-04
 Gradient time:  CPU 12.74 s  wall 0.54 s
 Geometry Optimization Parameters
   NAtoms,    NIC,     NZ,  NCons,   NDum,   NFix, NCnnct, MaxDiis
       27     173       0       2       0       0       0       0

 Cartesian Hessian Update
 Hessian Updated using BFGS Update


** CONSTRAINED OPTIMIZATION IN DELOCALIZED INTERNAL COORDINATES **
   Searching for a Minimum

   Optimization Cycle:   5

                       Coordinates (Angstroms)
     ATOM                X               Y               Z
      1  C         0.3763171839   -0.9289528359   -0.0482768621
      2  C        -0.8662728224   -0.2404124218   -0.0782838029
      3  C         1.6728806767   -0.1286101717   -0.2318038079
      4  C        -0.8902961042    1.3002258976   -0.2156063577
      5  O         2.7764600452   -0.8637472913    0.3098146240
      6  O         1.7799146992    0.9978124667   -0.7747140087
      7  O        -0.2352758989    1.8696066043    0.9254626555
      8  O        -1.4194534231    1.9699918960   -1.1310615839
      9  C        -0.1779575808    3.3434253674    0.7860584580
     10  C         4.0312796591   -0.1032320406    0.1092082555
     11  C         0.4022867209   -2.3367947615    0.0923740536
     12  C        -0.8036361880   -3.0533923094    0.1920536709
     13  C        -2.0359499124   -2.3709898662    0.1476992558
     14  C        -2.0872415895   -0.9637512583    0.0137373480
     15  H         0.3698673909    3.6392270871   -0.1316961082
     16  H         4.2606180304    0.0273884402   -0.9683777890
     17  H        -2.9750349130   -2.9360836450    0.2234880849
     18  H        -1.1924443375    3.7912890862    0.7534483579
     19  H         0.3615609052    3.7130560762    1.6772006240
     20  H         4.8287380978   -0.7004963629    0.5879867911
     21  H         3.9800841828    0.8989382142    0.5814816386
     22  H        -0.7869159334   -4.1465430932    0.2989979079
     23  H         1.3703314922   -2.8549594575    0.1154378699
     24  C        -3.4408588662   -0.2321352745   -0.0322019626
     25  H        -3.5779752450    0.2620006316   -1.0086657007
     26  H        -3.4917313027    0.5463822800    0.7467287458
     27  H        -4.2671986114   -0.9405623455    0.1243438081
   Point Group: c1    Number of degrees of freedom:    75


   Energy is   -717.954251536

              Constraints and their Current Values
                                        Value     Constraint
   Dihedral:        2   1   3   5      158.600      158.600
   Dihedral:        1   2   4   7      -62.300      -62.300
 Hessian Updated using BFGS Update

 64 Hessian modes will be used to form the next step
  Hessian Eigenvalues:
     0.025130    0.044688    0.045000    0.045000    0.045001    0.045002
     0.045006    0.045009    0.045040    0.045122    0.045369    0.046762
     0.093238    0.094211    0.113898    0.114975    0.116934    0.117120
     0.157993    0.159900    0.159988    0.159996    0.161081    0.162833
     0.164934    0.221285    0.230852    0.234432    0.247486    0.249018
     0.249535    0.249868    0.249982    0.249998    0.250304    0.254235
     0.302355    0.319689    0.337763    0.342519    0.342647    0.342689
     0.342878    0.343415    0.343762    0.343838    0.344387    0.348386
     0.348920    0.350474    0.350838    0.367848    0.410055    0.410890
     0.414159    0.441594    0.450020    0.457608    0.464134    0.469518
     0.507921    0.535405    0.959447    0.984875

 Minimum Search - Taking Simple RFO Step
 Searching for Lamda that Minimizes Along All modes
 Value Taken    Lamda =  -0.00001663
 Step Taken.  Stepsize is  0.024114

                             Maximum     Tolerance    Cnvgd?
         Gradient           0.000442      0.000300      NO
         Displacement       0.008405      0.001200      NO
         Energy change     -0.000018      0.000001      NO


 New Cartesian Coordinates Obtained by Inverse Iteration

 Displacement from previous Coordinates is:  0.051980
 Adding empirical dispersion correction 
 ----------------------------------------------------------------
 Doing -D3(op) with
 s6 =   1.00000
 s8 =   0.78311
 a1 =   0.30000
 a2 =   4.25000
 n  =  10.00000
 -D3 energy without 3body term =     -0.0279631995 hartrees
 ----------------------------------------------------------------
             Standard Nuclear Orientation (Angstroms)
    I     Atom           X                Y                Z
 ----------------------------------------------------------------
    1      C       0.3759294819    -0.9261631630    -0.0433367698
    2      C      -0.8674443400    -0.2388626701    -0.0723479659
    3      C       1.6722303554    -0.1265051279    -0.2286425114
    4      C      -0.8925726691     1.3005872344    -0.2116527782
    5      O       2.7756643858    -0.8624921215     0.3128027718
    6      O       1.7804935811     0.9985676701    -0.7730337239
    7      O      -0.2358552040     1.8708885472     0.9282468228
    8      O      -1.4242535551     1.9693315567    -1.1258889517
    9      C      -0.1761061511     3.3434519635     0.7839973160
   10      C       4.0306016445    -0.1046937842     0.1070240103
   11      C       0.4028093043    -2.3343355400     0.0945960233
   12      C      -0.8024949765    -3.0522234208     0.1913703901
   13      C      -2.0354751848    -2.3709509983     0.1461248908
   14      C      -2.0877993301    -0.9636851233     0.0146216591
   15      H       0.3783581335     3.6351654979    -0.1310836703
   16      H       4.2577381899     0.0226774458    -0.9713940068
   17      H      -2.9741538575    -2.9371421847     0.2188784690
   18      H      -1.1896334631     3.7928197177     0.7439995794
   19      H       0.3586554643     3.7153921666     1.6771320808
   20      H       4.8286073877    -0.7020020689     0.5850637425
   21      H       3.9828829348     0.8985126473     0.5774327207
   22      H      -0.7847313970    -4.1455631477     0.2957816042
   23      H       1.3711469546    -2.8519625889     0.1179921058
   24      C      -3.4417585012    -0.2336763144    -0.0327938152
   25      H      -3.5755327735     0.2660809392    -1.0068586563
   26      H      -3.4974447710     0.5397712444     0.7509015759
   27      H      -4.2677652879    -0.9443074649     0.1159012530
 ----------------------------------------------------------------
 Molecular Point Group                 C1    NOp =  1
 Largest Abelian Subgroup              C1    NOp =  1
 Nuclear Repulsion Energy =   989.9732064485 hartrees
 There are       55 alpha and       55 beta electrons
 Applying Cartesian multipole field
    Component          Value
    ---------          -----
     (2,0,0)        1.00000E-11
     (0,2,0)        2.00000E-11
     (0,0,2)       -3.00000E-11
 Nucleus-field energy     =     0.0000000389 hartrees
 Requested basis set is STO-3G
 There are 42 shells and 87 basis functions
 A cutoff of  1.0D-12 yielded    764 shell pairs
 There are      3692 function pairs
 Smallest overlap matrix eigenvalue = 1.82E-01
 Guess MOs from SCF MO coefficient file
 Reading MOs from coefficient file
 Reading MOs from coefficient file
[...]
 IR Intens:       10.569                  3.371                 10.013
 Raman Active:       YES                    YES                    YES
               X      Y      Z        X      Y      Z        X      Y      Z
 C         -0.005 -0.008  0.001    0.073  0.005 -0.000    0.225  0.010  0.000
 C          0.003  0.002 -0.000   -0.033  0.057 -0.007   -0.310 -0.054 -0.001
 C          0.012 -0.001  0.001   -0.025 -0.002  0.000   -0.035 -0.023  0.007
 C         -0.001 -0.001 -0.000    0.004 -0.018 -0.007    0.030  0.012 -0.019
 O         -0.002 -0.017  0.005    0.002 -0.000  0.000   -0.005  0.002 -0.001
 O         -0.004  0.006 -0.002    0.003 -0.001  0.000    0.005  0.012 -0.004
 O         -0.000  0.001 -0.001   -0.001  0.003  0.002   -0.003  0.003  0.003
 O          0.000  0.000  0.001    0.001 -0.001  0.003   -0.003 -0.008  0.013
 C         -0.001  0.002 -0.005   -0.002  0.006 -0.001   -0.001  0.000  0.001
 C         -0.007 -0.054  0.015    0.006  0.004 -0.001    0.003  0.001  0.000
 C         -0.003  0.003 -0.000   -0.030 -0.063  0.007   -0.237 -0.174  0.019
 C          0.008  0.003 -0.000   -0.026  0.038 -0.005    0.402  0.071 -0.004
 C         -0.000 -0.006  0.001    0.042 -0.011  0.001   -0.211  0.024 -0.006
 C         -0.003  0.002  0.000   -0.030 -0.067  0.012    0.228  0.125 -0.010
 H          0.049 -0.023  0.044    0.029 -0.029  0.019   -0.004 -0.015 -0.010
 H          0.093  0.625  0.255   -0.027 -0.030 -0.016   -0.002 -0.010 -0.004
 H         -0.017  0.016 -0.003   -0.066  0.148 -0.020   -0.071 -0.200  0.022
 H         -0.032 -0.032  0.049   -0.022 -0.044  0.010    0.000  0.010  0.001
 H          0.006  0.028 -0.014    0.018 -0.011  0.002   -0.009 -0.006  0.004
 H         -0.136 -0.166  0.031   -0.014 -0.018  0.002    0.009  0.005 -0.002
 H          0.118  0.418 -0.530   -0.031 -0.018  0.026   -0.003 -0.006  0.008
 H         -0.028  0.000 -0.000    0.086  0.056 -0.005   -0.529 -0.003 -0.005
 H         -0.004  0.003  0.000    0.100  0.221 -0.025   -0.023  0.336 -0.039
 C         -0.002 -0.002  0.002   -0.032 -0.018  0.013   -0.028 -0.011  0.001
 H         -0.004  0.022  0.011    0.029  0.488  0.191    0.017 -0.064 -0.023
 H          0.020  0.025 -0.026    0.117  0.386 -0.424    0.062 -0.041  0.050
 H          0.018 -0.024 -0.015    0.334 -0.371 -0.002   -0.130  0.085 -0.038
 TransDip  -0.079  0.066 -0.014   -0.007  0.048 -0.034   -0.072 -0.071 -0.002

 Mode:                61                     62                     63
 Frequency:      1629.84                1766.49                1787.22
 Force Cnst:      9.0227                21.5754                22.3028
 Red. Mass:       5.7649                11.7351                11.8510
 IR Active:          YES                    YES                    YES
 IR Intens:        9.920                250.315                271.914
 Raman Active:       YES                    YES                    YES
               X      Y      Z        X      Y      Z        X      Y      Z
 C          0.090 -0.259  0.034   -0.008 -0.115  0.019    0.011  0.004 -0.001
 C         -0.079  0.152 -0.018   -0.026  0.040 -0.007   -0.030  0.078 -0.029
 C         -0.018 -0.034  0.012    0.035  0.759 -0.195   -0.010 -0.054  0.014
 C          0.001 -0.020 -0.032    0.029 -0.012  0.047    0.232 -0.383  0.645
 O         -0.003 -0.004  0.001    0.012 -0.051  0.014    0.001  0.004 -0.001
 O          0.008  0.044 -0.012   -0.005 -0.477  0.126    0.001  0.035 -0.012
 O          0.000  0.004  0.004   -0.006 -0.004 -0.006   -0.015  0.007 -0.049
 O          0.005 -0.008  0.020   -0.013  0.010 -0.028   -0.150  0.226 -0.430
 C         -0.001  0.004  0.001    0.001 -0.002 -0.002    0.004 -0.029  0.009
 C         -0.001  0.001 -0.000    0.024  0.023 -0.006   -0.002 -0.002  0.001
 C          0.062  0.281 -0.034   -0.026  0.015 -0.001    0.001 -0.005  0.003
 C          0.057 -0.161  0.021    0.038 -0.003  0.000    0.007 -0.002 -0.000
 C         -0.175  0.308 -0.042   -0.021  0.017 -0.002   -0.013  0.007  0.001
 C          0.058 -0.272  0.036    0.017 -0.015  0.003    0.017 -0.014  0.007
 H          0.001 -0.014 -0.007    0.017 -0.021  0.009   -0.011  0.111  0.090
 H          0.013  0.001  0.001   -0.144  0.028 -0.040    0.011 -0.002  0.004
 H          0.334 -0.402  0.062    0.010 -0.028  0.005    0.017 -0.030  0.003
 H         -0.004 -0.011 -0.008   -0.003 -0.001  0.024    0.042  0.107  0.092
 H          0.002 -0.014  0.008   -0.009  0.013 -0.006   -0.024  0.216 -0.068
 H          0.004  0.005 -0.002   -0.173 -0.170  0.040    0.012  0.012 -0.004
 H          0.009 -0.001 -0.000   -0.145  0.040  0.010    0.010 -0.002 -0.002
 H         -0.025 -0.193  0.026   -0.041 -0.011  0.000   -0.003 -0.004 -0.003
 H         -0.228 -0.338  0.037   -0.052 -0.011  0.002   -0.001 -0.009  0.005
 C         -0.017  0.022 -0.003   -0.003  0.002 -0.000    0.003  0.007 -0.001
 H         -0.047  0.141  0.050    0.002  0.006 -0.000   -0.072 -0.054 -0.005
 H         -0.086  0.102 -0.109    0.008  0.009 -0.003    0.012 -0.020  0.026
 H          0.126 -0.112  0.036    0.012 -0.013 -0.001   -0.029  0.021 -0.047
 TransDip   0.056 -0.082 -0.016   -0.000  0.499 -0.087    0.157 -0.175  0.473

 Mode:                64                     65                     66
 Frequency:      3034.95                3050.04                3050.51
 Force Cnst:      5.6247                 5.6432                 5.6431
 Red. Mass:       1.0364                 1.0296                 1.0293
 IR Active:          YES                    YES                    YES
 IR Intens:       18.064                 33.883                 39.647
 Raman Active:       YES                    YES                    YES
               X      Y      Z        X      Y      Z        X      Y      Z
 C         -0.000  0.000 -0.000    0.000 -0.000  0.000    0.000 -0.000  0.000
 C          0.001  0.000 -0.000   -0.000  0.000 -0.000   -0.000  0.000  0.000
 C          0.000  0.000 -0.000   -0.002  0.002 -0.001   -0.000  0.000 -0.000
 C         -0.000  0.000 -0.000    0.000  0.000  0.001   -0.001 -0.001 -0.003
 O         -0.000 -0.000 -0.000    0.003  0.001 -0.000    0.001  0.000 -0.000
 O         -0.000 -0.000  0.000    0.000 -0.001  0.000   -0.000 -0.000  0.000
 O          0.000 -0.000 -0.000   -0.000 -0.001 -0.000    0.000  0.003  0.001
 O          0.000 -0.000  0.000   -0.000  0.000 -0.000    0.000 -0.000  0.001
 C          0.000 -0.000  0.000    0.001 -0.010  0.003   -0.005  0.040 -0.014
 C         -0.000 -0.000  0.000    0.029  0.031 -0.007    0.007  0.008 -0.002
 C         -0.000 -0.000 -0.000    0.000 -0.000  0.000    0.000 -0.000 -0.000
 C         -0.000  0.000 -0.000    0.000  0.000 -0.000   -0.000  0.000 -0.000
 C          0.001  0.000  0.000    0.000  0.000  0.000    0.000  0.000 -0.000
 C          0.000 -0.000  0.000    0.000  0.000  0.000   -0.000  0.000 -0.000
 H          0.001  0.000 -0.001    0.110  0.043 -0.091   -0.438 -0.173  0.362
 H          0.000  0.001 -0.004   -0.047 -0.203  0.579   -0.012 -0.051  0.145
 H         -0.011 -0.007  0.001   -0.000 -0.000  0.000   -0.001 -0.000  0.000
 H         -0.001  0.000 -0.000   -0.141  0.047 -0.054    0.562 -0.186  0.214
 H          0.000  0.000  0.001    0.018  0.036  0.102   -0.070 -0.142 -0.405
 H          0.002 -0.002  0.001   -0.311  0.285 -0.089   -0.078  0.071 -0.022
 H         -0.000  0.003  0.003   -0.008 -0.465 -0.399   -0.002 -0.117 -0.100
 H         -0.000  0.000  0.000    0.000 -0.001  0.000    0.000 -0.000  0.000
 H          0.001 -0.000  0.000   -0.002  0.000 -0.000   -0.000 -0.000 -0.000
 C         -0.041  0.030  0.001   -0.000  0.000 -0.000   -0.000  0.000  0.000
 H          0.077 -0.195  0.520    0.001 -0.001  0.003    0.000 -0.000  0.001
 H          0.070 -0.502 -0.435    0.000 -0.002 -0.002    0.000 -0.003 -0.003
 H          0.334  0.342 -0.093    0.002  0.002 -0.001   -0.000 -0.000  0.000
 TransDip  -0.130  0.035  0.019    0.185  0.014 -0.015    0.022  0.199  0.025

 Mode:                67                     68                     69
 Frequency:      3090.29                3111.63                3123.05
 Force Cnst:      6.1892                 6.2885                 6.3615
 Red. Mass:       1.1000                 1.1024                 1.1070
 IR Active:          YES                    YES                    YES
 IR Intens:        8.583                 15.243                 17.416
 Raman Active:       YES                    YES                    YES
               X      Y      Z        X      Y      Z        X      Y      Z
 C          0.000 -0.000 -0.000    0.000 -0.000  0.000    0.000 -0.000 -0.000
 C          0.000  0.000  0.000   -0.000 -0.000  0.000    0.000  0.000  0.000
 C         -0.000 -0.000  0.000    0.000 -0.000  0.000   -0.000  0.000  0.000
 C          0.000  0.000 -0.000    0.000 -0.000  0.000   -0.000 -0.000 -0.000
 O          0.000  0.000  0.000   -0.000  0.000 -0.000   -0.000  0.000  0.000
 O         -0.000  0.000 -0.000   -0.000  0.000 -0.000   -0.000  0.000  0.000
 O         -0.000  0.000  0.000   -0.000 -0.000 -0.000    0.000  0.000  0.000
 O          0.000  0.000  0.000   -0.000  0.000 -0.000   -0.000  0.000  0.000
 C         -0.000  0.000 -0.000   -0.000  0.000 -0.000    0.001  0.000 -0.000
 C         -0.000  0.000  0.000   -0.000  0.000 -0.000    0.004 -0.025 -0.091
 C          0.000  0.000 -0.000    0.000  0.000 -0.000   -0.000  0.000  0.000
 C         -0.000 -0.000 -0.000   -0.000 -0.000  0.000    0.000 -0.000  0.000
 C          0.001  0.000 -0.000    0.004  0.003 -0.000   -0.000  0.000 -0.000
 C         -0.000 -0.000 -0.001    0.001 -0.001  0.000   -0.000 -0.000 -0.000
 H         -0.001 -0.000  0.001    0.001  0.000 -0.001   -0.005 -0.002  0.004
 H          0.000  0.000 -0.000   -0.000 -0.000  0.000   -0.048 -0.248  0.653
 H         -0.006 -0.004  0.000   -0.043 -0.027  0.003    0.000  0.000 -0.000
 H          0.002 -0.001  0.001    0.004 -0.001  0.002   -0.007  0.002 -0.003
 H         -0.000 -0.000 -0.001    0.000  0.000  0.001   -0.000 -0.001 -0.002
 H          0.000 -0.000  0.000    0.000 -0.000  0.000   -0.004 -0.001 -0.019
 H          0.000 -0.000 -0.000   -0.000 -0.000 -0.000    0.004  0.548  0.447
 H         -0.000  0.001 -0.000   -0.001  0.008 -0.001   -0.000  0.000 -0.000
 H          0.000 -0.000 -0.000   -0.000  0.000 -0.000    0.000 -0.000 -0.000
 C         -0.011 -0.030 -0.086   -0.042 -0.076  0.032   -0.000 -0.000 -0.000
 H          0.103 -0.268  0.640   -0.074  0.142 -0.403    0.000 -0.000  0.000
 H         -0.081  0.529  0.435   -0.037  0.179  0.176   -0.000  0.000  0.000
 H          0.104  0.100 -0.047    0.599  0.592 -0.163    0.000  0.000 -0.000
 TransDip  -0.014 -0.054 -0.075   -0.086 -0.088  0.023    0.006 -0.036 -0.129

 Mode:                70                     71                     72
 Frequency:      3126.22                3156.30                3157.19
 Force Cnst:      6.3754                 6.4931                 6.4978
 Red. Mass:       1.1072                 1.1062                 1.1064
 IR Active:          YES                    YES                    YES
 IR Intens:       13.567                 14.211                 13.904
 Raman Active:       YES                    YES                    YES
               X      Y      Z        X      Y      Z        X      Y      Z
 C          0.000  0.000 -0.000    0.000 -0.000  0.000    0.000 -0.000 -0.000
 C         -0.000 -0.000  0.000    0.000  0.000  0.000    0.000  0.000  0.000
 C         -0.000 -0.000  0.000    0.001  0.001 -0.000   -0.000  0.000 -0.000
 C          0.000  0.000 -0.000    0.000 -0.000  0.000   -0.000  0.001 -0.001
 O         -0.000  0.000 -0.000    0.000 -0.000  0.000    0.000 -0.000  0.000
 O          0.000  0.000 -0.000   -0.000 -0.000  0.000    0.000 -0.000  0.000
 O          0.000  0.000  0.000   -0.000  0.000 -0.000    0.000  0.000  0.000
 O          0.000 -0.000 -0.000   -0.000  0.000 -0.000    0.000 -0.000  0.000
 C         -0.094 -0.001  0.012    0.000  0.000  0.001   -0.011 -0.010 -0.094
 C         -0.000 -0.000 -0.001   -0.052  0.076 -0.023   -0.001  0.001 -0.000
 C         -0.000 -0.000 -0.000   -0.000  0.000 -0.000    0.000 -0.000 -0.000
 C          0.000  0.000 -0.000    0.000 -0.000  0.000    0.000  0.000 -0.000
 C         -0.000 -0.000 -0.000    0.000  0.000 -0.000   -0.000 -0.000  0.000
 C          0.000 -0.000 -0.000    0.000 -0.000  0.000   -0.000 -0.000 -0.000
 H          0.507  0.207 -0.444    0.003  0.001 -0.002   -0.262 -0.102  0.199
 H         -0.001 -0.003  0.007   -0.031 -0.090  0.295   -0.000 -0.001  0.004
 H          0.000  0.000 -0.000   -0.002 -0.001  0.000    0.003  0.002 -0.000
 H          0.619 -0.208  0.252   -0.005  0.001 -0.001    0.250 -0.082  0.078
 H         -0.009  0.019  0.056   -0.002 -0.004 -0.011    0.141  0.291  0.832
 H          0.001 -0.001  0.000    0.647 -0.593  0.186    0.009 -0.008  0.002
 H          0.000  0.005  0.004   -0.011 -0.218 -0.205   -0.000 -0.002 -0.002
 H          0.000 -0.000  0.000   -0.000  0.004 -0.001    0.000 -0.001  0.000
 H          0.000 -0.000 -0.000    0.004 -0.002  0.000   -0.000  0.000 -0.000
 C          0.000  0.000 -0.000    0.000  0.000 -0.000    0.000  0.000 -0.000
 H          0.000 -0.000  0.001    0.000 -0.000  0.000    0.000 -0.000  0.001
 H          0.000 -0.001 -0.001    0.000 -0.000 -0.000    0.000 -0.000 -0.000
 H         -0.002 -0.002  0.001   -0.001 -0.000  0.000   -0.001 -0.001  0.000
 TransDip  -0.117  0.006  0.012   -0.089  0.078 -0.023   -0.019 -0.038 -0.112

 Mode:                73                     74                     75
 Frequency:      3165.12                3184.59                3220.80
 Force Cnst:      6.4218                 6.5338                 6.6793
 Red. Mass:       1.0880                 1.0935                 1.0928
 IR Active:          YES                    YES                    YES
 IR Intens:        7.090                 15.408                  2.060
 Raman Active:       YES                    YES                    YES
               X      Y      Z        X      Y      Z        X      Y      Z
 C          0.000 -0.000 -0.000   -0.000  0.000  0.000   -0.000 -0.003  0.000
 C          0.000  0.000  0.000    0.000  0.000 -0.000    0.001 -0.000  0.000
 C         -0.000 -0.000  0.000    0.000  0.000 -0.000   -0.001  0.001 -0.000
 C         -0.000  0.000 -0.000   -0.000  0.000 -0.000   -0.000 -0.000  0.000
 O          0.000  0.000 -0.000   -0.000 -0.000  0.000   -0.000 -0.001  0.000
 O         -0.000  0.000  0.000   -0.000 -0.000  0.000    0.000  0.000 -0.000
 O          0.000 -0.000 -0.000    0.000 -0.000 -0.000   -0.000  0.000  0.000
 O          0.000 -0.000  0.000    0.000 -0.000  0.000   -0.000  0.000 -0.000
 C          0.000  0.000  0.000    0.000  0.000  0.000    0.000 -0.000 -0.000
 C         -0.000  0.000 -0.000    0.000 -0.000  0.000    0.000 -0.000  0.000
 C          0.004 -0.003  0.000   -0.012  0.009 -0.001   -0.078  0.035 -0.005
 C         -0.001  0.039 -0.005    0.008 -0.075  0.009    0.001  0.019 -0.002
 C         -0.061 -0.044  0.005   -0.036 -0.023  0.002    0.003  0.001 -0.000
 C         -0.001  0.002 -0.000   -0.001  0.002 -0.000    0.000 -0.000  0.000
 H          0.001  0.000 -0.000   -0.000 -0.000  0.000   -0.000 -0.000  0.000
 H         -0.000 -0.000  0.001   -0.000 -0.000 -0.000   -0.000  0.000 -0.000
 H          0.715  0.503 -0.052    0.386  0.266 -0.027   -0.025 -0.016  0.002
 H         -0.001  0.000 -0.000    0.000 -0.000  0.000   -0.000  0.000 -0.000
 H         -0.001 -0.001 -0.003   -0.000 -0.000 -0.001    0.000  0.000  0.000
 H          0.003 -0.002  0.001   -0.003  0.003 -0.001   -0.003  0.003 -0.001
 H         -0.000 -0.001 -0.001   -0.000 -0.000  0.000   -0.000 -0.000  0.000
 H          0.037 -0.463  0.058   -0.075  0.848 -0.106    0.013 -0.191  0.024
 H         -0.060  0.028 -0.004    0.169 -0.080  0.011    0.889 -0.400  0.053
 C         -0.003 -0.003  0.001   -0.001 -0.001  0.000    0.000 -0.000  0.000
 H         -0.001  0.003 -0.009    0.000  0.001 -0.003   -0.000  0.000 -0.001
 H         -0.000  0.007  0.006    0.001  0.001  0.001   -0.000  0.001  0.000
 H          0.036  0.031 -0.009    0.014  0.012 -0.003   -0.000 -0.000  0.000
 TransDip  -0.085 -0.010 -0.001   -0.040 -0.118  0.015   -0.004  0.046 -0.004

 STANDARD THERMODYNAMIC QUANTITIES AT   298.15 K  AND     1.00 ATM

   This Molecule has  0 Imaginary Frequencies
   Zero point vibrational energy:      133.293 kcal/mol

   Atom    1 Element C  Has Mass   12.00000
   Atom    2 Element C  Has Mass   12.00000
   Atom    3 Element C  Has Mass   12.00000
   Atom    4 Element C  Has Mass   12.00000
   Atom    5 Element O  Has Mass   15.99491
   Atom    6 Element O  Has Mass   15.99491
   Atom    7 Element O  Has Mass   15.99491
   Atom    8 Element O  Has Mass   15.99491
   Atom    9 Element C  Has Mass   12.00000
   Atom   10 Element C  Has Mass   12.00000
   Atom   11 Element C  Has Mass   12.00000
   Atom   12 Element C  Has Mass   12.00000
   Atom   13 Element C  Has Mass   12.00000
   Atom   14 Element C  Has Mass   12.00000
   Atom   15 Element H  Has Mass    1.00783
   Atom   16 Element H  Has Mass    1.00783
   Atom   17 Element H  Has Mass    1.00783
   Atom   18 Element H  Has Mass    1.00783
   Atom   19 Element H  Has Mass    1.00783
   Atom   20 Element H  Has Mass    1.00783
   Atom   21 Element H  Has Mass    1.00783
   Atom   22 Element H  Has Mass    1.00783
   Atom   23 Element H  Has Mass    1.00783
   Atom   24 Element C  Has Mass   12.00000
   Atom   25 Element H  Has Mass    1.00783
   Atom   26 Element H  Has Mass    1.00783
   Atom   27 Element H  Has Mass    1.00783
   Molecular Mass:   208.073600 amu
   Principal axes and moments of inertia in amu*Bohr^2:
                             1           2           3
    Eigenvalues --     2454.73964  3111.91521  5139.49357
          X               0.99986     0.01655    -0.00187
          Y              -0.01653     0.99982     0.00976
          Z               0.00203    -0.00972     0.99995
   Rotational Symmetry Number is   1
   The Molecule is an Asymmetric Top
   Translational Enthalpy:        0.889 kcal/mol
   Rotational Enthalpy:           0.889 kcal/mol
   Vibrational Enthalpy:        141.065 kcal/mol
   gas constant (RT):             0.592 kcal/mol
   Translational Entropy:        41.902  cal/mol.K
   Rotational Entropy:           32.040  cal/mol.K
   Vibrational Entropy:          51.965  cal/mol.K

   Total Enthalpy:              143.435 kcal/mol
   Total Entropy:               125.907  cal/mol.K
Archival summary:
1\1\nid01039\FREQ\ProcedureUnspecified\BasisUnspecified\41112\junteng\WedOct420:07:502017WedOct420:07:502017\0\\#,FREQ,ProcedureUnspecified,BasisUnspecified,\\0,1\O\C,1,1.34335\O,2,1.20542,1,124.656\C,1,1.44028,2,115.623,3,-9.73883,0\H,4,1.08767,1,105.424,2,179.572,0\H,4,1.09086,1,110.691,2,59.7153,0\H,4,1.09088,1,109.474,2,-61.2505,0\C,2,1.50487,1,111.091,3,-175.616,0\C,8,1.40491,2,117.799,1,103.44,0\C,9,1.39755,8,118.457,2,179.701,0\H,10,1.08502,9,118.922,8,179.699,0\C,10,1.39209,9,121.406,8,-0.43995,0\H,12,1.084,10,120.053,9,-179.834,0\C,12,1.38824,10,119.872,9,-0.0495601,0\H,14,1.08091,12,120.654,10,-179.373,0\C,14,1.40026,12,120.081,10,0.285425,0\C,16,1.49138,14,120.507,12,-177.841,0\O,17,1.20992,16,124.888,14,170.552,0\O,17,1.34995,16,112.207,14,-8.7115,0\C,19,1.43819,17,115.969,16,178.38,0\H,20,1.08776,19,105.337,17,-179.281,0\H,20,1.09093,19,110.444,17,61.2073,0\H,20,1.091,19,110.429,17,-59.7333,0\C,9,1.51001,8,121.35,2,0.0733613,0\H,24,1.09116,9,110.727,8,-172.716,0\H,24,1.09295,9,110.868,8,66.9145,0\H,24,1.09369,9,111.57,8,-52.4241,0\\\@

 Total job time:  5839.94s(wall), 30861.21s(cpu) 
 Wed Oct  4 20:07:51 2017

        *************************************************************
        *                                                           *
        *  Thank you very much for using Q-Chem.  Have a nice day.  *
        *                                                           *
        *************************************************************


