nid01147 10.128.4
Q-Chem Developer Version! Running on 10.128.4.*
                  Welcome to Q-Chem
     A Quantum Leap Into The Future Of Chemistry


 Q-Chem 5.0, Q-Chem, Inc., Pleasanton, CA (2017)

 Yihan Shao,  Zhengting Gan,  E. Epifanovsky,  A. T. B. Gilbert,  M. Wormit,  
 J. Kussmann,  A. W. Lange,  A. Behn,  Jia Deng,  Xintian Feng,  D. Ghosh,  
 M. Goldey,  P. R. Horn,  L. D. Jacobson,  I. Kaliman,  T. Kus,  A. Landau,  
 Jie Liu,  E. I. Proynov,  R. M. Richard,  R. P. Steele,  E. J. Sundstrom,  
 H. L. Woodcock III,  P. M. Zimmerman,  D. Zuev,  B. Albrecht,  E. Alguire,  
 S. A. Baeppler,  Z. Benda,  Y. A. Bernard,  E. J. Berquist,  K. B. Bravaya,  
 D. Casanova,  Chun-Min Chang,  Yunqing Chen,  A. Chien,  K. D. Closser,  
 M. P. Coons,  S. Dasgupta,  M. Diedenhofen,  Hainam Do,  R. G. Edgar,  
 Po-Tung Fang,  S. Fatehi,  Qingguo Feng,  Qinghui Ge,  A. Ghysels,  
 J. Gomes,  J. Gonthier,  A. Gunina,  M. W. D. Hanson-Heine,  
 P. H. P. Harbach,  A. W. Hauser,  J. E. Herr,  E. G. Hohenstein,  
 Z. C. Holden,  Kerwin Hui,  T.-C. Jagau,  Hyunjun Ji,  B. Kaduk,  
 K. Khistyaev,  Jaehoon Kim,  P. Klunzinger,  K. Koh,  D. Kosenkov,  
 T. Kowalczyk,  C. M. Krauter,  A. Kunitsa,  Ka Un Lao,  A. Laurent,  
 K. V. Lawler,  Joonho Lee,  D. Lefrancois,  S. Lehtola,  D. S. Levine,  
 Yi-Pei Li,  You-Sheng Lin,  Fenglai Liu,  E. Livshits,  A. Luenser,  
 P. Manohar,  E. Mansoor,  S. F. Manzer,  Shan-Ping Mao,  Yuezhi Mao,  
 N. Mardirossian,  A. V. Marenich,  L. A. Martinez-Martinez,  S. A. Maurer,  
 N. J. Mayhall,  S. C. McKenzie,  J.-M. Mewes,  A. F. Morrison,  K. Nanda,  
 T. S. Nguyen-Beck,  R. Olivares-Amaya,  J. A. Parkhill,  T. M. Perrine,  
 F. Plasser,  S. Prager,  A. Prociuk,  D. R. Rehn,  F. Rob,  M. Schneider,  
 N. Sergueev,  S. M. Sharada,  S. Sharma,  D. W. Small,  T. Stauch,  
 T. Stein,  Yu-Chuan Su,  A. J. W. Thom,  T. Tsuchimochi,  L. Vogt,  
 O. Vydrov,  M. A. Watson,  J. Wenzel,  M. de Wergifosse,  T. A. Wesolowski,  
 A. White,  J. Witte,  A. Yamada,  Jun Yang,  K. Yao,  S. Yeganeh,  
 S. R. Yost,  Zhi-Qiang You,  A. Zech,  Igor Ying Zhang,  Xing Zhang,  
 Yan Zhao,  Ying Zhu,  B. R. Brooks,  G. K. L. Chan,  C. J. Cramer,  
 M. S. Gordon,  W. J. Hehre,  A. Klamt,  M. W. Schmidt,  C. D. Sherrill,  
 D. G. Truhlar,  A. Aspuru-Guzik,  R. Baer,  A. T. Bell,  N. A. Besley,  
 Jeng-Da Chai,  A. Dreuw,  B. D. Dunietz,  T. R. Furlani,  Chao-Ping Hsu,  
 Yousung Jung,  Jing Kong,  D. S. Lambrecht,  WanZhen Liang,  C. Ochsenfeld,  
 V. A. Rassolov,  L. V. Slipchenko,  J. E. Subotnik,  T. Van Voorhis,  
 J. M. Herbert,  A. I. Krylov,  P. M. W. Gill,  M. Head-Gordon

 Contributors to earlier versions of Q-Chem not listed above: 
 R. D. Adamson,  B. Austin,  J. Baker,  G. J. O. Beran,  K. Brandhorst,  
 S. T. Brown,  E. F. C. Byrd,  A. K. Chakraborty,  C.-L. Cheng,  
 Siu Hung Chien,  D. M. Chipman,  D. L. Crittenden,  H. Dachsel,  
 R. A. DiStasio Jr.,  R. J. Doerksen,  A. D. Dutoi,  L. Fusti-Molnar,  
 W. A. Goddard III,  A. Golubeva-Zadorozhnaya,  S. R. Gwaltney,  G. Hawkins,  
 A. Heyden,  S. Hirata,  G. Kedziora,  F. J. Keil,  C. Kelley,  Jihan Kim,  
 R. A. King,  R. Z. Khaliullin,  P. P. Korambath,  W. Kurlancheek,  
 A. M. Lee,  M. S. Lee,  S. V. Levchenko,  Ching Yeh Lin,  D. Liotard,  
 R. C. Lochan,  I. Lotan,  P. E. Maslen,  N. Nair,  D. P. O'Neill,  
 D. Neuhauser,  E. Neuscamman,  C. M. Oana,  R. Olson,  B. Peters,  
 R. Peverati,  P. A. Pieniazek,  Y. M. Rhee,  J. Ritchie,  M. A. Rohrdanz,  
 E. Rosta,  N. J. Russ,  H. F. Schaefer III,  N. E. Schultz,  N. Shenvi,  
 A. C. Simmonett,  A. Sodt,  D. Stuck,  K. S. Thanthiriwatte,  V. Vanovschi,  
 Tao Wang,  A. Warshel,  C. F. Williams,  Q. Wu,  X. Xu,  W. Zhang

 Please cite Q-Chem as follows:
 Y. Shao et al., Mol. Phys. 113, 184-215 (2015)
 DOI: 10.1080/00268976.2014.952696

 Q-Chem 5.0.0 for Intel X86 EM64T Linux

 Parts of Q-Chem use Armadillo 5.200.1 (Boston Tea Smuggler).
 http://arma.sourceforge.net/

 Q-Chem begins on Wed Oct  4 18:04:27 2017  

Host: nid01147
0

     Scratch files written to /global/cscratch1/sd/junteng/scratch/17/opt_11n01o+.save//

Checking the input file for inconsistencies... 	...done.

--------------------------------------------------------------
User input:
--------------------------------------------------------------
$molecule
0  1
C    0.469  -2.369   0.246
C   -0.100  -2.666   1.497
C    0.820  -0.970  -0.128
C   -0.250  -1.617   2.525
O    1.710  -0.973  -1.154
O    0.353   0.027   0.395
O    0.994  -1.244   2.918
O   -1.315  -1.271   3.005
C    0.990  -0.231   3.923
C    2.104   0.331  -1.586
C    0.633  -3.406  -0.690
C    0.237  -4.708  -0.384
C   -0.335  -4.993   0.854
C   -0.510  -3.982   1.810
H    0.475   0.666   3.564
H    1.246   0.871  -1.997
H   -0.645  -6.015   1.070
H    0.524  -0.605   4.840
H    2.028   0.031   4.144
H    2.851   0.214  -2.376
H    2.557   0.890  -0.761
H    0.365  -5.501  -1.118
H    1.053  -3.209  -1.674
C   -1.128  -4.326   3.139
H   -2.093  -3.824   3.253
H   -0.462  -4.036   3.958
H   -1.304  -5.403   3.231
$end


$opt
CONSTRAINT
tors    2    1    3    5    163.6
tors    1    2    4    7    -62.3
ENDCONSTRAINT
$end

$rem
JOBTYPE                   OPT
METHOD                    B3LYP
DFT_D                     D3_OP
BASIS                     STO-3G
GEOM_OPT_MAX_CYCLES       500
SYMMETRY                  False
THRESH                    12
SCF_CONVERGENCE           8
MAX_SUB_FILE_NUM          128
MEM_STATIC                400
MEM_TOTAL                 4000
$end

--------------------------------------------------------------
 Adding empirical dispersion correction 
 ----------------------------------------------------------------
 Doing -D3(op) with
 s6 =   1.00000
 s8 =   0.78311
 a1 =   0.30000
 a2 =   4.25000
 n  =  10.00000
 -D3 energy without 3body term =     -0.0281099174 hartrees
 ----------------------------------------------------------------
             Standard Nuclear Orientation (Angstroms)
    I     Atom           X                Y                Z
 ----------------------------------------------------------------
    1      C       0.4276448099    -0.8415736243    -0.0588692333
    2      C      -0.8060843738    -0.1694900882    -0.1153229467
    3      C       1.7108516923    -0.1157460900    -0.2752773829
    4      C      -0.8586766063     1.2982395328    -0.2659510208
    5      O       2.7440659004    -0.8386462100     0.2293698371
    6      O       1.8151246914     0.9559824043    -0.8463747267
    7      O      -0.3462610882     1.8472865541     0.8641338013
    8      O      -1.3960448180     1.8760408395    -1.1942408759
    9      C      -0.3453536797     3.2741738433     0.8499267384
   10      C       4.0219453492    -0.2207266872     0.0636122501
   11      C       0.4347697576    -2.2356355990     0.1279500539
   12      C      -0.7617862935    -2.9413211965     0.2541144457
   13      C      -1.9807647890    -2.2699771573     0.1874690522
   14      C      -2.0220088454    -0.8801964136     0.0044651935
   15      H       0.2409006342     3.6507951732     0.0054285126
   16      H       4.2682047510    -0.1351699828    -0.9988007380
   17      H      -2.9041102496    -2.8410186193     0.2801232975
   18      H      -1.3703322120     3.6561049330     0.8116037554
   19      H       0.1193667722     3.6218521173     1.7762548225
   20      H       4.7702630880    -0.8580083794     0.5428727289
   21      H       4.0413877155     0.7607414868     0.5480265539
   22      H      -0.7435362013    -4.0202578732     0.3939414170
   23      H       1.3701157423    -2.7903072772     0.1584823066
   24      C      -3.3565948521    -0.1864117253    -0.0591272334
   25      H      -3.5169381685     0.2431909134    -1.0520807034
   26      H      -3.4152264497     0.6020259728     0.6980684692
   27      H      -4.1788259208    -0.8832659350     0.1350357913
 ----------------------------------------------------------------
 Molecular Point Group                 C1    NOp =  1
 Largest Abelian Subgroup              C1    NOp =  1
 Nuclear Repulsion Energy =  1009.1896279882 hartrees
 There are       55 alpha and       55 beta electrons
 Requested basis set is STO-3G
 There are 42 shells and 87 basis functions

 Total QAlloc Memory Limit   4000 MB
 Mega-Array Size       392 MB
 MEM_STATIC part       400 MB
 A cutoff of  1.0D-12 yielded    765 shell pairs
 There are      3696 function pairs
 
 -------------------------------------------------------
 OpenMP Integral Computing Module                       
 Release: version 1.0, May 2013, Q-Chem Inc. Pittsburgh 
 -------------------------------------------------------
 Integral Job Info:
 Integral job number is                      11
 Integral operator is                         1
 short-range coefficients                     0
 long-range coefficients              100000000
 Omega coefficients                           0
 if combine SR and LR in K                    0
 Integral screening is                        0
 Integral computing path is                   2
 max size of driver memory is            800000
 size of driver memory is                 45569
 size of scratch memory is               945100
 max col of scratch BK array                289
 max len of scratch array in speh3           22
 max len of scratch index in speh4            8
 max int batch size is                      520
 min int batch size is                       52
 fixed nKL is                                52
 max L of basis functions is                  1
 order of int derivative is                   0
 number of shells is                         42
 number of basis is                          87
 number of cartesian basis is                87
 number of contracted shell pairs           765
 number of primitive shell pairs           4169
 maxK2 (contraction) of shell pair            9
 max number of K2 of shell pair               1
 max number of CS2 of shell pair            112
 max number of PS2 of shell pair            564
 mem total for path MDJ                   25842
 -------------------------------------------------------
 Smallest overlap matrix eigenvalue = 1.75E-01

 Scale SEOQF with 1.000000e-01/1.000000e-01/1.000000e-01

 Standard Electronic Orientation quadrupole field applied
 Nucleus-field energy     =     0.0000000367 hartrees
 Guess from superposition of atomic densities
 Warning:  Energy on first SCF cycle will be non-variational
 A restricted hybrid HF-DFT SCF calculation will be
 performed using Pulay DIIS extrapolation
 Exchange:     0.2000 Hartree-Fock + 0.0800 Slater + 0.7200 B88
 Correlation:  0.1900 VWN1RPA + 0.8100 LYP
 Using SG-1 standard quadrature grid
 Dispersion:   Grimme D3
 SCF converges when DIIS error is below 1.0E-08
 -------------------------------------------------------
 OpenMP Integral computing Module                
 Release: version 1.0, May 2013, Q-Chem Inc. Pittsburgh 
 -------------------------------------------------------
 -------------------------------------------------------
 OpenMP BLAS3 based DFT computing Module                
 Release: version 1.0, May 2013, Q-Chem Inc. Pittsburgh 
 -------------------------------------------------------
 ---------------------------------------
  Cycle       Energy         DIIS Error
 ---------------------------------------
    1    -717.8019365690      1.20E-01
    2    -717.7010378448      1.35E-02
    3    -716.6909548447      3.55E-02
    4    -717.8989360821      4.93E-03
    5    -717.9220252155      1.83E-03
    6    -717.9252541391      6.40E-04
    7    -717.9256752319      2.14E-04
    8    -717.9257222207      5.99E-05
    9    -717.9257259474      2.45E-05
   10    -717.9257267525      3.51E-06
   11    -717.9257267669      1.14E-06
   12    -717.9257267684      2.20E-07
   13    -717.9257267684      1.01E-07
   14    -717.9257267684      3.15E-08
   15    -717.9257267684      8.11E-09 Convergence criterion met
 ---------------------------------------
 SCF time:  CPU 57.18 s  wall 2.42 s
 SCF   energy in the final basis set = -717.9257267684
 Total energy in the final basis set = -717.9257267684
 
 --------------------------------------------------------------
 
                    Orbital Energies (a.u.)
 --------------------------------------------------------------
 
 Alpha MOs
 -- Occupied --
-18.948 -18.944 -18.869 -18.865 -10.116 -10.112 -10.076 -10.069
-10.024 -10.023 -10.020 -10.016 -10.010 -10.010 -10.009  -1.048
 -1.041  -0.957  -0.953  -0.821  -0.742  -0.730  -0.692  -0.672
 -0.648  -0.595  -0.566  -0.516  -0.504  -0.472  -0.451  -0.440
 -0.433  -0.422  -0.418  -0.395  -0.390  -0.385  -0.372  -0.360
 -0.352  -0.343  -0.339  -0.322  -0.312  -0.300  -0.293  -0.253
 -0.246  -0.199  -0.190  -0.185  -0.179  -0.154  -0.147
 -- Virtual --
  0.052   0.076   0.129   0.152   0.251   0.281   0.311   0.352
  0.373   0.392   0.397   0.405   0.432   0.437   0.443   0.446
  0.453   0.456   0.457   0.459   0.467   0.471   0.483   0.493
  0.574   0.582   0.592   0.613   0.701   0.710   0.788   0.802
 --------------------------------------------------------------
 
          Ground-State Mulliken Net Atomic Charges

     Atom                 Charge (a.u.)
  ----------------------------------------
      1 C                    -0.018582
      2 C                    -0.016936
      3 C                     0.234617
      4 C                     0.240956
      5 O                    -0.184918
      6 O                    -0.230663
      7 O                    -0.182368
      8 O                    -0.224940
      9 C                    -0.127135
     10 C                    -0.125431
     11 C                    -0.074859
     12 C                    -0.080052
     13 C                    -0.077609
     14 C                     0.012689
     15 H                     0.097897
     16 H                     0.094244
     17 H                     0.080944
     18 H                     0.091047
     19 H                     0.094514
     20 H                     0.096685
     21 H                     0.094839
     22 H                     0.082779
     23 H                     0.091068
     24 C                    -0.232605
     25 H                     0.096456
     26 H                     0.085477
     27 H                     0.081886
  ----------------------------------------
  Sum of atomic charges =     0.000000

 -----------------------------------------------------------------
                    Cartesian Multipole Moments
 -----------------------------------------------------------------
    Charge (ESU x 10^10)
                -0.0000
    Dipole Moment (Debye)
         X       0.7982      Y      -0.5502      Z       1.4656
       Tot       1.7573
    Quadrupole Moments (Debye-Ang)
        XX     -68.8640     XY       1.0683     YY     -74.0057
        XZ      -1.4979     YZ       4.7411     ZZ     -83.2885
    Octopole Moments (Debye-Ang^2)
       XXX      41.5766    XXY      -2.7669    XYY       0.8577
       YYY      25.2011    XXZ       3.5524    XYZ      -0.6167
       YYZ      13.0115    XZZ       9.2585    YZZ       6.8348
       ZZZ      -3.0962
    Hexadecapole Moments (Debye-Ang^3)
      XXXX   -1834.3719   XXXY     -13.9583   XXYY    -592.7498
      XYYY      -6.0514   YYYY   -1421.5834   XXXZ       3.4567
      XXYZ       8.8362   XYYZ      -9.5961   YYYZ      16.3355
      XXZZ    -378.5399   XYZZ      -4.8522   YYZZ    -299.7002
      XZZZ      -0.3707   YZZZ       2.9732   ZZZZ    -200.2064
 -----------------------------------------------------------------
 Calculating analytic gradient of the SCF energy
 Gradient of SCF Energy
            1           2           3           4           5           6
    1   0.0155520   0.0002434   0.0288734   0.0033619  -0.0165587  -0.0090033
    2   0.0247654   0.0340006   0.0084045   0.0202584   0.0561898  -0.0668372
    3  -0.0054958  -0.0064167  -0.0034908   0.0083047  -0.0327235   0.0327088
            7           8           9          10          11          12
    1  -0.0295598   0.0255054  -0.0003711  -0.0164199  -0.0008983  -0.0031731
    2   0.0085524  -0.0425767  -0.0241214  -0.0093064   0.0067387   0.0046852
    3  -0.0553920   0.0504006  -0.0000651   0.0029537   0.0000270  -0.0002477
           13          14          15          16          17          18
    1   0.0029767  -0.0065585  -0.0025396  -0.0055135   0.0073378   0.0102249
    2   0.0029842   0.0110264  -0.0077578  -0.0067668   0.0014604  -0.0087175
    3  -0.0002257  -0.0001337   0.0102837   0.0117449  -0.0006387   0.0042723
           19          20          21          22          23          24
    1  -0.0046865  -0.0047308  -0.0030343  -0.0003432  -0.0094996   0.0157825
    2  -0.0008429   0.0080769  -0.0133174   0.0081641   0.0001020  -0.0050621
    3  -0.0097686  -0.0052144  -0.0006932  -0.0010887  -0.0004175  -0.0020005
           25          26          27
    1   0.0009587   0.0010130   0.0010607
    2  -0.0069575  -0.0076169   0.0044717
    3   0.0047262  -0.0008020  -0.0006072
 Max gradient component =       6.684E-02
 RMS gradient           =       1.774E-02
 Gradient time:  CPU 13.74 s  wall 0.59 s
 Geometry Optimization Parameters
   NAtoms,    NIC,     NZ,  NCons,   NDum,   NFix, NCnnct, MaxDiis
       27     173       0       2       0       0       0       0


** CONSTRAINED OPTIMIZATION IN DELOCALIZED INTERNAL COORDINATES **
   Searching for a Minimum

   Optimization Cycle:   1

                       Coordinates (Angstroms)
     ATOM                X               Y               Z
      1  C         0.4276448099   -0.8415736243   -0.0588692333
      2  C        -0.8060843738   -0.1694900882   -0.1153229467
      3  C         1.7108516923   -0.1157460900   -0.2752773829
      4  C        -0.8586766063    1.2982395328   -0.2659510208
      5  O         2.7440659004   -0.8386462100    0.2293698371
      6  O         1.8151246914    0.9559824043   -0.8463747267
      7  O        -0.3462610882    1.8472865541    0.8641338013
      8  O        -1.3960448180    1.8760408395   -1.1942408759
      9  C        -0.3453536797    3.2741738433    0.8499267384
     10  C         4.0219453492   -0.2207266872    0.0636122501
     11  C         0.4347697576   -2.2356355990    0.1279500539
     12  C        -0.7617862935   -2.9413211965    0.2541144457
     13  C        -1.9807647890   -2.2699771573    0.1874690522
     14  C        -2.0220088454   -0.8801964136    0.0044651935
     15  H         0.2409006342    3.6507951732    0.0054285126
     16  H         4.2682047510   -0.1351699828   -0.9988007380
     17  H        -2.9041102496   -2.8410186193    0.2801232975
     18  H        -1.3703322120    3.6561049330    0.8116037554
     19  H         0.1193667722    3.6218521173    1.7762548225
     20  H         4.7702630880   -0.8580083794    0.5428727289
     21  H         4.0413877155    0.7607414868    0.5480265539
     22  H        -0.7435362013   -4.0202578732    0.3939414170
     23  H         1.3701157423   -2.7903072772    0.1584823066
     24  C        -3.3565948521   -0.1864117253   -0.0591272334
     25  H        -3.5169381685    0.2431909134   -1.0520807034
     26  H        -3.4152264497    0.6020259728    0.6980684692
     27  H        -4.1788259208   -0.8832659350    0.1350357913
   Point Group: c1    Number of degrees of freedom:    75


   Energy is   -717.925726768

              Constraints and their Current Values
                                        Value     Constraint
   Dihedral:        2   1   3   5      160.883      163.600
   Dihedral:        1   2   4   7      -66.511      -62.300

 Attempting to Generate Delocalized Internal Coordinates

   Using Lagrange Multiplier Algorithm


 77 Hessian modes will be used to form the next step
  Hessian Eigenvalues:
    -0.977753   -0.977753    0.045000    0.045000    0.045000    0.045000
     0.045000    0.045000    0.045000    0.045000    0.045000    0.045001
     0.045002    0.045007    0.045012    0.045014    0.045073    0.045391
     0.094103    0.094233    0.113874    0.113890    0.116885    0.116948
     0.159973    0.159992    0.160000    0.160000    0.160000    0.160000
     0.160000    0.160000    0.160000    0.160000    0.160000    0.160000
     0.220831    0.234483    0.248788    0.249003    0.249488    0.249924
     0.249954    0.250000    0.250000    0.250000    0.250000    0.250000
     0.318081    0.334430    0.342234    0.342572    0.342726    0.342778
     0.342982    0.343623    0.343862    0.344084    0.344536    0.348583
     0.349879    0.350317    0.350597    0.408825    0.411215    0.413739
     0.414295    0.441969    0.449403    0.456885    0.464260    0.533072
     0.535839    0.958888    0.961246    1.022753    1.022753

 Minimum Search - Taking P-RFO Step
 Searching for Lamda that Maximizes Along the Constraint modes Only
 Value Taken    Lamda =   0.00355976
 Searching for Lamda that Minimizes Along All other modes
 Value Taken    Lamda =  -0.05719261
 Calculated Step too Large.  Step scaled by  0.863499
 Step Taken.  Stepsize is  0.300000

                             Maximum     Tolerance    Cnvgd?
         Gradient            0.091802       0.000300      NO
         Displacement        0.120860       0.001200      NO
         Energy change     *********       0.000001      NO


 New Cartesian Coordinates Obtained by Inverse Iteration

 Displacement from previous Coordinates is:  0.963113
 Adding empirical dispersion correction 
 ----------------------------------------------------------------
 Doing -D3(op) with
 s6 =   1.00000
 s8 =   0.78311
 a1 =   0.30000
 a2 =   4.25000
 n  =  10.00000
 -D3 energy without 3body term =     -0.0279360152 hartrees
 ----------------------------------------------------------------
             Standard Nuclear Orientation (Angstroms)
    I     Atom           X                Y                Z
 ----------------------------------------------------------------
    1      C       0.3912948007    -0.9049558561    -0.0243375605
    2      C      -0.8513650844    -0.2233507256    -0.0932836064
    3      C       1.6875542896    -0.1151481137    -0.2226491768
    4      C      -0.8844436043     1.3085339296    -0.2374413307
    5      O       2.7836443799    -0.8577405048     0.2527785665
    6      O       1.7727410948     1.0079502851    -0.7705739683
    7      O      -0.2940556664     1.8862348111     0.9021410072
    8      O      -1.3951322008     1.9436350463    -1.1848201274
    9      C      -0.2407239299     3.3506042279     0.8287100130
   10      C       4.0562648648    -0.1570154908     0.0643221707
   11      C       0.4112826737    -2.3119937806     0.1357764478
   12      C      -0.7929318893    -3.0292488150     0.2364148619
   13      C      -2.0250211437    -2.3502483669     0.1679797409
   14      C      -2.0744232249    -0.9459454482     0.0043317252
   15      H       0.3332244192     3.6946130693    -0.0551045742
   16      H       4.2876783238    -0.0065295440    -1.0097366096
   17      H      -2.9599606464    -2.9203146593     0.2421101512
   18      H      -1.2554056949     3.7971860682     0.7969582214
   19      H       0.2716875480     3.7019416996     1.7426354642
   20      H       4.8405602119    -0.7957205165     0.5096890778
   21      H       4.0646319681     0.8264236804     0.5761984797
   22      H      -0.7727707997    -4.1194418267     0.3599260930
   23      H       1.3686621905    -2.8467411942     0.1685921335
   24      C      -3.4289155982    -0.2286549796    -0.0679335577
   25      H      -3.5784445800     0.2291111819    -1.0590056284
   26      H      -3.5018658986     0.5624340263     0.6953504717
   27      H      -4.2516704476    -0.9369372920     0.1058056800
 ----------------------------------------------------------------
 Molecular Point Group                 C1    NOp =  1
 Largest Abelian Subgroup              C1    NOp =  1
 Nuclear Repulsion Energy =   991.3868542657 hartrees
 There are       55 alpha and       55 beta electrons
 Applying Cartesian multipole field
    Component          Value
    ---------          -----
     (2,0,0)        1.00000E-11
     (0,2,0)        2.00000E-11
     (0,0,2)       -3.00000E-11
 Nucleus-field energy     =     0.0000000386 hartrees
 Requested basis set is STO-3G
 There are 42 shells and 87 basis functions
 A cutoff of  1.0D-12 yielded    763 shell pairs
 There are      3691 function pairs
 Smallest overlap matrix eigenvalue = 1.82E-01
 Guess MOs from SCF MO coefficient file
 Reading MOs from coefficient file
 Reading MOs from coefficient file
 A restricted hybrid HF-DFT SCF calculation will be
 performed using Pulay DIIS extrapolation
 Exchange:     0.2000 Hartree-Fock + 0.0800 Slater + 0.7200 B88
 Correlation:  0.1900 VWN1RPA + 0.8100 LYP
 Using SG-1 standard quadrature grid
 Dispersion:   Grimme D3
 SCF converges when DIIS error is below 1.0E-08
 Geometry optimization detected.  Setting ReadMinima to 0
 Setting SaveMinima to 0
 -------------------------------------------------------
 OpenMP Integral computing Module                
 Release: version 1.0, May 2013, Q-Chem Inc. Pittsburgh 
 -------------------------------------------------------
 -------------------------------------------------------
 OpenMP BLAS3 based DFT computing Module                
 Release: version 1.0, May 2013, Q-Chem Inc. Pittsburgh 
 -------------------------------------------------------
 ---------------------------------------
  Cycle       Energy         DIIS Error
 ---------------------------------------
    1    -717.7825581191      7.20E-03
    2    -717.9449367886      2.53E-03
    3    -717.9319889622      4.30E-03
    4    -717.9516439522      6.80E-04
    5    -717.9521641713      1.88E-04
    6    -717.9522044749      5.04E-05
    7    -717.9522073356      1.99E-05
    8    -717.9522077258      1.12E-05
    9    -717.9522078592      2.60E-06
   10    -717.9522078678      4.89E-07
   11    -717.9522078682      1.76E-07
   12    -717.9522078682      4.36E-08
   13    -717.9522078682      1.98E-08
   14    -717.9522078682      5.86E-09 Convergence criterion met
 ---------------------------------------
 SCF time:  CPU 53.22 s  wall 2.25 s
 SCF   energy in the final basis set = -717.9522078682
 Total energy in the final basis set = -717.9522078682
 
 --------------------------------------------------------------
 
                    Orbital Energies (a.u.)
 --------------------------------------------------------------
 
 Alpha MOs
 -- Occupied --
-18.943 -18.934 -18.871 -18.866 -10.107 -10.102 -10.071 -10.063
-10.027 -10.027 -10.024 -10.018 -10.014 -10.014 -10.012  -1.020
 -1.011  -0.940  -0.933  -0.815  -0.735  -0.720  -0.678  -0.661
 -0.646  -0.587  -0.562  -0.509  -0.497  -0.460  -0.440  -0.427
 -0.418  -0.413  -0.408  -0.388  -0.382  -0.376  -0.370  -0.358
 -0.348  -0.341  -0.331  -0.313  -0.310  -0.296  -0.287  -0.255
 -0.246  -0.197  -0.191  -0.181  -0.171  -0.153  -0.146
 -- Virtual --
  0.046   0.071   0.119   0.139   0.239   0.253   0.279   0.328
  0.349   0.359   0.375   0.392   0.412   0.421   0.426   0.429
  0.430   0.436   0.439   0.442   0.448   0.458   0.465   0.477
  0.548   0.559   0.566   0.590   0.654   0.663   0.757   0.773
 --------------------------------------------------------------
 
          Ground-State Mulliken Net Atomic Charges

     Atom                 Charge (a.u.)
  ----------------------------------------
      1 C                    -0.016637
      2 C                    -0.014874
      3 C                     0.214269
      4 C                     0.219702
      5 O                    -0.172232
      6 O                    -0.214891
      7 O                    -0.171774
      8 O                    -0.212852
      9 C                    -0.124475
     10 C                    -0.123699
     11 C                    -0.074595
     12 C                    -0.077235
     13 C                    -0.076249
     14 C                     0.011271
     15 H                     0.094275
     16 H                     0.090141
     17 H                     0.080779
     18 H                     0.086919
     19 H                     0.090479
     20 H                     0.092580
     21 H                     0.091191
     22 H                     0.083189
     23 H                     0.091607
     24 C                    -0.225821
     25 H                     0.093672
     26 H                     0.084682
     27 H                     0.080576
  ----------------------------------------
  Sum of atomic charges =     0.000000

 -----------------------------------------------------------------
                    Cartesian Multipole Moments
 -----------------------------------------------------------------
    Charge (ESU x 10^10)
                 0.0000
    Dipole Moment (Debye)
         X       0.6956      Y      -0.6713      Z       1.2621
       Tot       1.5898
    Quadrupole Moments (Debye-Ang)
        XX     -68.6855     XY       1.7878     YY     -73.6550
        XZ      -1.5225     YZ       4.3734     ZZ     -83.2728
    Octopole Moments (Debye-Ang^2)
       XXX      42.2305    XXY      -0.5347    XYY       1.5488
       YYY      26.8556    XXZ       1.7262    XYZ      -0.7463
       YYZ      11.9038    XZZ      10.3002    YZZ       8.1255
       ZZZ      -6.4696
    Hexadecapole Moments (Debye-Ang^3)
      XXXX   -1868.6492   XXXY     -31.9529   XXYY    -613.3101
      XYYY     -28.2938   YYYY   -1490.0636   XXXZ      -6.0578
      XXYZ       7.1511   XYYZ     -11.4793   YYYZ      16.1089
      XXZZ    -385.3443   XYZZ     -12.5301   YYZZ    -314.5166
      XZZZ      -8.8069   YZZZ       0.2245   ZZZZ    -195.1114
 -----------------------------------------------------------------
 Calculating analytic gradient of the SCF energy
 Gradient of SCF Energy
            1           2           3           4           5           6
    1   0.0012265   0.0018812   0.0102999   0.0053338  -0.0055188  -0.0020301
    2   0.0060222   0.0036149  -0.0072728   0.0025044   0.0180772  -0.0070231
    3   0.0000841  -0.0063336   0.0067743   0.0151321  -0.0100442   0.0012690
            7           8           9          10          11          12
    1  -0.0093841   0.0020215   0.0013790  -0.0065592   0.0001865   0.0000825
    2   0.0034211  -0.0055057  -0.0080637  -0.0060041   0.0013232  -0.0013965
    3  -0.0197654   0.0033360   0.0035682   0.0022146   0.0000944   0.0003605
           13          14          15          16          17          18
    1  -0.0011307  -0.0023589   0.0008050   0.0006819   0.0012186   0.0007108
    2  -0.0001985   0.0025445   0.0001345  -0.0015635  -0.0004342  -0.0002085
    3   0.0003736   0.0007167   0.0015653   0.0007809  -0.0002307   0.0016049
           19          20          21          22          23          24
    1  -0.0004352   0.0009977   0.0006368   0.0001492  -0.0019286   0.0044645
    2   0.0023414   0.0018271  -0.0013777   0.0007955  -0.0015176  -0.0000982
    3  -0.0013854  -0.0007366   0.0010074  -0.0000750  -0.0004523  -0.0008724
           25          26          27
    1  -0.0011204  -0.0011559  -0.0004536
    2  -0.0017997  -0.0015984   0.0014562
    3   0.0001650   0.0007372   0.0001114
 Max gradient component =       1.977E-02
 RMS gradient           =       4.792E-03
 Gradient time:  CPU 12.57 s  wall 0.53 s
 Geometry Optimization Parameters
   NAtoms,    NIC,     NZ,  NCons,   NDum,   NFix, NCnnct, MaxDiis
       27     173       0       2       0       0       0       0

 Cartesian Hessian Update
 Hessian Updated using BFGS Update


** CONSTRAINED OPTIMIZATION IN DELOCALIZED INTERNAL COORDINATES **
   Searching for a Minimum

   Optimization Cycle:   2

                       Coordinates (Angstroms)
     ATOM                X               Y               Z
      1  C         0.3912948007   -0.9049558561   -0.0243375605
      2  C        -0.8513650844   -0.2233507256   -0.0932836064
      3  C         1.6875542896   -0.1151481137   -0.2226491768
      4  C        -0.8844436043    1.3085339296   -0.2374413307
      5  O         2.7836443799   -0.8577405048    0.2527785665
      6  O         1.7727410948    1.0079502851   -0.7705739683
      7  O        -0.2940556664    1.8862348111    0.9021410072
      8  O        -1.3951322008    1.9436350463   -1.1848201274
      9  C        -0.2407239299    3.3506042279    0.8287100130
     10  C         4.0562648648   -0.1570154908    0.0643221707
     11  C         0.4112826737   -2.3119937806    0.1357764478
     12  C        -0.7929318893   -3.0292488150    0.2364148619
     13  C        -2.0250211437   -2.3502483669    0.1679797409
     14  C        -2.0744232249   -0.9459454482    0.0043317252
     15  H         0.3332244192    3.6946130693   -0.0551045742
     16  H         4.2876783238   -0.0065295440   -1.0097366096
     17  H        -2.9599606464   -2.9203146593    0.2421101512
     18  H        -1.2554056949    3.7971860682    0.7969582214
     19  H         0.2716875480    3.7019416996    1.7426354642
     20  H         4.8405602119   -0.7957205165    0.5096890778
     21  H         4.0646319681    0.8264236804    0.5761984797
     22  H        -0.7727707997   -4.1194418267    0.3599260930
     23  H         1.3686621905   -2.8467411942    0.1685921335
     24  C        -3.4289155982   -0.2286549796   -0.0679335577
     25  H        -3.5784445800    0.2291111819   -1.0590056284
     26  H        -3.5018658986    0.5624340263    0.6953504717
     27  H        -4.2516704476   -0.9369372920    0.1058056800
   Point Group: c1    Number of degrees of freedom:    75


   Energy is   -717.952207868

              Constraints and their Current Values
                                        Value     Constraint
   Dihedral:        2   1   3   5      163.163      163.600
   Dihedral:        1   2   4   7      -62.982      -62.300
 Hessian Updated using BFGS Update

   Using Lagrange Multiplier Algorithm


 65 Hessian modes will be used to form the next step
  Hessian Eigenvalues:
    -0.977786   -0.977338    0.044956    0.045000    0.045000    0.045000
     0.045000    0.045000    0.045001    0.045003    0.045007    0.045012
     0.045027    0.045074    0.045741    0.094011    0.094224    0.113791
     0.113883    0.116885    0.116948    0.158413    0.159978    0.159992
     0.160000    0.162302    0.220814    0.233815    0.238315    0.248932
     0.249176    0.249778    0.249935    0.249959    0.250000    0.253304
     0.319408    0.336681    0.342233    0.342628    0.342732    0.342872
     0.343256    0.343784    0.343948    0.344332    0.345155    0.348601
     0.350307    0.350583    0.371490    0.408137    0.411433    0.413653
     0.422117    0.442566    0.451429    0.463381    0.468322    0.518161
     0.534816    0.960031    0.987131    1.022740    1.024992

 Minimum Search - Taking P-RFO Step
 Searching for Lamda that Maximizes Along the Constraint modes Only
 Value Taken    Lamda =   0.00011546
 Searching for Lamda that Minimizes Along All other modes
 Value Taken    Lamda =  -0.00393402
 Step Taken.  Stepsize is  0.136920

                             Maximum     Tolerance    Cnvgd?
         Gradient            0.018205       0.000300      NO
         Displacement        0.048745       0.001200      NO
         Energy change     -0.026481       0.000001      NO


 New Cartesian Coordinates Obtained by Inverse Iteration

 Displacement from previous Coordinates is:  0.462021
 Adding empirical dispersion correction 
 ----------------------------------------------------------------
 Doing -D3(op) with
 s6 =   1.00000
 s8 =   0.78311
 a1 =   0.30000
 a2 =   4.25000
 n  =  10.00000
 -D3 energy without 3body term =     -0.0279689598 hartrees
 ----------------------------------------------------------------
             Standard Nuclear Orientation (Angstroms)
    I     Atom           X                Y                Z
 ----------------------------------------------------------------
    1      C       0.3844001331    -0.9273183567    -0.0082493180
    2      C      -0.8560458609    -0.2383398874    -0.0702459801
    3      C       1.6809868243    -0.1251697999    -0.1932652341
    4      C      -0.8767135045     1.3033226137    -0.2102509430
    5      O       2.7917669283    -0.8879471199     0.2700132594
    6      O       1.7728071589     1.0225166609    -0.6983451019
    7      O      -0.2538866788     1.8698506430     0.9398355916
    8      O      -1.3844012544     1.9668606475    -1.1451849780
    9      C      -0.2097706656     3.3376320695     0.7938346685
   10      C       4.0351757768    -0.1192592791     0.0668779316
   11      C       0.4059152175    -2.3349015163     0.1317099617
   12      C      -0.8032596328    -3.0481345428     0.2171124888
   13      C      -2.0341929248    -2.3630158692     0.1539053469
   14      C      -2.0797265534    -0.9568970836     0.0110639741
   15      H       0.3485687370     3.6373584671    -0.1171920725
   16      H       4.2297053126     0.0680115991    -1.0099694809
   17      H      -2.9760804276    -2.9253905448     0.2180584513
   18      H      -1.2278772606     3.7778827998     0.7470865973
   19      H       0.3148977774     3.7126264881     1.6923300672
   20      H       4.8473960168    -0.7420413850     0.4863856542
   21      H       4.0053346183     0.8573345984     0.5932210592
   22      H      -0.7896266320    -4.1411537812     0.3268889414
   23      H       1.3718811464    -2.8571876169     0.1648024264
   24      C      -3.4298220361    -0.2221592671    -0.0594425659
   25      H      -3.5567162044     0.2596400172    -1.0435922541
   26      H      -3.4900094581     0.5637520629     0.7115663837
   27      H      -4.2586101975    -0.9291917050     0.0958792912
 ----------------------------------------------------------------
 Molecular Point Group                 C1    NOp =  1
 Largest Abelian Subgroup              C1    NOp =  1
 Nuclear Repulsion Energy =   991.2205400517 hartrees
 There are       55 alpha and       55 beta electrons
 Applying Cartesian multipole field
    Component          Value
    ---------          -----
     (2,0,0)        1.00000E-11
     (0,2,0)        2.00000E-11
     (0,0,2)       -3.00000E-11
 Nucleus-field energy     =     0.0000000389 hartrees
 Requested basis set is STO-3G
 There are 42 shells and 87 basis functions
 A cutoff of  1.0D-12 yielded    764 shell pairs
 There are      3692 function pairs
 Smallest overlap matrix eigenvalue = 1.82E-01
 Guess MOs from SCF MO coefficient file
 Reading MOs from coefficient file
 Reading MOs from coefficient file
 A restricted hybrid HF-DFT SCF calculation will be
 performed using Pulay DIIS extrapolation
 Exchange:     0.2000 Hartree-Fock + 0.0800 Slater + 0.7200 B88
 Correlation:  0.1900 VWN1RPA + 0.8100 LYP
 Using SG-1 standard quadrature grid
 Dispersion:   Grimme D3
 SCF converges when DIIS error is below 1.0E-08
 Geometry optimization detected.  Setting ReadMinima to 0
 Setting SaveMinima to 0
 -------------------------------------------------------
 OpenMP Integral computing Module                
 Release: version 1.0, May 2013, Q-Chem Inc. Pittsburgh 
 -------------------------------------------------------
 -------------------------------------------------------
 OpenMP BLAS3 based DFT computing Module                
 Release: version 1.0, May 2013, Q-Chem Inc. Pittsburgh 
 -------------------------------------------------------
 ---------------------------------------
  Cycle       Energy         DIIS Error
 ---------------------------------------
    1    -717.9135231773      3.06E-03
    2    -717.9533496113      8.24E-04
    3    -717.9513824243      1.60E-03
    4    -717.9540736268      2.33E-04
    5    -717.9541345245      6.72E-05
    6    -717.9541394973      2.04E-05
    7    -717.9541399702      7.85E-06
    8    -717.9541400385      3.86E-06
    9    -717.9541400533      1.39E-06
   10    -717.9541400556      1.81E-07
   11    -717.9541400557      5.13E-08
   12    -717.9541400557      1.80E-08
   13    -717.9541400557      7.75E-09 Convergence criterion met
 ---------------------------------------
 SCF time:  CPU 47.41 s  wall 2.00 s
 SCF   energy in the final basis set = -717.9541400557
 Total energy in the final basis set = -717.9541400557
 
 --------------------------------------------------------------
 
                    Orbital Energies (a.u.)
 --------------------------------------------------------------
 
 Alpha MOs
 -- Occupied --
-18.941 -18.932 -18.874 -18.869 -10.104 -10.100 -10.067 -10.059
-10.028 -10.027 -10.024 -10.019 -10.016 -10.015 -10.014  -1.015
 -1.006  -0.937  -0.931  -0.816  -0.735  -0.720  -0.673  -0.657
 -0.645  -0.586  -0.562  -0.507  -0.495  -0.458  -0.439  -0.426
 -0.415  -0.413  -0.406  -0.387  -0.379  -0.373  -0.368  -0.358
 -0.349  -0.341  -0.330  -0.312  -0.309  -0.296  -0.286  -0.260
 -0.251  -0.197  -0.192  -0.181  -0.171  -0.155  -0.148
 -- Virtual --
  0.045   0.070   0.117   0.137   0.239   0.251   0.277   0.318
  0.339   0.350   0.370   0.388   0.410   0.420   0.423   0.428
  0.429   0.436   0.436   0.441   0.446   0.454   0.461   0.474
  0.544   0.556   0.564   0.586   0.646   0.657   0.754   0.771
 --------------------------------------------------------------
 
          Ground-State Mulliken Net Atomic Charges

     Atom                 Charge (a.u.)
  ----------------------------------------
      1 C                    -0.016702
      2 C                    -0.015509
      3 C                     0.209275
      4 C                     0.214679
      5 O                    -0.167130
      6 O                    -0.211371
      7 O                    -0.166518
      8 O                    -0.209798
      9 C                    -0.126503
     10 C                    -0.126074
     11 C                    -0.074863
     12 C                    -0.076517
     13 C                    -0.076090
     14 C                     0.010751
     15 H                     0.094190
     16 H                     0.089536
     17 H                     0.080922
     18 H                     0.086512
     19 H                     0.088666
     20 H                     0.091030
     21 H                     0.091133
     22 H                     0.083515
     23 H                     0.092583
     24 C                    -0.224659
     25 H                     0.093482
     26 H                     0.084767
     27 H                     0.080694
  ----------------------------------------
  Sum of atomic charges =     0.000000

 -----------------------------------------------------------------
                    Cartesian Multipole Moments
 -----------------------------------------------------------------
    Charge (ESU x 10^10)
                 0.0000
    Dipole Moment (Debye)
         X       0.5643      Y      -0.7178      Z       1.0777
       Tot       1.4125
    Quadrupole Moments (Debye-Ang)
        XX     -69.2229     XY       2.0033     YY     -74.0612
        XZ      -1.5605     YZ       3.9874     ZZ     -83.1369
    Octopole Moments (Debye-Ang^2)
       XXX      38.9856    XXY       0.4990    XYY       1.2474
       YYY      25.8914    XXZ       0.4791    XYZ      -0.7951
       YYZ       9.8972    XZZ      10.2364    YZZ       8.8033
       ZZZ      -9.4985
    Hexadecapole Moments (Debye-Ang^3)
      XXXX   -1874.5957   XXXY     -36.0408   XXYY    -613.6827
      XYYY     -34.4964   YYYY   -1505.5640   XXXZ      -9.0710
      XXYZ       6.1444   XYYZ     -11.6979   YYYZ      13.2028
      XXZZ    -382.8845   XYZZ     -14.7881   YYZZ    -315.4083
      XZZZ     -11.5439   YZZZ      -2.1318   ZZZZ    -187.6998
 -----------------------------------------------------------------
 Calculating analytic gradient of the SCF energy
 Gradient of SCF Energy
            1           2           3           4           5           6
    1  -0.0007950   0.0008226   0.0058297   0.0020830  -0.0014187  -0.0005886
    2  -0.0009573  -0.0010472  -0.0030897   0.0042444   0.0017267   0.0027406
    3   0.0020590  -0.0027030   0.0026056   0.0080741  -0.0009904  -0.0014180
            7           8           9          10          11          12
    1   0.0002913  -0.0011809  -0.0014127  -0.0043936   0.0000397   0.0003554
    2  -0.0005738   0.0010249  -0.0045220  -0.0005816   0.0005571  -0.0001433
    3  -0.0027702  -0.0030090  -0.0018582  -0.0000403  -0.0003612  -0.0000008
           13          14          15          16          17          18
    1  -0.0004813  -0.0000921   0.0002290   0.0002036  -0.0002478  -0.0004751
    2   0.0006289   0.0001352   0.0003159   0.0000739   0.0000028   0.0003136
    3  -0.0001057   0.0007691  -0.0004750  -0.0004971  -0.0000998   0.0000788
           19          20          21          22          23          24
    1   0.0002969  -0.0000094   0.0002243   0.0001085   0.0001979   0.0009792
    2  -0.0006867  -0.0004783   0.0005052  -0.0000916  -0.0003017   0.0007546
    3   0.0004326   0.0003033   0.0002219   0.0000841  -0.0002570  -0.0002154
           25          26          27
    1  -0.0002373  -0.0000977  -0.0002311
    2  -0.0002054   0.0000386  -0.0003840
    3  -0.0002539   0.0002082   0.0002185
 Max gradient component =       8.074E-03
 RMS gradient           =       1.722E-03
 Gradient time:  CPU 12.72 s  wall 0.53 s
 Geometry Optimization Parameters
   NAtoms,    NIC,     NZ,  NCons,   NDum,   NFix, NCnnct, MaxDiis
       27     173       0       2       0       0       0       0

 Cartesian Hessian Update
 Hessian Updated using BFGS Update


** CONSTRAINED OPTIMIZATION IN DELOCALIZED INTERNAL COORDINATES **
   Searching for a Minimum

   Optimization Cycle:   3

                       Coordinates (Angstroms)
     ATOM                X               Y               Z
      1  C         0.3844001331   -0.9273183567   -0.0082493180
      2  C        -0.8560458609   -0.2383398874   -0.0702459801
      3  C         1.6809868243   -0.1251697999   -0.1932652341
      4  C        -0.8767135045    1.3033226137   -0.2102509430
      5  O         2.7917669283   -0.8879471199    0.2700132594
      6  O         1.7728071589    1.0225166609   -0.6983451019
      7  O        -0.2538866788    1.8698506430    0.9398355916
      8  O        -1.3844012544    1.9668606475   -1.1451849780
      9  C        -0.2097706656    3.3376320695    0.7938346685
     10  C         4.0351757768   -0.1192592791    0.0668779316
     11  C         0.4059152175   -2.3349015163    0.1317099617
     12  C        -0.8032596328   -3.0481345428    0.2171124888
     13  C        -2.0341929248   -2.3630158692    0.1539053469
     14  C        -2.0797265534   -0.9568970836    0.0110639741
     15  H         0.3485687370    3.6373584671   -0.1171920725
     16  H         4.2297053126    0.0680115991   -1.0099694809
     17  H        -2.9760804276   -2.9253905448    0.2180584513
     18  H        -1.2278772606    3.7778827998    0.7470865973
     19  H         0.3148977774    3.7126264881    1.6923300672
     20  H         4.8473960168   -0.7420413850    0.4863856542
     21  H         4.0053346183    0.8573345984    0.5932210592
     22  H        -0.7896266320   -4.1411537812    0.3268889414
     23  H         1.3718811464   -2.8571876169    0.1648024264
     24  C        -3.4298220361   -0.2221592671   -0.0594425659
     25  H        -3.5567162044    0.2596400172   -1.0435922541
     26  H        -3.4900094581    0.5637520629    0.7115663837
     27  H        -4.2586101975   -0.9291917050    0.0958792912
   Point Group: c1    Number of degrees of freedom:    75


   Energy is   -717.954140056

              Constraints and their Current Values
                                        Value     Constraint
   Dihedral:        2   1   3   5      163.599      163.600
   Dihedral:        1   2   4   7      -62.301      -62.300
 Hessian Updated using BFGS Update

   Using Lagrange Multiplier Algorithm


 68 Hessian modes will be used to form the next step
  Hessian Eigenvalues:
    -0.977764   -0.977029    0.043863    0.045000    0.045000    0.045000
     0.045000    0.045000    0.045001    0.045002    0.045005    0.045008
     0.045017    0.045072    0.045446    0.045947    0.093078    0.094216
     0.112679    0.113900    0.116881    0.116948    0.157477    0.159987
     0.159996    0.160000    0.161329    0.163566    0.220913    0.233448
     0.235268    0.248965    0.249534    0.249826    0.249940    0.249998
     0.250000    0.252152    0.293786    0.319688    0.336681    0.342276
     0.342647    0.342727    0.342884    0.343342    0.343794    0.343975
     0.344435    0.345549    0.348663    0.350310    0.350680    0.375570
     0.393118    0.410485    0.413637    0.421353    0.442776    0.452743
     0.463987    0.468080    0.471164    0.534870    0.960011    1.006700
     1.022789    1.031253

 Minimum Search - Taking P-RFO Step
 Searching for Lamda that Maximizes Along the Constraint modes Only
 Value Taken    Lamda =   0.00000083
 Searching for Lamda that Minimizes Along All other modes
 Value Taken    Lamda =  -0.00047748
 Step Taken.  Stepsize is  0.046723

                             Maximum     Tolerance    Cnvgd?
         Gradient            0.005660       0.000300      NO
         Displacement        0.017978       0.001200      NO
         Energy change     -0.001932       0.000001      NO


 New Cartesian Coordinates Obtained by Inverse Iteration

 Displacement from previous Coordinates is:  0.157245
 Adding empirical dispersion correction 
 ----------------------------------------------------------------
 Doing -D3(op) with
 s6 =   1.00000
 s8 =   0.78311
 a1 =   0.30000
 a2 =   4.25000
 n  =  10.00000
 -D3 energy without 3body term =     -0.0279299486 hartrees
 ----------------------------------------------------------------
             Standard Nuclear Orientation (Angstroms)
    I     Atom           X                Y                Z
 ----------------------------------------------------------------
    1      C       0.3814426230    -0.9234489166    -0.0078407381
    2      C      -0.8617320181    -0.2367362796    -0.0695457732
    3      C       1.6797344248    -0.1256846123    -0.1972334961
    4      C      -0.8888950765     1.3052584792    -0.2103693818
    5      O       2.7961637240    -0.8919597701     0.2690011038
    6      O       1.7790298131     1.0197418518    -0.7028616159
    7      O      -0.2646976761     1.8819943017     0.9439938721
    8      O      -1.4017947186     1.9697642017    -1.1398064208
    9      C      -0.2139600897     3.3566661656     0.8054131802
   10      C       4.0513963865    -0.1333405421     0.0593046082
   11      C       0.4060124780    -2.3304327821     0.1390697629
   12      C      -0.8008365136    -3.0472520418     0.2232015766
   13      C      -2.0327923416    -2.3666104102     0.1530136719
   14      C      -2.0828195460    -0.9607815415     0.0076619692
   15      H       0.3487668996     3.6544219540    -0.1024960021
   16      H       4.2422832214     0.0478773684    -1.0184025451
   17      H      -2.9728768769    -2.9316784291     0.2165393898
   18      H      -1.2303219185     3.7979627669     0.7516301433
   19      H       0.3058692615     3.7311790574     1.7064263856
   20      H       4.8602593789    -0.7591357981     0.4793484020
   21      H       4.0271290089     0.8456954376     0.5795688969
   22      H      -0.7851665396    -4.1397907375     0.3366368192
   23      H       1.3745292735    -2.8467979016     0.1782103310
   24      C      -3.4357804354    -0.2302755782    -0.0680084325
   25      H      -3.5559371278     0.2541862873    -1.0515128089
   26      H      -3.4988012887     0.5559617436     0.7021438910
   27      H      -4.2641079704    -0.9381033622     0.0817473771
 ----------------------------------------------------------------
 Molecular Point Group                 C1    NOp =  1
 Largest Abelian Subgroup              C1    NOp =  1
 Nuclear Repulsion Energy =   989.2469557349 hartrees
 There are       55 alpha and       55 beta electrons
 Applying Cartesian multipole field
    Component          Value
    ---------          -----
     (2,0,0)        1.00000E-11
     (0,2,0)        2.00000E-11
     (0,0,2)       -3.00000E-11
 Nucleus-field energy     =     0.0000000391 hartrees
 Requested basis set is STO-3G
 There are 42 shells and 87 basis functions
 A cutoff of  1.0D-12 yielded    764 shell pairs
 There are      3692 function pairs
 Smallest overlap matrix eigenvalue = 1.82E-01
 Guess MOs from SCF MO coefficient file
 Reading MOs from coefficient file
 Reading MOs from coefficient file
 A restricted hybrid HF-DFT SCF calculation will be
 performed using Pulay DIIS extrapolation
 Exchange:     0.2000 Hartree-Fock + 0.0800 Slater + 0.7200 B88
 Correlation:  0.1900 VWN1RPA + 0.8100 LYP
 Using SG-1 standard quadrature grid
 Dispersion:   Grimme D3
 SCF converges when DIIS error is below 1.0E-08
 Geometry optimization detected.  Setting ReadMinima to 0
 Setting SaveMinima to 0
 -------------------------------------------------------
 OpenMP Integral computing Module                
 Release: version 1.0, May 2013, Q-Chem Inc. Pittsburgh 
 -------------------------------------------------------
 -------------------------------------------------------
 OpenMP BLAS3 based DFT computing Module                
 Release: version 1.0, May 2013, Q-Chem Inc. Pittsburgh 
 -------------------------------------------------------
 ---------------------------------------
  Cycle       Energy         DIIS Error
 ---------------------------------------
    1    -717.9481719840      8.97E-04
    2    -717.9542526952      3.07E-04
    3    -717.9539204311      6.26E-04
    4    -717.9543575562      5.85E-05
    5    -717.9543612906      1.48E-05
    6    -717.9543615255      5.07E-06
    7    -717.9543615543      2.40E-06
    8    -717.9543615601      9.22E-07
    9    -717.9543615609      3.62E-07
   10    -717.9543615611      4.82E-08
   11    -717.9543615611      1.57E-08
   12    -717.9543615611      6.17E-09 Convergence criterion met
 ---------------------------------------
 SCF time:  CPU 44.33 s  wall 1.87 s
 SCF   energy in the final basis set = -717.9543615611
 Total energy in the final basis set = -717.9543615611
 
 --------------------------------------------------------------
 
                    Orbital Energies (a.u.)
 --------------------------------------------------------------
 
 Alpha MOs
 -- Occupied --
-18.938 -18.929 -18.875 -18.871 -10.104 -10.100 -10.066 -10.058
-10.028 -10.028 -10.025 -10.020 -10.016 -10.016 -10.014  -1.012
 -1.003  -0.936  -0.930  -0.816  -0.735  -0.720  -0.672  -0.656
 -0.645  -0.587  -0.562  -0.507  -0.494  -0.457  -0.438  -0.425
 -0.414  -0.413  -0.404  -0.387  -0.379  -0.372  -0.368  -0.359
 -0.349  -0.342  -0.330  -0.312  -0.310  -0.296  -0.286  -0.258
 -0.250  -0.197  -0.192  -0.180  -0.170  -0.155  -0.148
 -- Virtual --
  0.044   0.069   0.116   0.137   0.237   0.247   0.273   0.317
  0.338   0.349   0.369   0.386   0.408   0.421   0.423   0.429
  0.430   0.436   0.437   0.441   0.446   0.454   0.461   0.474
  0.543   0.556   0.563   0.586   0.646   0.657   0.754   0.771
 --------------------------------------------------------------
 
          Ground-State Mulliken Net Atomic Charges

     Atom                 Charge (a.u.)
  ----------------------------------------
      1 C                    -0.016166
      2 C                    -0.015277
      3 C                     0.208369
      4 C                     0.213620
      5 O                    -0.167216
      6 O                    -0.210641
      7 O                    -0.166358
      8 O                    -0.208955
      9 C                    -0.128019
     10 C                    -0.127475
     11 C                    -0.074672
     12 C                    -0.076437
     13 C                    -0.076071
     14 C                     0.011094
     15 H                     0.093864
     16 H                     0.089400
     17 H                     0.081152
     18 H                     0.086536
     19 H                     0.089143
     20 H                     0.091287
     21 H                     0.091077
     22 H                     0.083773
     23 H                     0.093169
     24 C                    -0.224885
     25 H                     0.093628
     26 H                     0.085049
     27 H                     0.081012
  ----------------------------------------
  Sum of atomic charges =     0.000000

 -----------------------------------------------------------------
                    Cartesian Multipole Moments
 -----------------------------------------------------------------
    Charge (ESU x 10^10)
                 0.0000
    Dipole Moment (Debye)
         X       0.5326      Y      -0.7403      Z       1.0515
       Tot       1.3919
    Quadrupole Moments (Debye-Ang)
        XX     -69.2236     XY       2.0348     YY     -73.9552
        XZ      -1.5563     YZ       3.9664     ZZ     -83.1180
    Octopole Moments (Debye-Ang^2)
       XXX      39.6567    XXY       0.1771    XYY       1.3577
       YYY      26.1968    XXZ       0.4033    XYZ      -0.7926
       YYZ      10.1039    XZZ      10.3491    YZZ       8.8176
       ZZZ      -9.6038
    Hexadecapole Moments (Debye-Ang^3)
      XXXX   -1881.7334   XXXY     -34.2094   XXYY    -616.5410
      XYYY     -31.9036   YYYY   -1509.4784   XXXZ      -9.0913
      XXYZ       5.9718   XYYZ     -11.5702   YYYZ      12.8627
      XXZZ    -385.0628   XYZZ     -14.0767   YYZZ    -316.3060
      XZZZ     -11.3315   YZZZ      -2.9120   ZZZZ    -188.5361
 -----------------------------------------------------------------
 Calculating analytic gradient of the SCF energy
 Gradient of SCF Energy
            1           2           3           4           5           6
    1  -0.0005805  -0.0002161   0.0002265  -0.0007482  -0.0006508   0.0001652
    2  -0.0007322  -0.0011061  -0.0015936  -0.0002386   0.0002685   0.0012644
    3   0.0014499  -0.0024134   0.0004065   0.0024469   0.0000278  -0.0006687
            7           8           9          10          11          12
    1   0.0004862  -0.0003758   0.0003672   0.0011135  -0.0000100  -0.0000252
    2  -0.0001052   0.0006415   0.0009189  -0.0000412   0.0000736   0.0002799
    3  -0.0009350  -0.0009901   0.0006554   0.0002808  -0.0000852  -0.0000714
           13          14          15          16          17          18
    1   0.0001059   0.0002477  -0.0002718  -0.0000602  -0.0000878   0.0001038
    2   0.0000978  -0.0002727  -0.0000782   0.0001474   0.0000442   0.0000133
    3  -0.0001716   0.0004491  -0.0000958   0.0000564   0.0000141  -0.0000965
           19          20          21          22          23          24
    1   0.0001211   0.0001756  -0.0000636  -0.0000364   0.0000638  -0.0003037
    2   0.0001870   0.0000037   0.0000240  -0.0000351   0.0000647   0.0001784
    3   0.0000642   0.0000295  -0.0002203   0.0000188  -0.0001185   0.0000222
           25          26          27
    1   0.0000503   0.0001923   0.0000110
    2  -0.0000319   0.0001416  -0.0001140
    3  -0.0000340  -0.0001377   0.0001166
 Max gradient component =       2.447E-03
 RMS gradient           =       5.923E-04
 Gradient time:  CPU 12.51 s  wall 0.52 s
 Geometry Optimization Parameters
   NAtoms,    NIC,     NZ,  NCons,   NDum,   NFix, NCnnct, MaxDiis
       27     173       0       2       0       0       0       0

 Cartesian Hessian Update
 Hessian Updated using BFGS Update


** CONSTRAINED OPTIMIZATION IN DELOCALIZED INTERNAL COORDINATES **
   Searching for a Minimum

   Optimization Cycle:   4

                       Coordinates (Angstroms)
     ATOM                X               Y               Z
      1  C         0.3814426230   -0.9234489166   -0.0078407381
      2  C        -0.8617320181   -0.2367362796   -0.0695457732
      3  C         1.6797344248   -0.1256846123   -0.1972334961
      4  C        -0.8888950765    1.3052584792   -0.2103693818
      5  O         2.7961637240   -0.8919597701    0.2690011038
      6  O         1.7790298131    1.0197418518   -0.7028616159
      7  O        -0.2646976761    1.8819943017    0.9439938721
      8  O        -1.4017947186    1.9697642017   -1.1398064208
      9  C        -0.2139600897    3.3566661656    0.8054131802
     10  C         4.0513963865   -0.1333405421    0.0593046082
     11  C         0.4060124780   -2.3304327821    0.1390697629
     12  C        -0.8008365136   -3.0472520418    0.2232015766
     13  C        -2.0327923416   -2.3666104102    0.1530136719
     14  C        -2.0828195460   -0.9607815415    0.0076619692
     15  H         0.3487668996    3.6544219540   -0.1024960021
     16  H         4.2422832214    0.0478773684   -1.0184025451
     17  H        -2.9728768769   -2.9316784291    0.2165393898
     18  H        -1.2303219185    3.7979627669    0.7516301433
     19  H         0.3058692615    3.7311790574    1.7064263856
     20  H         4.8602593789   -0.7591357981    0.4793484020
     21  H         4.0271290089    0.8456954376    0.5795688969
     22  H        -0.7851665396   -4.1397907375    0.3366368192
     23  H         1.3745292735   -2.8467979016    0.1782103310
     24  C        -3.4357804354   -0.2302755782   -0.0680084325
     25  H        -3.5559371278    0.2541862873   -1.0515128089
     26  H        -3.4988012887    0.5559617436    0.7021438910
     27  H        -4.2641079704   -0.9381033622    0.0817473771
   Point Group: c1    Number of degrees of freedom:    75


   Energy is   -717.954361561

              Constraints and their Current Values
                                        Value     Constraint
   Dihedral:        2   1   3   5      163.600      163.600
   Dihedral:        1   2   4   7      -62.300      -62.300
 Hessian Updated using BFGS Update

 63 Hessian modes will be used to form the next step
  Hessian Eigenvalues:
     0.040963    0.045000    0.045000    0.045001    0.045002    0.045005
     0.045008    0.045010    0.045052    0.045133    0.045393    0.046106
     0.093615    0.094220    0.113891    0.114662    0.116883    0.116949
     0.158335    0.159987    0.159996    0.160000    0.160101    0.161327
     0.163702    0.220699    0.231604    0.234714    0.248978    0.249553
     0.249826    0.249984    0.249998    0.250055    0.252180    0.296792
     0.319500    0.335897    0.342232    0.342647    0.342728    0.342885
     0.343376    0.343839    0.343904    0.344425    0.347322    0.348753
     0.350287    0.350725    0.367213    0.408380    0.411849    0.413587
     0.442507    0.450790    0.457433    0.462421    0.465298    0.508433
     0.537622    0.960162    0.986017

 Minimum Search - Taking Simple RFO Step
 Searching for Lamda that Minimizes Along All modes
 Value Taken    Lamda =  -0.00003602
 Step Taken.  Stepsize is  0.016835

                             Maximum     Tolerance    Cnvgd?
         Gradient           0.001535      0.000300      NO
         Displacement       0.006136      0.001200      NO
         Energy change     -0.000222      0.000001      NO


 New Cartesian Coordinates Obtained by Inverse Iteration

 Displacement from previous Coordinates is:  0.052760
 Adding empirical dispersion correction 
 ----------------------------------------------------------------
 Doing -D3(op) with
 s6 =   1.00000
 s8 =   0.78311
 a1 =   0.30000
 a2 =   4.25000
 n  =  10.00000
 -D3 energy without 3body term =     -0.0279436153 hartrees
 ----------------------------------------------------------------
             Standard Nuclear Orientation (Angstroms)
    I     Atom           X                Y                Z
 ----------------------------------------------------------------
    1      C       0.3806273410    -0.9209868011    -0.0066357699
    2      C      -0.8627476067    -0.2354329401    -0.0669509864
    3      C       1.6771660865    -0.1221880094    -0.1947650901
    4      C      -0.8888970296     1.3050325931    -0.2085490670
    5      O       2.7934846527    -0.8895719514     0.2704458098
    6      O       1.7760737872     1.0232364670    -0.6985953432
    7      O      -0.2622575018     1.8795241882     0.9457442528
    8      O      -1.4013303995     1.9704027605    -1.1367347201
    9      C      -0.2072652975     3.3530648850     0.8035876759
   10      C       4.0469868119    -0.1306328768     0.0576353718
   11      C       0.4062366896    -2.3282842186     0.1409800575
   12      C      -0.7998790387    -3.0465758598     0.2240963250
   13      C      -2.0323792515    -2.3669692615     0.1521143778
   14      C      -2.0837215717    -0.9607336036     0.0074196127
   15      H       0.3602007056     3.6482477949    -0.1023507425
   16      H       4.2360648039     0.0497528332    -1.0205936891
   17      H      -2.9716736725    -2.9333886443     0.2141326103
   18      H      -1.2223518167     3.7971723908     0.7467646226
   19      H       0.3106587994     3.7271787874     1.7056066857
   20      H       4.8561235223    -0.7569596155     0.4759013435
   21      H       4.0245082231     0.8479653333     0.5790045017
   22      H      -0.7830910986    -4.1390646748     0.3375555518
   23      H       1.3748861585    -2.8441706311     0.1819117280
   24      C      -3.4377435285    -0.2323852259    -0.0696100949
   25      H      -3.5568784171     0.2547371635    -1.0519232230
   26      H      -3.5052111832     0.5512525066     0.7028499331
   27      H      -4.2654938121    -0.9415424776     0.0757924320
 ----------------------------------------------------------------
 Molecular Point Group                 C1    NOp =  1
 Largest Abelian Subgroup              C1    NOp =  1
 Nuclear Repulsion Energy =   989.6983650607 hartrees
 There are       55 alpha and       55 beta electrons
 Applying Cartesian multipole field
    Component          Value
    ---------          -----
     (2,0,0)        1.00000E-11
     (0,2,0)        2.00000E-11
     (0,0,2)       -3.00000E-11
 Nucleus-field energy     =     0.0000000391 hartrees
 Requested basis set is STO-3G
 There are 42 shells and 87 basis functions
 A cutoff of  1.0D-12 yielded    764 shell pairs
 There are      3692 function pairs
 Smallest overlap matrix eigenvalue = 1.82E-01
 Guess MOs from SCF MO coefficient file
 Reading MOs from coefficient file
 Reading MOs from coefficient file
 A restricted hybrid HF-DFT SCF calculation will be
 performed using Pulay DIIS extrapolation
 Exchange:     0.2000 Hartree-Fock + 0.0800 Slater + 0.7200 B88
 Correlation:  0.1900 VWN1RPA + 0.8100 LYP
 Using SG-1 standard quadrature grid
 Dispersion:   Grimme D3
 SCF converges when DIIS error is below 1.0E-08
 Geometry optimization detected.  Setting ReadMinima to 0
 Setting SaveMinima to 0
 -------------------------------------------------------
 OpenMP Integral computing Module                
 Release: version 1.0, May 2013, Q-Chem Inc. Pittsburgh 
 -------------------------------------------------------
 -------------------------------------------------------
 OpenMP BLAS3 based DFT computing Module                
 Release: version 1.0, May 2013, Q-Chem Inc. Pittsburgh 
 -------------------------------------------------------
 ---------------------------------------
  Cycle       Energy         DIIS Error
 ---------------------------------------
    1    -717.9557021980      2.15E-04
    2    -717.9543783408      3.15E-05
    3    -717.9543765015      5.15E-05
    4    -717.9543798518      1.01E-05
    5    -717.9543799248      6.26E-06
    6    -717.9543799662      1.34E-06
    7    -717.9543799684      3.41E-07
    8    -717.9543799685      1.22E-07
    9    -717.9543799685      4.49E-08
   10    -717.9543799685      2.85E-08
   11    -717.9543799685      5.83E-09 Convergence criterion met
 ---------------------------------------
 SCF time:  CPU 41.20 s  wall 1.74 s
 SCF   energy in the final basis set = -717.9543799685
 Total energy in the final basis set = -717.9543799685
 
 --------------------------------------------------------------
 
                    Orbital Energies (a.u.)
 --------------------------------------------------------------
 
 Alpha MOs
 -- Occupied --
-18.938 -18.929 -18.875 -18.871 -10.104 -10.100 -10.066 -10.058
-10.028 -10.028 -10.025 -10.020 -10.016 -10.016 -10.014  -1.013
 -1.004  -0.937  -0.930  -0.816  -0.735  -0.720  -0.672  -0.656
 -0.645  -0.587  -0.562  -0.507  -0.494  -0.457  -0.439  -0.425
 -0.414  -0.413  -0.404  -0.387  -0.379  -0.372  -0.368  -0.359
 -0.349  -0.342  -0.330  -0.312  -0.310  -0.296  -0.287  -0.259
 -0.250  -0.197  -0.192  -0.180  -0.170  -0.155  -0.148
 -- Virtual --
  0.044   0.069   0.116   0.137   0.237   0.248   0.273   0.317
  0.338   0.349   0.369   0.386   0.409   0.421   0.423   0.429
  0.430   0.436   0.437   0.441   0.446   0.454   0.461   0.474
  0.543   0.556   0.563   0.586   0.647   0.657   0.754   0.771
 --------------------------------------------------------------
 
          Ground-State Mulliken Net Atomic Charges

     Atom                 Charge (a.u.)
  ----------------------------------------
      1 C                    -0.016268
      2 C                    -0.015384
      3 C                     0.208723
      4 C                     0.213915
      5 O                    -0.167234
      6 O                    -0.210700
      7 O                    -0.166387
      8 O                    -0.208945
      9 C                    -0.128043
     10 C                    -0.127457
     11 C                    -0.074562
     12 C                    -0.076488
     13 C                    -0.076023
     14 C                     0.011167
     15 H                     0.093808
     16 H                     0.089337
     17 H                     0.081145
     18 H                     0.086515
     19 H                     0.088980
     20 H                     0.091179
     21 H                     0.091030
     22 H                     0.083794
     23 H                     0.093164
     24 C                    -0.224967
     25 H                     0.093601
     26 H                     0.085058
     27 H                     0.081042
  ----------------------------------------
  Sum of atomic charges =     0.000000

 -----------------------------------------------------------------
                    Cartesian Multipole Moments
 -----------------------------------------------------------------
    Charge (ESU x 10^10)
                 0.0000
    Dipole Moment (Debye)
         X       0.5308      Y      -0.7477      Z       1.0406
       Tot       1.3870
    Quadrupole Moments (Debye-Ang)
        XX     -69.2524     XY       2.0520     YY     -73.9939
        XZ      -1.5606     YZ       3.9474     ZZ     -83.1086
    Octopole Moments (Debye-Ang^2)
       XXX      39.4314    XXY       0.1595    XYY       1.4265
       YYY      25.8369    XXZ       0.2805    XYZ      -0.7977
       YYZ       9.9976    XZZ      10.3715    YZZ       8.7747
       ZZZ      -9.8159
    Hexadecapole Moments (Debye-Ang^3)
      XXXX   -1881.0815   XXXY     -35.3266   XXYY    -615.9124
      XYYY     -32.9504   YYYY   -1508.4878   XXXZ      -9.5065
      XXYZ       6.0608   XYYZ     -11.5810   YYYZ      12.7836
      XXZZ    -384.6421   XYZZ     -14.4887   YYZZ    -316.0215
      XZZZ     -11.6573   YZZZ      -2.8360   ZZZZ    -188.1154
 -----------------------------------------------------------------
 Calculating analytic gradient of the SCF energy
 Gradient of SCF Energy
            1           2           3           4           5           6
    1  -0.0001857   0.0004432   0.0001034  -0.0010494  -0.0002508  -0.0000496
    2   0.0000407  -0.0003093  -0.0003637   0.0001038  -0.0000249   0.0002681
    3   0.0010033  -0.0018518  -0.0000444   0.0014975   0.0002533  -0.0001501
            7           8           9          10          11          12
    1   0.0007313   0.0000244   0.0002023   0.0004002   0.0000472  -0.0001101
    2  -0.0002457   0.0000997   0.0003902   0.0000781  -0.0000188  -0.0000302
    3  -0.0004897  -0.0002642   0.0001278   0.0000621  -0.0000665  -0.0000068
           13          14          15          16          17          18
    1   0.0000539   0.0000564  -0.0000940  -0.0000058   0.0000061  -0.0000175
    2  -0.0001926   0.0000638   0.0000328  -0.0000033   0.0000047   0.0000122
    3  -0.0001780   0.0002843  -0.0000735  -0.0000230   0.0000287   0.0000491
           19          20          21          22          23          24
    1   0.0000457  -0.0000752  -0.0000483  -0.0000260  -0.0000131  -0.0002257
    2  -0.0000143  -0.0000068   0.0000222  -0.0000208   0.0000054  -0.0000195
    3  -0.0000746   0.0000011  -0.0000330   0.0000044  -0.0000409   0.0000296
           25          26          27
    1  -0.0000461   0.0000537   0.0000296
    2  -0.0000641   0.0001081   0.0000845
    3  -0.0000341  -0.0001117   0.0001010
 Max gradient component =       1.852E-03
 RMS gradient           =       3.533E-04
 Gradient time:  CPU 12.42 s  wall 0.52 s
 Geometry Optimization Parameters
   NAtoms,    NIC,     NZ,  NCons,   NDum,   NFix, NCnnct, MaxDiis
       27     173       0       2       0       0       0       0

 Cartesian Hessian Update
 Hessian Updated using BFGS Update


** CONSTRAINED OPTIMIZATION IN DELOCALIZED INTERNAL COORDINATES **
   Searching for a Minimum

   Optimization Cycle:   5

                       Coordinates (Angstroms)
     ATOM                X               Y               Z
      1  C         0.3806273410   -0.9209868011   -0.0066357699
      2  C        -0.8627476067   -0.2354329401   -0.0669509864
      3  C         1.6771660865   -0.1221880094   -0.1947650901
      4  C        -0.8888970296    1.3050325931   -0.2085490670
      5  O         2.7934846527   -0.8895719514    0.2704458098
      6  O         1.7760737872    1.0232364670   -0.6985953432
      7  O        -0.2622575018    1.8795241882    0.9457442528
      8  O        -1.4013303995    1.9704027605   -1.1367347201
      9  C        -0.2072652975    3.3530648850    0.8035876759
     10  C         4.0469868119   -0.1306328768    0.0576353718
     11  C         0.4062366896   -2.3282842186    0.1409800575
     12  C        -0.7998790387   -3.0465758598    0.2240963250
     13  C        -2.0323792515   -2.3669692615    0.1521143778
     14  C        -2.0837215717   -0.9607336036    0.0074196127
     15  H         0.3602007056    3.6482477949   -0.1023507425
     16  H         4.2360648039    0.0497528332   -1.0205936891
     17  H        -2.9716736725   -2.9333886443    0.2141326103
     18  H        -1.2223518167    3.7971723908    0.7467646226
     19  H         0.3106587994    3.7271787874    1.7056066857
     20  H         4.8561235223   -0.7569596155    0.4759013435
     21  H         4.0245082231    0.8479653333    0.5790045017
     22  H        -0.7830910986   -4.1390646748    0.3375555518
     23  H         1.3748861585   -2.8441706311    0.1819117280
     24  C        -3.4377435285   -0.2323852259   -0.0696100949
     25  H        -3.5568784171    0.2547371635   -1.0519232230
     26  H        -3.5052111832    0.5512525066    0.7028499331
     27  H        -4.2654938121   -0.9415424776    0.0757924320
   Point Group: c1    Number of degrees of freedom:    75


   Energy is   -717.954379969

              Constraints and their Current Values
                                        Value     Constraint
   Dihedral:        2   1   3   5      163.600      163.600
   Dihedral:        1   2   4   7      -62.300      -62.300
 Hessian Updated using BFGS Update

 64 Hessian modes will be used to form the next step
  Hessian Eigenvalues:
     0.027738    0.044634    0.045000    0.045001    0.045001    0.045002
     0.045005    0.045008    0.045033    0.045279    0.045399    0.046997
     0.093226    0.094209    0.113896    0.114558    0.116947    0.117086
     0.157784    0.159875    0.159988    0.159996    0.161165    0.162635
     0.164435    0.221089    0.230327    0.234307    0.247352    0.249210
     0.249560    0.249852    0.249988    0.249998    0.250138    0.256933
     0.304166    0.319763    0.337688    0.342523    0.342648    0.342682
     0.342877    0.343426    0.343775    0.343843    0.344385    0.348406
     0.349036    0.350480    0.350946    0.367094    0.406647    0.410147
     0.414356    0.438533    0.450061    0.456876    0.463696    0.468422
     0.512043    0.537876    0.959487    0.974518

 Minimum Search - Taking Simple RFO Step
 Searching for Lamda that Minimizes Along All modes
 Value Taken    Lamda =  -0.00001319
 Step Taken.  Stepsize is  0.020017

                             Maximum     Tolerance    Cnvgd?
         Gradient           0.000447      0.000300      NO
         Displacement       0.007123      0.001200      NO
         Energy change     -0.000018      0.000001      NO


 New Cartesian Coordinates Obtained by Inverse Iteration

 Displacement from previous Coordinates is:  0.045095
 Adding empirical dispersion correction 
 ----------------------------------------------------------------
 Doing -D3(op) with
 s6 =   1.00000
 s8 =   0.78311
 a1 =   0.30000
 a2 =   4.25000
 n  =  10.00000
 -D3 energy without 3body term =     -0.0279474253 hartrees
 ----------------------------------------------------------------
             Standard Nuclear Orientation (Angstroms)
    I     Atom           X                Y                Z
 ----------------------------------------------------------------
    1      C       0.3803512717    -0.9186840916    -0.0051025297
    2      C      -0.8637037247    -0.2341030394    -0.0645040470
    3      C       1.6766313364    -0.1201814163    -0.1933725144
    4      C      -0.8909394439     1.3054784713    -0.2062310389
    5      O       2.7927082989    -0.8886081891     0.2714429018
    6      O       1.7767606443     1.0246430884    -0.6973018398
    7      O      -0.2633477653     1.8789920379     0.9483087805
    8      O      -1.4050439988     1.9714172368    -1.1326205129
    9      C      -0.2056689304     3.3515585301     0.8037810541
   10      C       4.0460341528    -0.1315769548     0.0545730189
   11      C       0.4067021239    -2.3258589342     0.1441199559
   12      C      -0.7988463217    -3.0450174322     0.2262664895
   13      C      -2.0318990455    -2.3665219452     0.1515776210
   14      C      -2.0841107732    -0.9605038763     0.0067848262
   15      H       0.3684910427     3.6441060096    -0.0987964448
   16      H       4.2326358418     0.0474088961    -1.0243015516
   17      H      -2.9708356258    -2.9337497997     0.2118220908
   18      H      -1.2195989306     3.7973251277     0.7401681937
   19      H       0.3073590296     3.7264081689     1.7083728154
   20      H       4.8557624488    -0.7585484397     0.4709662269
   21      H       4.0269095473     0.8473014531     0.5755409027
   22      H      -0.7811496975    -4.1373855262     0.3403750078
   23      H       1.3756061993    -2.8411502739     0.1869712343
   24      C      -3.4383459994    -0.2335574798    -0.0721344733
   25      H      -3.5547513610     0.2575205936    -1.0528076177
   26      H      -3.5099304618     0.5464789436     0.7036551597
   27      H      -4.2656835019    -0.9445102469     0.0672804568
 ----------------------------------------------------------------
 Molecular Point Group                 C1    NOp =  1
 Largest Abelian Subgroup              C1    NOp =  1
 Nuclear Repulsion Energy =   989.8443829286 hartrees
 There are       55 alpha and       55 beta electrons
 Applying Cartesian multipole field
    Component          Value
    ---------          -----
     (2,0,0)        1.00000E-11
     (0,2,0)        2.00000E-11
     (0,0,2)       -3.00000E-11
 Nucleus-field energy     =     0.0000000391 hartrees
 Requested basis set is STO-3G
 There are 42 shells and 87 basis functions
 A cutoff of  1.0D-12 yielded    764 shell pairs
 There are      3692 function pairs
 Smallest overlap matrix eigenvalue = 1.82E-01
 Guess MOs from SCF MO coefficient file
 Reading MOs from coefficient file
 Reading MOs from coefficient file
[...]
 IR Intens:       10.567                  3.285                 10.035
 Raman Active:       YES                    YES                    YES
               X      Y      Z        X      Y      Z        X      Y      Z
 C         -0.005 -0.008  0.001    0.073  0.005 -0.000    0.225  0.010  0.000
 C          0.003  0.002 -0.000   -0.033  0.057 -0.007   -0.310 -0.054 -0.001
 C          0.012 -0.001  0.001   -0.025 -0.002  0.000   -0.036 -0.023  0.007
 C         -0.001 -0.001 -0.000    0.005 -0.018 -0.007    0.030  0.012 -0.019
 O         -0.002 -0.017  0.005    0.002 -0.000  0.000   -0.005  0.002 -0.001
 O         -0.004  0.006 -0.002    0.003 -0.001  0.000    0.005  0.012 -0.004
 O         -0.000  0.001 -0.001   -0.001  0.004  0.002   -0.003  0.003  0.003
 O          0.000  0.000  0.001    0.001 -0.001  0.003   -0.003 -0.008  0.013
 C         -0.001  0.002 -0.005   -0.002  0.006 -0.001   -0.001  0.000  0.001
 C         -0.007 -0.054  0.015    0.006  0.004 -0.001    0.003  0.001  0.000
 C         -0.003  0.003 -0.000   -0.030 -0.063  0.007   -0.237 -0.174  0.019
 C          0.008  0.003 -0.000   -0.027  0.038 -0.005    0.402  0.071 -0.005
 C         -0.000 -0.006  0.001    0.043 -0.011  0.001   -0.210  0.024 -0.005
 C         -0.003  0.002  0.000   -0.030 -0.067  0.012    0.227  0.125 -0.011
 H          0.049 -0.023  0.045    0.029 -0.029  0.019   -0.004 -0.015 -0.010
 H          0.093  0.625  0.255   -0.028 -0.031 -0.016   -0.002 -0.010 -0.004
 H         -0.017  0.017 -0.003   -0.065  0.148 -0.019   -0.072 -0.199  0.023
 H         -0.032 -0.032  0.049   -0.023 -0.044  0.010    0.000  0.010  0.001
 H          0.007  0.028 -0.014    0.018 -0.011  0.002   -0.009 -0.006  0.004
 H         -0.136 -0.166  0.030   -0.014 -0.018  0.002    0.009  0.005 -0.002
 H          0.119  0.418 -0.530   -0.031 -0.018  0.027   -0.003 -0.006  0.008
 H         -0.028  0.000 -0.000    0.088  0.056 -0.005   -0.529 -0.003 -0.005
 H         -0.004  0.003  0.000    0.101  0.222 -0.026   -0.023  0.336 -0.039
 C         -0.002 -0.002  0.002   -0.032 -0.018  0.013   -0.028 -0.011  0.001
 H         -0.004  0.023  0.011    0.035  0.492  0.189    0.016 -0.064 -0.023
 H          0.020  0.025 -0.026    0.110  0.382 -0.425    0.063 -0.041  0.050
 H          0.018 -0.025 -0.014    0.334 -0.369  0.006   -0.130  0.085 -0.038
 TransDip  -0.079  0.066 -0.014   -0.007  0.047 -0.033   -0.072 -0.071 -0.002

 Mode:                61                     62                     63
 Frequency:      1629.91                1766.46                1787.43
 Force Cnst:      9.0305                21.5748                22.3138
 Red. Mass:       5.7694                11.7352                11.8540
 IR Active:          YES                    YES                    YES
 IR Intens:        9.922                250.127                272.367
 Raman Active:       YES                    YES                    YES
               X      Y      Z        X      Y      Z        X      Y      Z
 C          0.090 -0.259  0.035   -0.008 -0.115  0.019    0.011  0.004 -0.001
 C         -0.079  0.152 -0.018   -0.026  0.040 -0.007   -0.030  0.078 -0.028
 C         -0.018 -0.034  0.012    0.035  0.759 -0.195   -0.010 -0.054  0.014
 C          0.001 -0.019 -0.032    0.029 -0.013  0.047    0.232 -0.384  0.644
 O         -0.003 -0.004  0.001    0.011 -0.051  0.014    0.001  0.004 -0.001
 O          0.008  0.044 -0.012   -0.005 -0.477  0.126    0.001  0.035 -0.012
 O          0.000  0.004  0.004   -0.006 -0.004 -0.006   -0.015  0.008 -0.049
 O          0.005 -0.008  0.020   -0.013  0.010 -0.028   -0.149  0.226 -0.430
 C         -0.001  0.004  0.001    0.001 -0.002 -0.002    0.004 -0.029  0.009
 C         -0.001  0.001 -0.000    0.024  0.023 -0.006   -0.002 -0.002  0.001
 C          0.062  0.281 -0.034   -0.026  0.016 -0.001    0.001 -0.005  0.003
 C          0.058 -0.161  0.021    0.038 -0.003  0.000    0.007 -0.002 -0.000
 C         -0.175  0.308 -0.042   -0.021  0.017 -0.002   -0.013  0.007  0.001
 C          0.058 -0.273  0.036    0.017 -0.015  0.002    0.017 -0.014  0.007
 H          0.001 -0.014 -0.007    0.017 -0.021  0.009   -0.011  0.111  0.090
 H          0.013  0.001  0.001   -0.144  0.028 -0.040    0.011 -0.002  0.004
 H          0.334 -0.402  0.062    0.010 -0.028  0.005    0.017 -0.030  0.004
 H         -0.004 -0.011 -0.008   -0.003 -0.001  0.024    0.042  0.107  0.093
 H          0.002 -0.014  0.008   -0.009  0.013 -0.006   -0.024  0.216 -0.068
 H          0.004  0.005 -0.002   -0.173 -0.171  0.039    0.012  0.012 -0.004
 H          0.009 -0.001 -0.000   -0.145  0.040  0.010    0.010 -0.002 -0.002
 H         -0.025 -0.193  0.027   -0.041 -0.011  0.001   -0.003 -0.004 -0.003
 H         -0.228 -0.338  0.037   -0.052 -0.011  0.002   -0.001 -0.009  0.005
 C         -0.017  0.022 -0.003   -0.003  0.002 -0.000    0.003  0.007 -0.001
 H         -0.046  0.141  0.050    0.002  0.006 -0.000   -0.072 -0.054 -0.004
 H         -0.087  0.101 -0.109    0.008  0.009 -0.003    0.012 -0.020  0.026
 H          0.126 -0.111  0.036    0.012 -0.013 -0.001   -0.029  0.020 -0.047
 TransDip   0.056 -0.082 -0.016    0.000  0.499 -0.088    0.157 -0.176  0.473

 Mode:                64                     65                     66
 Frequency:      3035.04                3050.12                3050.48
 Force Cnst:      5.6247                 5.6434                 5.6430
 Red. Mass:       1.0364                 1.0296                 1.0293
 IR Active:          YES                    YES                    YES
 IR Intens:       18.042                 32.846                 40.692
 Raman Active:       YES                    YES                    YES
               X      Y      Z        X      Y      Z        X      Y      Z
 C         -0.000  0.000 -0.000    0.000 -0.000  0.000    0.000 -0.000  0.000
 C          0.001  0.000 -0.000   -0.000  0.000 -0.000   -0.000  0.000  0.000
 C          0.000  0.000 -0.000   -0.002  0.002 -0.001   -0.001  0.001 -0.000
 C         -0.000  0.000 -0.000    0.000  0.000  0.001   -0.001 -0.001 -0.003
 O         -0.000 -0.000 -0.000    0.003  0.001 -0.000    0.001  0.000 -0.000
 O         -0.000 -0.000  0.000    0.000 -0.001  0.000   -0.000 -0.000  0.000
 O          0.000 -0.000 -0.000   -0.000 -0.001 -0.000    0.000  0.003  0.001
 O          0.000 -0.000  0.000   -0.000  0.000 -0.000    0.000 -0.000  0.001
 C          0.000 -0.000  0.000    0.001 -0.013  0.005   -0.004  0.039 -0.014
 C         -0.000 -0.000  0.000    0.028  0.030 -0.007    0.010  0.010 -0.002
 C         -0.000 -0.000 -0.000    0.000 -0.000  0.000    0.000 -0.000 -0.000
 C         -0.000  0.000 -0.000    0.000  0.000 -0.000   -0.000  0.000 -0.000
 C          0.001  0.000  0.000    0.000  0.000  0.000    0.000  0.000 -0.000
 C          0.000 -0.000  0.000    0.000  0.000  0.000   -0.000  0.000 -0.000
 H          0.001  0.000 -0.001    0.146  0.058 -0.120   -0.430 -0.170  0.353
 H          0.000  0.001 -0.004   -0.048 -0.199  0.565   -0.016 -0.067  0.192
 H         -0.011 -0.007  0.001   -0.000 -0.000  0.000   -0.001 -0.000  0.000
 H         -0.001  0.000 -0.000   -0.186  0.062 -0.071    0.547 -0.181  0.210
 H          0.000  0.000  0.001    0.023  0.047  0.135   -0.068 -0.138 -0.396
 H          0.002 -0.002  0.001   -0.303  0.278 -0.088   -0.103  0.094 -0.030
 H         -0.000  0.003  0.003   -0.006 -0.453 -0.389   -0.002 -0.154 -0.132
 H         -0.000  0.000  0.000    0.000 -0.001  0.000    0.000 -0.001  0.000
 H          0.001 -0.000  0.000   -0.002  0.000 -0.000   -0.000 -0.000 -0.000
 C         -0.041  0.030  0.000   -0.000  0.000 -0.000   -0.000  0.000  0.000
 H          0.078 -0.194  0.523    0.001 -0.001  0.003    0.000 -0.000  0.001
 H          0.067 -0.502 -0.431    0.000 -0.002 -0.002    0.000 -0.003 -0.003
 H          0.335  0.342 -0.095    0.002  0.002 -0.001   -0.000 -0.000  0.000
 TransDip  -0.130  0.034  0.019    0.183 -0.002 -0.016    0.037  0.199  0.024

 Mode:                67                     68                     69
 Frequency:      3090.36                3111.58                3123.14
 Force Cnst:      6.1897                 6.2883                 6.3619
 Red. Mass:       1.1000                 1.1024                 1.1070
 IR Active:          YES                    YES                    YES
 IR Intens:        8.539                 15.300                 17.421
 Raman Active:       YES                    YES                    YES
               X      Y      Z        X      Y      Z        X      Y      Z
 C          0.000 -0.000 -0.000    0.000 -0.000  0.000    0.000 -0.000 -0.000
 C          0.000  0.000  0.000   -0.000 -0.000  0.000    0.000  0.000  0.000
 C         -0.000 -0.000  0.000    0.000 -0.000  0.000   -0.000  0.000  0.000
 C          0.000  0.000 -0.000    0.000 -0.000  0.000   -0.000 -0.000 -0.000
 O          0.000  0.000  0.000   -0.000  0.000 -0.000   -0.000  0.000  0.000
 O         -0.000  0.000 -0.000   -0.000  0.000 -0.000   -0.000  0.000  0.000
 O         -0.000  0.000  0.000   -0.000 -0.000 -0.000    0.000  0.000  0.000
 O          0.000  0.000  0.000   -0.000  0.000 -0.000   -0.000  0.000  0.000
 C         -0.000  0.000 -0.000   -0.000  0.000 -0.000    0.001  0.000 -0.000
 C         -0.000  0.000  0.000   -0.000  0.000 -0.000    0.004 -0.025 -0.091
 C          0.000  0.000 -0.000    0.000  0.000 -0.000   -0.000  0.000  0.000
 C         -0.000 -0.000 -0.000   -0.000 -0.000  0.000    0.000 -0.000  0.000
 C          0.001  0.000 -0.000    0.004  0.003 -0.000   -0.000  0.000 -0.000
 C         -0.000 -0.000 -0.001    0.001 -0.001  0.000   -0.000 -0.000 -0.000
 H         -0.001 -0.000  0.001    0.000  0.000 -0.001   -0.005 -0.002  0.004
 H          0.000  0.000 -0.000   -0.000 -0.000  0.000   -0.050 -0.248  0.652
 H         -0.006 -0.003  0.000   -0.043 -0.027  0.003    0.000  0.000 -0.000
 H          0.002 -0.001  0.001    0.004 -0.001  0.002   -0.007  0.002 -0.003
 H         -0.000 -0.000 -0.001    0.000  0.000  0.001   -0.000 -0.001 -0.001
 H          0.000 -0.000  0.000    0.000 -0.000  0.000   -0.002 -0.002 -0.019
 H          0.000 -0.000 -0.000   -0.000 -0.000 -0.000    0.002  0.549  0.447
 H         -0.000  0.001 -0.000   -0.001  0.008 -0.001   -0.000  0.000 -0.000
 H          0.000 -0.000 -0.000   -0.000  0.000 -0.000    0.000 -0.000 -0.000
 C         -0.010 -0.030 -0.086   -0.042 -0.076  0.032   -0.000 -0.000 -0.000
 H          0.105 -0.266  0.642   -0.074  0.139 -0.399    0.000 -0.000  0.000
 H         -0.079  0.532  0.434   -0.037  0.185  0.179   -0.000  0.000  0.000
 H          0.098  0.094 -0.046    0.599  0.592 -0.168    0.000  0.000 -0.000
 TransDip  -0.013 -0.054 -0.075   -0.086 -0.088  0.023    0.006 -0.036 -0.129

 Mode:                70                     71                     72
 Frequency:      3126.24                3156.30                3157.04
 Force Cnst:      6.3757                 6.4930                 6.4971
 Red. Mass:       1.1072                 1.1062                 1.1064
 IR Active:          YES                    YES                    YES
 IR Intens:       13.563                 14.208                 13.913
 Raman Active:       YES                    YES                    YES
               X      Y      Z        X      Y      Z        X      Y      Z
 C          0.000  0.000 -0.000    0.000 -0.000  0.000    0.000 -0.000 -0.000
 C         -0.000 -0.000  0.000    0.000  0.000  0.000    0.000  0.000  0.000
 C         -0.000 -0.000  0.000    0.001  0.001 -0.000   -0.000  0.000 -0.000
 C          0.000  0.000 -0.000    0.000 -0.000  0.000   -0.000  0.001 -0.001
 O         -0.000  0.000 -0.000    0.000 -0.000  0.000    0.000 -0.000  0.000
 O          0.000  0.000 -0.000   -0.000 -0.000  0.000    0.000 -0.000  0.000
 O          0.000  0.000  0.000   -0.000  0.000 -0.000    0.000  0.000  0.000
 O          0.000 -0.000 -0.000   -0.000  0.000 -0.000    0.000 -0.000  0.000
 C         -0.094 -0.001  0.012    0.000  0.000  0.001   -0.011 -0.009 -0.094
 C         -0.000 -0.000 -0.001   -0.051  0.076 -0.023   -0.001  0.001 -0.000
 C         -0.000 -0.000 -0.000   -0.000  0.000 -0.000    0.000 -0.000 -0.000
 C          0.000  0.000 -0.000    0.000 -0.000  0.000    0.000  0.000 -0.000
 C         -0.000 -0.000 -0.000    0.000  0.000 -0.000   -0.000 -0.000  0.000
 C          0.000 -0.000 -0.000    0.000 -0.000  0.000   -0.000 -0.000 -0.000
 H          0.508  0.208 -0.442    0.004  0.001 -0.003   -0.261 -0.101  0.196
 H         -0.001 -0.003  0.007   -0.032 -0.090  0.295   -0.001 -0.002  0.005
 H          0.000  0.000 -0.000   -0.002 -0.001  0.000    0.003  0.002 -0.000
 H          0.619 -0.208  0.254   -0.005  0.002 -0.002    0.253 -0.083  0.080
 H         -0.010  0.017  0.051   -0.002 -0.005 -0.013    0.139  0.289  0.833
 H          0.001 -0.001  0.000    0.646 -0.593  0.188    0.010 -0.010  0.003
 H          0.000  0.005  0.004   -0.010 -0.219 -0.206   -0.000 -0.003 -0.003
 H          0.000 -0.000  0.000   -0.000  0.004 -0.001    0.000 -0.001  0.000
 H          0.000 -0.000 -0.000    0.004 -0.002  0.000   -0.000  0.000 -0.000
 C          0.000  0.000 -0.000    0.000  0.000 -0.000    0.000  0.000 -0.000
 H          0.000 -0.000  0.001    0.000 -0.000  0.000    0.000 -0.000  0.001
 H          0.000 -0.001 -0.001    0.000 -0.000 -0.000    0.000 -0.000 -0.000
 H         -0.002 -0.002  0.001   -0.001 -0.000  0.000   -0.001 -0.001  0.000
 TransDip  -0.117  0.006  0.012   -0.089  0.078 -0.023   -0.019 -0.038 -0.112

 Mode:                73                     74                     75
 Frequency:      3165.08                3184.60                3221.05
 Force Cnst:      6.4217                 6.5339                 6.6803
 Red. Mass:       1.0880                 1.0935                 1.0928
 IR Active:          YES                    YES                    YES
 IR Intens:        7.101                 15.407                  2.047
 Raman Active:       YES                    YES                    YES
               X      Y      Z        X      Y      Z        X      Y      Z
 C          0.000 -0.000 -0.000   -0.000  0.000  0.000   -0.000 -0.003  0.000
 C          0.000  0.000  0.000    0.000  0.000 -0.000    0.001 -0.000  0.000
 C         -0.000 -0.000  0.000    0.000  0.000 -0.000   -0.001  0.001 -0.000
 C         -0.000  0.000 -0.000   -0.000  0.000 -0.000   -0.000 -0.000  0.000
 O          0.000  0.000 -0.000   -0.000 -0.000  0.000   -0.000 -0.001  0.000
 O         -0.000  0.000  0.000   -0.000 -0.000  0.000    0.000  0.000 -0.000
 O          0.000 -0.000 -0.000    0.000 -0.000 -0.000   -0.000  0.000  0.000
 O          0.000 -0.000  0.000    0.000 -0.000  0.000   -0.000  0.000 -0.000
 C          0.000  0.000  0.000    0.000  0.000  0.000    0.000 -0.000 -0.000
 C         -0.000  0.000 -0.000    0.000 -0.000  0.000    0.000 -0.000  0.000
 C          0.004 -0.003  0.000   -0.012  0.008 -0.001   -0.078  0.035 -0.005
 C         -0.001  0.039 -0.005    0.008 -0.075  0.009    0.001  0.019 -0.002
 C         -0.061 -0.044  0.005   -0.036 -0.022  0.002    0.003  0.001 -0.000
 C         -0.001  0.002 -0.000   -0.001  0.002 -0.000    0.000 -0.000  0.000
 H          0.001  0.000 -0.000   -0.000 -0.000  0.000   -0.000 -0.000  0.000
 H         -0.000 -0.000  0.001   -0.000 -0.000 -0.000   -0.000  0.000 -0.000
 H          0.716  0.503 -0.054    0.385  0.265 -0.028   -0.025 -0.016  0.002
 H         -0.001  0.000 -0.000    0.000 -0.000  0.000   -0.000  0.000 -0.000
 H         -0.001 -0.001 -0.003   -0.000 -0.000 -0.001    0.000  0.000  0.000
 H          0.003 -0.002  0.001   -0.003  0.003 -0.001   -0.003  0.003 -0.001
 H         -0.000 -0.001 -0.001   -0.000 -0.000  0.000   -0.000 -0.000  0.000
 H          0.036 -0.462  0.058   -0.075  0.849 -0.107    0.013 -0.190  0.024
 H         -0.060  0.028 -0.004    0.168 -0.080  0.011    0.890 -0.400  0.053
 C         -0.003 -0.003  0.001   -0.001 -0.001  0.000    0.000 -0.000  0.000
 H         -0.001  0.003 -0.009    0.000  0.001 -0.002   -0.000  0.000 -0.001
 H         -0.000  0.007  0.006    0.001  0.001  0.001    0.000  0.001  0.000
 H          0.036  0.031 -0.009    0.014  0.012 -0.004   -0.000 -0.000  0.000
 TransDip  -0.085 -0.010 -0.000   -0.040 -0.118  0.015   -0.004  0.045 -0.004

 STANDARD THERMODYNAMIC QUANTITIES AT   298.15 K  AND     1.00 ATM

   This Molecule has  0 Imaginary Frequencies
   Zero point vibrational energy:      133.292 kcal/mol

   Atom    1 Element C  Has Mass   12.00000
   Atom    2 Element C  Has Mass   12.00000
   Atom    3 Element C  Has Mass   12.00000
   Atom    4 Element C  Has Mass   12.00000
   Atom    5 Element O  Has Mass   15.99491
   Atom    6 Element O  Has Mass   15.99491
   Atom    7 Element O  Has Mass   15.99491
   Atom    8 Element O  Has Mass   15.99491
   Atom    9 Element C  Has Mass   12.00000
   Atom   10 Element C  Has Mass   12.00000
   Atom   11 Element C  Has Mass   12.00000
   Atom   12 Element C  Has Mass   12.00000
   Atom   13 Element C  Has Mass   12.00000
   Atom   14 Element C  Has Mass   12.00000
   Atom   15 Element H  Has Mass    1.00783
   Atom   16 Element H  Has Mass    1.00783
   Atom   17 Element H  Has Mass    1.00783
   Atom   18 Element H  Has Mass    1.00783
   Atom   19 Element H  Has Mass    1.00783
   Atom   20 Element H  Has Mass    1.00783
   Atom   21 Element H  Has Mass    1.00783
   Atom   22 Element H  Has Mass    1.00783
   Atom   23 Element H  Has Mass    1.00783
   Atom   24 Element C  Has Mass   12.00000
   Atom   25 Element H  Has Mass    1.00783
   Atom   26 Element H  Has Mass    1.00783
   Atom   27 Element H  Has Mass    1.00783
   Molecular Mass:   208.073600 amu
   Principal axes and moments of inertia in amu*Bohr^2:
                             1           2           3
    Eigenvalues --     2454.36913  3112.26169  5138.68857
          X               0.99986     0.01654    -0.00185
          Y              -0.01653     0.99982     0.00978
          Z               0.00201    -0.00975     0.99995
   Rotational Symmetry Number is   1
   The Molecule is an Asymmetric Top
   Translational Enthalpy:        0.889 kcal/mol
   Rotational Enthalpy:           0.889 kcal/mol
   Vibrational Enthalpy:        141.065 kcal/mol
   gas constant (RT):             0.592 kcal/mol
   Translational Entropy:        41.902  cal/mol.K
   Rotational Entropy:           32.040  cal/mol.K
   Vibrational Entropy:          51.933  cal/mol.K

   Total Enthalpy:              143.435 kcal/mol
   Total Entropy:               125.875  cal/mol.K
Archival summary:
1\1\nid01147\FREQ\ProcedureUnspecified\BasisUnspecified\41112\junteng\WedOct420:07:432017WedOct420:07:432017\0\\#,FREQ,ProcedureUnspecified,BasisUnspecified,\\0,1\O\C,1,1.34343\O,2,1.20538,1,124.663\C,1,1.4402,2,115.642,3,-9.74707,0\H,4,1.08768,1,105.423,2,179.433,0\H,4,1.09084,1,110.687,2,59.5737,0\H,4,1.0909,1,109.471,2,-61.4038,0\C,2,1.50486,1,111.06,3,-175.62,0\C,8,1.405,2,117.796,1,103.315,0\C,9,1.39751,8,118.453,2,179.808,0\H,10,1.08503,9,118.93,8,179.622,0\C,10,1.39211,9,121.405,8,-0.478366,0\H,12,1.084,10,120.042,9,-179.824,0\C,12,1.38825,10,119.874,9,-0.0175033,0\H,14,1.08089,12,120.667,10,-179.426,0\C,14,1.40021,12,120.079,10,0.281168,0\C,16,1.49133,14,120.502,12,-177.981,0\O,17,1.20992,16,124.887,14,170.56,0\O,17,1.34999,16,112.211,14,-8.7525,0\C,19,1.43817,17,115.974,16,178.491,0\H,20,1.08776,19,105.336,17,-179.347,0\H,20,1.09091,19,110.441,17,61.1528,0\H,20,1.091,19,110.441,17,-59.8008,0\C,9,1.51007,8,121.334,2,0.127768,0\H,24,1.09117,9,110.728,8,-172.477,0\H,24,1.09298,9,110.878,8,67.1534,0\H,24,1.09365,9,111.555,8,-52.1731,0\\\@

 Total job time:  5824.44s(wall), 30949.64s(cpu) 
 Wed Oct  4 20:07:44 2017

        *************************************************************
        *                                                           *
        *  Thank you very much for using Q-Chem.  Have a nice day.  *
        *                                                           *
        *************************************************************


