nid03057 10.128.12
Q-Chem Developer Version! Running on 10.128.12.*
                  Welcome to Q-Chem
     A Quantum Leap Into The Future Of Chemistry


 Q-Chem 5.0, Q-Chem, Inc., Pleasanton, CA (2017)

 Yihan Shao,  Zhengting Gan,  E. Epifanovsky,  A. T. B. Gilbert,  M. Wormit,  
 J. Kussmann,  A. W. Lange,  A. Behn,  Jia Deng,  Xintian Feng,  D. Ghosh,  
 M. Goldey,  P. R. Horn,  L. D. Jacobson,  I. Kaliman,  T. Kus,  A. Landau,  
 Jie Liu,  E. I. Proynov,  R. M. Richard,  R. P. Steele,  E. J. Sundstrom,  
 H. L. Woodcock III,  P. M. Zimmerman,  D. Zuev,  B. Albrecht,  E. Alguire,  
 S. A. Baeppler,  Z. Benda,  Y. A. Bernard,  E. J. Berquist,  K. B. Bravaya,  
 D. Casanova,  Chun-Min Chang,  Yunqing Chen,  A. Chien,  K. D. Closser,  
 M. P. Coons,  S. Dasgupta,  M. Diedenhofen,  Hainam Do,  R. G. Edgar,  
 Po-Tung Fang,  S. Fatehi,  Qingguo Feng,  Qinghui Ge,  A. Ghysels,  
 J. Gomes,  J. Gonthier,  A. Gunina,  M. W. D. Hanson-Heine,  
 P. H. P. Harbach,  A. W. Hauser,  J. E. Herr,  E. G. Hohenstein,  
 Z. C. Holden,  Kerwin Hui,  T.-C. Jagau,  Hyunjun Ji,  B. Kaduk,  
 K. Khistyaev,  Jaehoon Kim,  P. Klunzinger,  K. Koh,  D. Kosenkov,  
 T. Kowalczyk,  C. M. Krauter,  A. Kunitsa,  Ka Un Lao,  A. Laurent,  
 K. V. Lawler,  Joonho Lee,  D. Lefrancois,  S. Lehtola,  D. S. Levine,  
 Yi-Pei Li,  You-Sheng Lin,  Fenglai Liu,  E. Livshits,  A. Luenser,  
 P. Manohar,  E. Mansoor,  S. F. Manzer,  Shan-Ping Mao,  Yuezhi Mao,  
 N. Mardirossian,  A. V. Marenich,  L. A. Martinez-Martinez,  S. A. Maurer,  
 N. J. Mayhall,  S. C. McKenzie,  J.-M. Mewes,  A. F. Morrison,  K. Nanda,  
 T. S. Nguyen-Beck,  R. Olivares-Amaya,  J. A. Parkhill,  T. M. Perrine,  
 F. Plasser,  S. Prager,  A. Prociuk,  D. R. Rehn,  F. Rob,  M. Schneider,  
 N. Sergueev,  S. M. Sharada,  S. Sharma,  D. W. Small,  T. Stauch,  
 T. Stein,  Yu-Chuan Su,  A. J. W. Thom,  T. Tsuchimochi,  L. Vogt,  
 O. Vydrov,  M. A. Watson,  J. Wenzel,  M. de Wergifosse,  T. A. Wesolowski,  
 A. White,  J. Witte,  A. Yamada,  Jun Yang,  K. Yao,  S. Yeganeh,  
 S. R. Yost,  Zhi-Qiang You,  A. Zech,  Igor Ying Zhang,  Xing Zhang,  
 Yan Zhao,  Ying Zhu,  B. R. Brooks,  G. K. L. Chan,  C. J. Cramer,  
 M. S. Gordon,  W. J. Hehre,  A. Klamt,  M. W. Schmidt,  C. D. Sherrill,  
 D. G. Truhlar,  A. Aspuru-Guzik,  R. Baer,  A. T. Bell,  N. A. Besley,  
 Jeng-Da Chai,  A. Dreuw,  B. D. Dunietz,  T. R. Furlani,  Chao-Ping Hsu,  
 Yousung Jung,  Jing Kong,  D. S. Lambrecht,  WanZhen Liang,  C. Ochsenfeld,  
 V. A. Rassolov,  L. V. Slipchenko,  J. E. Subotnik,  T. Van Voorhis,  
 J. M. Herbert,  A. I. Krylov,  P. M. W. Gill,  M. Head-Gordon

 Contributors to earlier versions of Q-Chem not listed above: 
 R. D. Adamson,  B. Austin,  J. Baker,  G. J. O. Beran,  K. Brandhorst,  
 S. T. Brown,  E. F. C. Byrd,  A. K. Chakraborty,  C.-L. Cheng,  
 Siu Hung Chien,  D. M. Chipman,  D. L. Crittenden,  H. Dachsel,  
 R. A. DiStasio Jr.,  R. J. Doerksen,  A. D. Dutoi,  L. Fusti-Molnar,  
 W. A. Goddard III,  A. Golubeva-Zadorozhnaya,  S. R. Gwaltney,  G. Hawkins,  
 A. Heyden,  S. Hirata,  G. Kedziora,  F. J. Keil,  C. Kelley,  Jihan Kim,  
 R. A. King,  R. Z. Khaliullin,  P. P. Korambath,  W. Kurlancheek,  
 A. M. Lee,  M. S. Lee,  S. V. Levchenko,  Ching Yeh Lin,  D. Liotard,  
 R. C. Lochan,  I. Lotan,  P. E. Maslen,  N. Nair,  D. P. O'Neill,  
 D. Neuhauser,  E. Neuscamman,  C. M. Oana,  R. Olson,  B. Peters,  
 R. Peverati,  P. A. Pieniazek,  Y. M. Rhee,  J. Ritchie,  M. A. Rohrdanz,  
 E. Rosta,  N. J. Russ,  H. F. Schaefer III,  N. E. Schultz,  N. Shenvi,  
 A. C. Simmonett,  A. Sodt,  D. Stuck,  K. S. Thanthiriwatte,  V. Vanovschi,  
 Tao Wang,  A. Warshel,  C. F. Williams,  Q. Wu,  X. Xu,  W. Zhang

 Please cite Q-Chem as follows:
 Y. Shao et al., Mol. Phys. 113, 184-215 (2015)
 DOI: 10.1080/00268976.2014.952696

 Q-Chem 5.0.0 for Intel X86 EM64T Linux

 Parts of Q-Chem use Armadillo 5.200.1 (Boston Tea Smuggler).
 http://arma.sourceforge.net/

 Q-Chem begins on Wed Oct  4 18:26:25 2017  

Host: nid03057
0

     Scratch files written to /global/cscratch1/sd/junteng/scratch/18/opt_11n11o-.save//

Checking the input file for inconsistencies... 	...done.

--------------------------------------------------------------
User input:
--------------------------------------------------------------
$molecule
0  1
C    0.304  -2.425   0.241
C   -0.187  -2.670   1.539
C    0.664  -1.037  -0.131
C   -0.223  -1.586   2.547
O    1.892  -1.027  -0.706
O   -0.050  -0.071   0.073
O    1.036  -1.102   2.698
O   -1.208  -1.281   3.197
C    1.131  -0.051   3.659
C    2.346   0.277  -1.069
C    0.337  -3.468  -0.713
C   -0.078  -4.750  -0.324
C   -0.556  -4.992   0.965
C   -0.619  -3.961   1.912
H    0.496   0.792   3.371
H    1.683   0.717  -1.820
H   -0.885  -5.997   1.223
H    0.862  -0.417   4.655
H    2.169   0.291   3.685
H    3.345   0.180  -1.503
H    2.413   0.921  -0.186
H   -0.050  -5.576  -1.034
C   -1.153  -4.262   3.286
C    0.800  -3.263  -2.130
H    0.377  -2.346  -2.553
H    0.472  -4.085  -2.776
H    1.893  -3.221  -2.170
H   -2.134  -3.796   3.422
H   -0.464  -3.904   4.057
H   -1.273  -5.340   3.441
$end


$opt
CONSTRAINT
tors    2    1    3    5    135.2
tors    1    2    4    7    -62.3
ENDCONSTRAINT
$end

$rem
JOBTYPE                   OPT
METHOD                    B3LYP
DFT_D                     D3_OP
BASIS                     STO-3G
GEOM_OPT_MAX_CYCLES       500
SYMMETRY                  False
THRESH                    12
SCF_CONVERGENCE           8
MAX_SUB_FILE_NUM          128
MEM_STATIC                400
MEM_TOTAL                 4000
$end

--------------------------------------------------------------
 Adding empirical dispersion correction 
 ----------------------------------------------------------------
 Doing -D3(op) with
 s6 =   1.00000
 s8 =   0.78311
 a1 =   0.30000
 a2 =   4.25000
 n  =  10.00000
 -D3 energy without 3body term =     -0.0331083887 hartrees
 ----------------------------------------------------------------
             Standard Nuclear Orientation (Angstroms)
    I     Atom           X                Y                Z
 ----------------------------------------------------------------
    1      C       0.4125011125    -0.6355076896    -0.1241194854
    2      C      -0.9199718424    -0.1775825584    -0.0970935988
    3      C       1.4909203662     0.3367582974    -0.4177838583
    4      C      -1.2227722681     1.2652754643    -0.2345295060
    5      O       2.4794071129     0.2069212582     0.5013164054
    6      O       1.4599007613     1.1281261782    -1.3437118584
    7      O      -0.5671603921     1.9341318938     0.7477851812
    8      O      -2.0192894914     1.7300109239    -1.0316062059
    9      C      -0.7911410252     3.3435492204     0.7249274575
   10      C       3.5538033154     1.1302705963     0.3241165186
   11      C       0.6908325096    -2.0150972909     0.0112251320
   12      C      -0.3765806243    -2.9000235158     0.2224235647
   13      C      -1.6950140119    -2.4427633611     0.2572883515
   14      C      -1.9865449822    -1.0814074782     0.0977300441
   15      H      -0.4624112412     3.7697958433    -0.2274740049
   16      H       4.0453282984     0.9641147078    -0.6391930950
   17      H      -2.4970302573    -3.1634910569     0.4061222542
   18      H      -1.8474376543     3.5666794906     0.9059890877
   19      H      -0.2002982988     3.7931790170     1.5273126011
   20      H       4.2838919982     0.9582831261     1.1198280401
   21      H       3.1925407862     2.1609409489     0.4023597877
   22      H      -0.1906002296    -3.9666582263     0.3443320837
   23      C      -3.4222635693    -0.6326602424     0.1288918324
   24      C       2.0849910947    -2.5767940219    -0.0602005081
   25      H       2.6449814024    -2.1343937269    -0.8905256458
   26      H       2.0671057384    -3.6580417916    -0.2367433488
   27      H       2.6144009167    -2.3996751371     0.8812702249
   28      H      -3.7454857248    -0.3261374563    -0.8709002559
   29      H      -3.5543120453     0.1968300833     0.8302013215
   30      H      -4.0860980650    -1.4390523749     0.4598971058
 ----------------------------------------------------------------
 Molecular Point Group                 C1    NOp =  1
 Largest Abelian Subgroup              C1    NOp =  1
 Nuclear Repulsion Energy =  1141.1730988225 hartrees
 There are       59 alpha and       59 beta electrons
 Requested basis set is STO-3G
 There are 46 shells and 94 basis functions

 Total QAlloc Memory Limit   4000 MB
 Mega-Array Size       392 MB
 MEM_STATIC part       400 MB
 A cutoff of  1.0D-12 yielded    921 shell pairs
 There are      4311 function pairs
 
 -------------------------------------------------------
 OpenMP Integral Computing Module                       
 Release: version 1.0, May 2013, Q-Chem Inc. Pittsburgh 
 -------------------------------------------------------
 Integral Job Info:
 Integral job number is                      11
 Integral operator is                         1
 short-range coefficients                     0
 long-range coefficients              100000000
 Omega coefficients                           0
 if combine SR and LR in K                    0
 Integral screening is                        0
 Integral computing path is                   2
 max size of driver memory is            800000
 size of driver memory is                 45569
 size of scratch memory is               945100
 max col of scratch BK array                289
 max len of scratch array in speh3           22
 max len of scratch index in speh4            8
 max int batch size is                      520
 min int batch size is                       52
 fixed nKL is                                52
 max L of basis functions is                  1
 order of int derivative is                   0
 number of shells is                         46
 number of basis is                          94
 number of cartesian basis is                94
 number of contracted shell pairs           921
 number of primitive shell pairs           4930
 maxK2 (contraction) of shell pair            9
 max number of K2 of shell pair               1
 max number of CS2 of shell pair            151
 max number of PS2 of shell pair            660
 mem total for path MDJ                   29642
 -------------------------------------------------------
 Smallest overlap matrix eigenvalue = 1.76E-01

 Scale SEOQF with 1.000000e-01/1.000000e-01/1.000000e+00

 Standard Electronic Orientation quadrupole field applied
 Nucleus-field energy     =    -0.0000000013 hartrees
 Guess from superposition of atomic densities
 Warning:  Energy on first SCF cycle will be non-variational
 A restricted hybrid HF-DFT SCF calculation will be
 performed using Pulay DIIS extrapolation
 Exchange:     0.2000 Hartree-Fock + 0.0800 Slater + 0.7200 B88
 Correlation:  0.1900 VWN1RPA + 0.8100 LYP
 Using SG-1 standard quadrature grid
 Dispersion:   Grimme D3
 SCF converges when DIIS error is below 1.0E-08
 -------------------------------------------------------
 OpenMP Integral computing Module                
 Release: version 1.0, May 2013, Q-Chem Inc. Pittsburgh 
 -------------------------------------------------------
 -------------------------------------------------------
 OpenMP BLAS3 based DFT computing Module                
 Release: version 1.0, May 2013, Q-Chem Inc. Pittsburgh 
 -------------------------------------------------------
 ---------------------------------------
  Cycle       Energy         DIIS Error
 ---------------------------------------
    1    -756.4854003916      1.14E-01
    2    -756.5487627268      1.27E-02
    3    -755.4707920431      3.40E-02
    4    -756.7513971877      4.53E-03
    5    -756.7739817500      1.66E-03
    6    -756.7772694929      3.92E-04
    7    -756.7774746141      1.05E-04
    8    -756.7774914576      3.18E-05
    9    -756.7774924185      1.90E-05
   10    -756.7774928824      3.60E-06
   11    -756.7774928987      8.95E-07
   12    -756.7774928997      2.23E-07
   13    -756.7774928998      8.13E-08
   14    -756.7774928998      3.01E-08
   15    -756.7774928998      6.43E-09 Convergence criterion met
 ---------------------------------------
 SCF time:  CPU 91.36 s  wall 4.09 s
 SCF   energy in the final basis set = -756.7774928998
 Total energy in the final basis set = -756.7774928998
 
 --------------------------------------------------------------
 
                    Orbital Energies (a.u.)
 --------------------------------------------------------------
 
 Alpha MOs
 -- Occupied --
-18.949 -18.946 -18.868 -18.867 -10.115 -10.112 -10.075 -10.072
-10.020 -10.019 -10.017 -10.016 -10.015 -10.013 -10.004 -10.003
 -1.048  -1.042  -0.958  -0.955  -0.820  -0.752  -0.730  -0.692
 -0.683  -0.672  -0.622  -0.590  -0.562  -0.506  -0.500  -0.461
 -0.453  -0.447  -0.432  -0.425  -0.415  -0.398  -0.392  -0.385
 -0.382  -0.369  -0.357  -0.350  -0.346  -0.339  -0.326  -0.321
 -0.309  -0.293  -0.287  -0.250  -0.248  -0.197  -0.184  -0.181
 -0.180  -0.152  -0.148
 -- Virtual --
  0.062   0.077   0.130   0.142   0.242   0.288   0.309   0.353
  0.372   0.389   0.394   0.406   0.410   0.436   0.440   0.445
  0.446   0.452   0.455   0.457   0.460   0.468   0.471   0.475
  0.484   0.492   0.504   0.577   0.590   0.602   0.627   0.702
  0.709   0.786   0.800
 --------------------------------------------------------------
 
          Ground-State Mulliken Net Atomic Charges

     Atom                 Charge (a.u.)
  ----------------------------------------
      1 C                    -0.020315
      2 C                    -0.018928
      3 C                     0.235748
      4 C                     0.236538
      5 O                    -0.181275
      6 O                    -0.229574
      7 O                    -0.184253
      8 O                    -0.224009
      9 C                    -0.127614
     10 C                    -0.126341
     11 C                     0.009809
     12 C                    -0.080336
     13 C                    -0.080433
     14 C                     0.010066
     15 H                     0.096676
     16 H                     0.093049
     17 H                     0.079304
     18 H                     0.092734
     19 H                     0.094731
     20 H                     0.096134
     21 H                     0.093638
     22 H                     0.078551
     23 C                    -0.231252
     24 C                    -0.229602
     25 H                     0.082934
     26 H                     0.080995
     27 H                     0.092446
     28 H                     0.095901
     29 H                     0.084121
     30 H                     0.080559
  ----------------------------------------
  Sum of atomic charges =    -0.000000

 -----------------------------------------------------------------
                    Cartesian Multipole Moments
 -----------------------------------------------------------------
    Charge (ESU x 10^10)
                -0.0000
    Dipole Moment (Debye)
         X       1.2962      Y      -0.1010      Z       1.7364
       Tot       2.1692
    Quadrupole Moments (Debye-Ang)
        XX     -77.8750     XY       2.5850     YY     -77.1677
        XZ      -2.0609     YZ       4.6538     ZZ     -90.4602
    Octopole Moments (Debye-Ang^2)
       XXX      31.3988    XXY       6.2045    XYY       3.2220
       YYY      33.1978    XXZ       7.9534    XYZ      -0.8801
       YYZ      11.8410    XZZ       4.7944    YZZ       7.2816
       ZZZ      -1.5429
    Hexadecapole Moments (Debye-Ang^3)
      XXXX   -1962.7992   XXXY      47.3519   XXYY    -646.4083
      XYYY     -13.2508   YYYY   -1735.6892   XXXZ      -1.7022
      XXYZ      17.5216   XYYZ      -9.7525   YYYZ      13.7299
      XXZZ    -388.8525   XYZZ      -6.2694   YYZZ    -361.9148
      XZZZ       9.5993   YZZZ       1.8299   ZZZZ    -235.9432
 -----------------------------------------------------------------
 Calculating analytic gradient of the SCF energy
 Gradient of SCF Energy
            1           2           3           4           5           6
    1   0.0213257  -0.0080944   0.0219533   0.0038728  -0.0213627  -0.0049191
    2   0.0280999   0.0335195   0.0130442   0.0252676   0.0316096  -0.0513407
    3  -0.0060298  -0.0071836  -0.0015978   0.0068760  -0.0526758   0.0521430
            7           8           9          10          11          12
    1  -0.0435928   0.0411236   0.0034144  -0.0167356   0.0111495   0.0041761
    2   0.0026304  -0.0357710  -0.0228437  -0.0142570   0.0022105   0.0017290
    3  -0.0483522   0.0435054  -0.0000375   0.0032563  -0.0024467   0.0009026
           13          14          15          16          17          18
    1  -0.0031860  -0.0059502   0.0008837  -0.0064515   0.0072787   0.0118702
    2   0.0033800   0.0100336  -0.0081916  -0.0041587   0.0033181  -0.0067733
    3  -0.0007584   0.0006345   0.0113512   0.0120997  -0.0015351   0.0021588
           19          20          21          22          23          24
    1  -0.0064546  -0.0051214   0.0007536  -0.0036346   0.0171200  -0.0151163
    2  -0.0018106   0.0037889  -0.0128389   0.0064391  -0.0027253   0.0083908
    3  -0.0085387  -0.0084767   0.0036917  -0.0000443  -0.0037533   0.0048797
           25          26          27          28          29          30
    1  -0.0053769   0.0027466  -0.0067816   0.0030568   0.0020212   0.0000315
    2  -0.0049794   0.0040361  -0.0027634  -0.0060541  -0.0076737   0.0046841
    3   0.0005309  -0.0013090  -0.0034106   0.0044744  -0.0000072  -0.0003474
 Max gradient component =       5.268E-02
 RMS gradient           =       1.699E-02
 Gradient time:  CPU 19.23 s  wall 0.82 s
 Geometry Optimization Parameters
   NAtoms,    NIC,     NZ,  NCons,   NDum,   NFix, NCnnct, MaxDiis
       30     194       0       2       0       0       0       0


** CONSTRAINED OPTIMIZATION IN DELOCALIZED INTERNAL COORDINATES **
   Searching for a Minimum

   Optimization Cycle:   1

                       Coordinates (Angstroms)
     ATOM                X               Y               Z
      1  C         0.4125011125   -0.6355076896   -0.1241194854
      2  C        -0.9199718424   -0.1775825584   -0.0970935988
      3  C         1.4909203662    0.3367582974   -0.4177838583
      4  C        -1.2227722681    1.2652754643   -0.2345295060
      5  O         2.4794071129    0.2069212582    0.5013164054
      6  O         1.4599007613    1.1281261782   -1.3437118584
      7  O        -0.5671603921    1.9341318938    0.7477851812
      8  O        -2.0192894914    1.7300109239   -1.0316062059
      9  C        -0.7911410252    3.3435492204    0.7249274575
     10  C         3.5538033154    1.1302705963    0.3241165186
     11  C         0.6908325096   -2.0150972909    0.0112251320
     12  C        -0.3765806243   -2.9000235158    0.2224235647
     13  C        -1.6950140119   -2.4427633611    0.2572883515
     14  C        -1.9865449822   -1.0814074782    0.0977300441
     15  H        -0.4624112412    3.7697958433   -0.2274740049
     16  H         4.0453282984    0.9641147078   -0.6391930950
     17  H        -2.4970302573   -3.1634910569    0.4061222542
     18  H        -1.8474376543    3.5666794906    0.9059890877
     19  H        -0.2002982988    3.7931790170    1.5273126011
     20  H         4.2838919982    0.9582831261    1.1198280401
     21  H         3.1925407862    2.1609409489    0.4023597877
     22  H        -0.1906002296   -3.9666582263    0.3443320837
     23  C        -3.4222635693   -0.6326602424    0.1288918324
     24  C         2.0849910947   -2.5767940219   -0.0602005081
     25  H         2.6449814024   -2.1343937269   -0.8905256458
     26  H         2.0671057384   -3.6580417916   -0.2367433488
     27  H         2.6144009167   -2.3996751371    0.8812702249
     28  H        -3.7454857248   -0.3261374563   -0.8709002559
     29  H        -3.5543120453    0.1968300833    0.8302013215
     30  H        -4.0860980650   -1.4390523749    0.4598971058
   Point Group: c1    Number of degrees of freedom:    84


   Energy is   -756.777492900

              Constraints and their Current Values
                                        Value     Constraint
   Dihedral:        2   1   3   5      131.435      135.200
   Dihedral:        1   2   4   7      -57.239      -62.300

 Attempting to Generate Delocalized Internal Coordinates

   Using Lagrange Multiplier Algorithm


 86 Hessian modes will be used to form the next step
  Hessian Eigenvalues:
    -0.977753   -0.977753    0.045000    0.045000    0.045000    0.045000
     0.045000    0.045000    0.045000    0.045000    0.045000    0.045001
     0.045002    0.045003    0.045005    0.045012    0.045013    0.045137
     0.045284    0.093755    0.094007    0.094234    0.094419    0.113828
     0.113875    0.116854    0.116890    0.159975    0.159998    0.160000
     0.160000    0.160000    0.160000    0.160000    0.160000    0.160000
     0.160000    0.160000    0.160000    0.160000    0.160000    0.224723
     0.244737    0.248923    0.249138    0.249624    0.249908    0.249990
     0.249993    0.250000    0.250000    0.250000    0.250000    0.250000
     0.318837    0.319059    0.341608    0.341647    0.342469    0.342555
     0.342769    0.342935    0.342935    0.343290    0.343371    0.343554
     0.344100    0.344105    0.344456    0.344917    0.348625    0.349867
     0.408089    0.409183    0.413229    0.413817    0.437594    0.446154
     0.449565    0.458786    0.535065    0.537664    0.958663    0.960829
     1.022753    1.022753

 Minimum Search - Taking P-RFO Step
 Searching for Lamda that Maximizes Along the Constraint modes Only
 Value Taken    Lamda =   0.00695326
 Searching for Lamda that Minimizes Along All other modes
 Value Taken    Lamda =  -0.06037744
 Calculated Step too Large.  Step scaled by  0.830932
 Step Taken.  Stepsize is  0.300000

                             Maximum     Tolerance    Cnvgd?
         Gradient            0.096534       0.000300      NO
         Displacement        0.127592       0.001200      NO
         Energy change     *********       0.000001      NO


 New Cartesian Coordinates Obtained by Inverse Iteration

 Displacement from previous Coordinates is:  0.905461
 Adding empirical dispersion correction 
 ----------------------------------------------------------------
 Doing -D3(op) with
 s6 =   1.00000
 s8 =   0.78311
 a1 =   0.30000
 a2 =   4.25000
 n  =  10.00000
 -D3 energy without 3body term =     -0.0326119022 hartrees
 ----------------------------------------------------------------
             Standard Nuclear Orientation (Angstroms)
    I     Atom           X                Y                Z
 ----------------------------------------------------------------
    1      C       0.4043221575    -0.6757197152    -0.0911031715
    2      C      -0.9380152026    -0.2116643876    -0.0627144841
    3      C       1.5092419562     0.3445137252    -0.3874787995
    4      C      -1.2304225363     1.2846346870    -0.2329182023
    5      O       2.5727351221     0.1777797296     0.5129732622
    6      O       1.4817038339     1.1861405873    -1.3110027101
    7      O      -0.6169079814     1.9905070360     0.8169039884
    8      O      -1.9982572632     1.7907976579    -1.0775516854
    9      C      -0.8584060152     3.4336825808     0.7438744028
   10      C       3.6609128965     1.1308868079     0.2834057336
   11      C       0.6856543970    -2.0663200533     0.0274729044
   12      C      -0.3946916197    -2.9551117766     0.2223538410
   13      C      -1.7222778983    -2.4930501474     0.2560859481
   14      C      -2.0190894579    -1.1207846727     0.1078015561
   15      H      -0.4782186947     3.8641868878    -0.2035850850
   16      H       4.1154083401     1.0015808242    -0.7190508133
   17      H      -2.5375846493    -3.2143528056     0.3903684454
   18      H      -1.9356184226     3.6741081862     0.8444162325
   19      H      -0.3136349562     3.8958528178     1.5863450327
   20      H       4.4315004431     0.9311882487     1.0491604320
   21      H       3.3165220951     2.1785803744     0.3914111989
   22      H      -0.2009304438    -4.0295173732     0.3298695424
   23      C      -3.4776236990    -0.6484115862     0.1217646793
   24      C       2.1123400953    -2.6225180821    -0.0486993629
   25      H       2.6815590751    -2.1572345619    -0.8676066671
   26      H       2.0925243982    -3.7059589893    -0.2371578685
   27      H       2.6533097179    -2.4523458366     0.8959499188
   28      H      -3.7916966265    -0.3164561127    -0.8808058033
   29      H      -3.6227539486     0.1853231003     0.8258125502
   30      H      -4.1454114229    -1.4647360294     0.4328406068
 ----------------------------------------------------------------
 Molecular Point Group                 C1    NOp =  1
 Largest Abelian Subgroup              C1    NOp =  1
 Nuclear Repulsion Energy =  1118.4569376187 hartrees
 There are       59 alpha and       59 beta electrons
 Applying Cartesian multipole field
    Component          Value
    ---------          -----
     (2,0,0)        1.00000E-11
     (0,2,0)        2.00000E-11
     (0,0,2)       -3.00000E-10
 Requested basis set is STO-3G
 There are 46 shells and 94 basis functions
 A cutoff of  1.0D-12 yielded    915 shell pairs
 There are      4293 function pairs
 Smallest overlap matrix eigenvalue = 1.82E-01
 Guess MOs from SCF MO coefficient file
 Reading MOs from coefficient file
 Reading MOs from coefficient file
 A restricted hybrid HF-DFT SCF calculation will be
 performed using Pulay DIIS extrapolation
 Exchange:     0.2000 Hartree-Fock + 0.0800 Slater + 0.7200 B88
 Correlation:  0.1900 VWN1RPA + 0.8100 LYP
 Using SG-1 standard quadrature grid
 Dispersion:   Grimme D3
 SCF converges when DIIS error is below 1.0E-08
 Geometry optimization detected.  Setting ReadMinima to 0
 Setting SaveMinima to 0
 -------------------------------------------------------
 OpenMP Integral computing Module                
 Release: version 1.0, May 2013, Q-Chem Inc. Pittsburgh 
 -------------------------------------------------------
 -------------------------------------------------------
 OpenMP BLAS3 based DFT computing Module                
 Release: version 1.0, May 2013, Q-Chem Inc. Pittsburgh 
 -------------------------------------------------------
 ---------------------------------------
  Cycle       Energy         DIIS Error
 ---------------------------------------
    1    -756.6335106452      6.49E-03
    2    -756.7964029435      2.45E-03
    3    -756.7815197371      4.23E-03
    4    -756.8036233367      6.36E-04
    5    -756.8041573290      1.70E-04
    6    -756.8041950485      5.07E-05
    7    -756.8041981422      2.33E-05
    8    -756.8041987348      1.14E-05
    9    -756.8041989069      1.89E-06
   10    -756.8041989127      4.53E-07
   11    -756.8041989130      1.35E-07
   12    -756.8041989130      4.82E-08
   13    -756.8041989130      2.06E-08
   14    -756.8041989130      5.98E-09 Convergence criterion met
 ---------------------------------------
 SCF time:  CPU 81.44 s  wall 3.47 s
 SCF   energy in the final basis set = -756.8041989130
 Total energy in the final basis set = -756.8041989130
 
 --------------------------------------------------------------
 
                    Orbital Energies (a.u.)
 --------------------------------------------------------------
 
 Alpha MOs
 -- Occupied --
-18.942 -18.937 -18.870 -18.868 -10.106 -10.103 -10.070 -10.066
-10.023 -10.022 -10.022 -10.020 -10.017 -10.016 -10.008 -10.007
 -1.021  -1.015  -0.940  -0.936  -0.815  -0.745  -0.720  -0.681
 -0.675  -0.662  -0.621  -0.585  -0.557  -0.498  -0.492  -0.450
 -0.443  -0.435  -0.416  -0.413  -0.409  -0.391  -0.384  -0.379
 -0.375  -0.369  -0.355  -0.347  -0.345  -0.336  -0.318  -0.312
 -0.307  -0.291  -0.284  -0.251  -0.248  -0.195  -0.182  -0.179
 -0.175  -0.152  -0.147
 -- Virtual --
  0.057   0.072   0.118   0.128   0.231   0.256   0.280   0.326
  0.352   0.356   0.375   0.389   0.401   0.420   0.423   0.426
  0.431   0.433   0.438   0.441   0.443   0.447   0.459   0.462
  0.469   0.480   0.485   0.552   0.564   0.578   0.605   0.657
  0.659   0.759   0.772
 --------------------------------------------------------------
 
          Ground-State Mulliken Net Atomic Charges

     Atom                 Charge (a.u.)
  ----------------------------------------
      1 C                    -0.018833
      2 C                    -0.016785
      3 C                     0.215368
      4 C                     0.216693
      5 O                    -0.170256
      6 O                    -0.215587
      7 O                    -0.173283
      8 O                    -0.211563
      9 C                    -0.125496
     10 C                    -0.124685
     11 C                     0.009076
     12 C                    -0.079335
     13 C                    -0.078871
     14 C                     0.008930
     15 H                     0.092583
     16 H                     0.089344
     17 H                     0.079508
     18 H                     0.088836
     19 H                     0.091080
     20 H                     0.092396
     21 H                     0.090466
     22 H                     0.079008
     23 C                    -0.225357
     24 C                    -0.223459
     25 H                     0.082822
     26 H                     0.079675
     27 H                     0.090928
     28 H                     0.093293
     29 H                     0.083574
     30 H                     0.079932
  ----------------------------------------
  Sum of atomic charges =     0.000000

 -----------------------------------------------------------------
                    Cartesian Multipole Moments
 -----------------------------------------------------------------
    Charge (ESU x 10^10)
                -0.0000
    Dipole Moment (Debye)
         X       1.1193      Y      -0.3035      Z       1.5475
       Tot       1.9338
    Quadrupole Moments (Debye-Ang)
        XX     -77.0783     XY       2.5378     YY     -76.8480
        XZ      -2.1748     YZ       4.4724     ZZ     -90.6354
    Octopole Moments (Debye-Ang^2)
       XXX      30.5997    XXY       7.4613    XYY       2.5498
       YYY      34.2119    XXZ       6.2004    XYZ      -1.1766
       YYZ      11.3996    XZZ       5.4076    YZZ       7.6157
       ZZZ      -4.2755
    Hexadecapole Moments (Debye-Ang^3)
      XXXX   -2023.5643   XXXY      52.1924   XXYY    -668.8931
      XYYY     -14.0237   YYYY   -1802.6156   XXXZ      -0.2972
      XXYZ      16.0343   XYYZ      -9.9262   YYYZ      16.6527
      XXZZ    -404.2624   XYZZ      -4.8499   YYZZ    -377.6516
      XZZZ      10.0019   YZZZ       1.9810   ZZZZ    -237.7953
 -----------------------------------------------------------------
 Calculating analytic gradient of the SCF energy
 Gradient of SCF Energy
            1           2           3           4           5           6
    1   0.0045864  -0.0037352   0.0089066   0.0156114  -0.0080053  -0.0006678
    2   0.0058820   0.0064191  -0.0007851   0.0059242   0.0116939  -0.0092249
    3  -0.0002493  -0.0015153   0.0097146   0.0076583  -0.0188783   0.0043294
            7           8           9          10          11          12
    1  -0.0178913   0.0021151   0.0028298  -0.0055218   0.0017767   0.0018220
    2   0.0013206  -0.0061002  -0.0085258  -0.0071064   0.0001734  -0.0011629
    3  -0.0173515   0.0066221   0.0030849   0.0037732  -0.0023727   0.0012947
           13          14          15          16          17          18
    1  -0.0024655  -0.0017277   0.0010745   0.0005792   0.0015393   0.0014507
    2  -0.0000230   0.0017427  -0.0003053  -0.0010529   0.0000424  -0.0002345
    3  -0.0001804   0.0005647   0.0018352   0.0018139  -0.0005459   0.0017185
           19          20          21          22          23          24
    1  -0.0012756   0.0006779   0.0006706  -0.0012179   0.0046390  -0.0034635
    2   0.0018679   0.0020399  -0.0012212   0.0009113   0.0001206   0.0035994
    3  -0.0016127  -0.0016375   0.0016135   0.0003652  -0.0018441   0.0019950
           25          26          27          28          29          30
    1  -0.0006476   0.0016819  -0.0011189  -0.0005655  -0.0008373  -0.0008204
    2  -0.0024611   0.0008580  -0.0017541  -0.0020953  -0.0021488   0.0016060
    3  -0.0009861  -0.0010173  -0.0001207   0.0005984   0.0009959   0.0003341
 Max gradient component =       1.888E-02
 RMS gradient           =       5.090E-03
 Gradient time:  CPU 18.44 s  wall 0.78 s
 Geometry Optimization Parameters
   NAtoms,    NIC,     NZ,  NCons,   NDum,   NFix, NCnnct, MaxDiis
       30     194       0       2       0       0       0       0

 Cartesian Hessian Update
 Hessian Updated using BFGS Update


** CONSTRAINED OPTIMIZATION IN DELOCALIZED INTERNAL COORDINATES **
   Searching for a Minimum

   Optimization Cycle:   2

                       Coordinates (Angstroms)
     ATOM                X               Y               Z
      1  C         0.4043221575   -0.6757197152   -0.0911031715
      2  C        -0.9380152026   -0.2116643876   -0.0627144841
      3  C         1.5092419562    0.3445137252   -0.3874787995
      4  C        -1.2304225363    1.2846346870   -0.2329182023
      5  O         2.5727351221    0.1777797296    0.5129732622
      6  O         1.4817038339    1.1861405873   -1.3110027101
      7  O        -0.6169079814    1.9905070360    0.8169039884
      8  O        -1.9982572632    1.7907976579   -1.0775516854
      9  C        -0.8584060152    3.4336825808    0.7438744028
     10  C         3.6609128965    1.1308868079    0.2834057336
     11  C         0.6856543970   -2.0663200533    0.0274729044
     12  C        -0.3946916197   -2.9551117766    0.2223538410
     13  C        -1.7222778983   -2.4930501474    0.2560859481
     14  C        -2.0190894579   -1.1207846727    0.1078015561
     15  H        -0.4782186947    3.8641868878   -0.2035850850
     16  H         4.1154083401    1.0015808242   -0.7190508133
     17  H        -2.5375846493   -3.2143528056    0.3903684454
     18  H        -1.9356184226    3.6741081862    0.8444162325
     19  H        -0.3136349562    3.8958528178    1.5863450327
     20  H         4.4315004431    0.9311882487    1.0491604320
     21  H         3.3165220951    2.1785803744    0.3914111989
     22  H        -0.2009304438   -4.0295173732    0.3298695424
     23  C        -3.4776236990   -0.6484115862    0.1217646793
     24  C         2.1123400953   -2.6225180821   -0.0486993629
     25  H         2.6815590751   -2.1572345619   -0.8676066671
     26  H         2.0925243982   -3.7059589893   -0.2371578685
     27  H         2.6533097179   -2.4523458366    0.8959499188
     28  H        -3.7916966265   -0.3164561127   -0.8808058033
     29  H        -3.6227539486    0.1853231003    0.8258125502
     30  H        -4.1454114229   -1.4647360294    0.4328406068
   Point Group: c1    Number of degrees of freedom:    84


   Energy is   -756.804198913

              Constraints and their Current Values
                                        Value     Constraint
   Dihedral:        2   1   3   5      134.466      135.200
   Dihedral:        1   2   4   7      -61.324      -62.300
 Hessian Updated using BFGS Update

   Using Lagrange Multiplier Algorithm


 70 Hessian modes will be used to form the next step
  Hessian Eigenvalues:
    -0.977899   -0.977749    0.044674    0.045000    0.045000    0.045000
     0.045000    0.045001    0.045001    0.045004    0.045006    0.045013
     0.045068    0.045133    0.045216    0.093622    0.093942    0.094234
     0.094415    0.113763    0.113857    0.116855    0.116890    0.158453
     0.159976    0.159999    0.162504    0.224725    0.237175    0.244939
     0.248967    0.249473    0.249635    0.249914    0.249992    0.249997
     0.250000    0.252653    0.318936    0.321820    0.341609    0.341650
     0.342501    0.342566    0.342806    0.342934    0.342962    0.343293
     0.343399    0.343578    0.344093    0.344416    0.344555    0.348587
     0.349809    0.371827    0.407481    0.408376    0.413485    0.423940
     0.438507    0.446280    0.457614    0.464721    0.523111    0.536491
     0.959697    0.990829    1.022730    1.022819

 Minimum Search - Taking P-RFO Step
 Searching for Lamda that Maximizes Along the Constraint modes Only
 Value Taken    Lamda =   0.00014591
 Searching for Lamda that Minimizes Along All other modes
 Value Taken    Lamda =  -0.00629552
 Step Taken.  Stepsize is  0.212512

                             Maximum     Tolerance    Cnvgd?
         Gradient            0.022147       0.000300      NO
         Displacement        0.059239       0.001200      NO
         Energy change     -0.026706       0.000001      NO


 New Cartesian Coordinates Obtained by Inverse Iteration

 Displacement from previous Coordinates is:  0.726756
 Adding empirical dispersion correction 
 ----------------------------------------------------------------
 Doing -D3(op) with
 s6 =   1.00000
 s8 =   0.78311
 a1 =   0.30000
 a2 =   4.25000
 n  =  10.00000
 -D3 energy without 3body term =     -0.0327271076 hartrees
 ----------------------------------------------------------------
             Standard Nuclear Orientation (Angstroms)
    I     Atom           X                Y                Z
 ----------------------------------------------------------------
    1      C       0.3940927217    -0.7015313229    -0.0693740673
    2      C      -0.9448003532    -0.2363084343    -0.0186842783
    3      C       1.4909084660     0.3508201588    -0.3340140434
    4      C      -1.2224500883     1.2723727096    -0.2031674060
    5      O       2.5847146029     0.1483456907     0.5553275679
    6      O       1.4403907140     1.2675037935    -1.1912883379
    7      O      -0.5848573061     1.9812058268     0.8589165009
    8      O      -1.9362215207     1.8097425981    -1.0833955689
    9      C      -0.8035086965     3.4307077885     0.6813894902
   10      C       3.6188862120     1.1717374710     0.3026165810
   11      C       0.6800141291    -2.0928727533     0.0174396840
   12      C      -0.4034981878    -2.9836316030     0.1913915287
   13      C      -1.7313724187    -2.5192221689     0.2468433578
   14      C      -2.0282492355    -1.1425631687     0.1316602577
   15      H      -0.3980406899     3.7905876797    -0.2871521833
   16      H       4.0249440078     1.0993806505    -0.7280890903
   17      H      -2.5532195615    -3.2382492064     0.3693140248
   18      H      -1.8814366530     3.6919833341     0.7310114847
   19      H      -0.2651624393     3.9206772563     1.5143422617
   20      H       4.4250649754     0.9718977558     1.0330919478
   21      H       3.2256460759     2.1985626940     0.4539496557
   22      H      -0.2038869972    -4.0612538255     0.2696710095
   23      C      -3.4849411546    -0.6487341871     0.1538394730
   24      C       2.1158620927    -2.6393266601    -0.0711926075
   25      H       2.6804237056    -2.1400928239    -0.8745267564
   26      H       2.0947040473    -3.7208314625    -0.2767461503
   27      H       2.6571354478    -2.4747457069     0.8759996228
   28      H      -3.7830438162    -0.2795170625    -0.8423621858
   29      H      -3.6119288890     0.1781975662     0.8715300378
   30      H      -4.1599755010    -1.4692614664     0.4407938124
 ----------------------------------------------------------------
 Molecular Point Group                 C1    NOp =  1
 Largest Abelian Subgroup              C1    NOp =  1
 Nuclear Repulsion Energy =  1118.4815193601 hartrees
 There are       59 alpha and       59 beta electrons
 Applying Cartesian multipole field
    Component          Value
    ---------          -----
     (2,0,0)        1.00000E-11
     (0,2,0)        2.00000E-11
     (0,0,2)       -3.00000E-10
 Nucleus-field energy     =     0.0000000029 hartrees
 Requested basis set is STO-3G
 There are 46 shells and 94 basis functions
 A cutoff of  1.0D-12 yielded    917 shell pairs
 There are      4298 function pairs
 Smallest overlap matrix eigenvalue = 1.83E-01
 Guess MOs from SCF MO coefficient file
 Reading MOs from coefficient file
 Reading MOs from coefficient file
 A restricted hybrid HF-DFT SCF calculation will be
 performed using Pulay DIIS extrapolation
 Exchange:     0.2000 Hartree-Fock + 0.0800 Slater + 0.7200 B88
 Correlation:  0.1900 VWN1RPA + 0.8100 LYP
 Using SG-1 standard quadrature grid
 Dispersion:   Grimme D3
 SCF converges when DIIS error is below 1.0E-08
 Geometry optimization detected.  Setting ReadMinima to 0
 Setting SaveMinima to 0
 -------------------------------------------------------
 OpenMP Integral computing Module                
 Release: version 1.0, May 2013, Q-Chem Inc. Pittsburgh 
 -------------------------------------------------------
 -------------------------------------------------------
 OpenMP BLAS3 based DFT computing Module                
 Release: version 1.0, May 2013, Q-Chem Inc. Pittsburgh 
 -------------------------------------------------------
 ---------------------------------------
  Cycle       Energy         DIIS Error
 ---------------------------------------
    1    -756.7438316026      4.66E-03
    2    -756.8059377663      1.00E-03
    3    -756.8021520026      2.04E-03
    4    -756.8072332465      3.01E-04
    5    -756.8073480317      1.01E-04
    6    -756.8073606814      3.45E-05
    7    -756.8073618640      2.01E-05
    8    -756.8073623601      6.02E-06
    9    -756.8073624091      1.44E-06
   10    -756.8073624125      2.93E-07
   11    -756.8073624127      8.48E-08
   12    -756.8073624127      3.51E-08
   13    -756.8073624127      1.34E-08
   14    -756.8073624127      3.37E-09 Convergence criterion met
 ---------------------------------------
 SCF time:  CPU 79.47 s  wall 3.39 s
 SCF   energy in the final basis set = -756.8073624127
 Total energy in the final basis set = -756.8073624127
 
 --------------------------------------------------------------
 
                    Orbital Energies (a.u.)
 --------------------------------------------------------------
 
 Alpha MOs
 -- Occupied --
-18.940 -18.934 -18.873 -18.872 -10.103 -10.100 -10.066 -10.062
-10.024 -10.023 -10.022 -10.021 -10.018 -10.017 -10.009 -10.009
 -1.015  -1.008  -0.936  -0.933  -0.815  -0.744  -0.719  -0.680
 -0.670  -0.657  -0.621  -0.584  -0.556  -0.495  -0.489  -0.448
 -0.442  -0.433  -0.413  -0.410  -0.407  -0.390  -0.382  -0.376
 -0.371  -0.368  -0.355  -0.348  -0.346  -0.337  -0.317  -0.310
 -0.306  -0.290  -0.283  -0.256  -0.253  -0.195  -0.183  -0.179
 -0.174  -0.154  -0.149
 -- Virtual --
  0.056   0.071   0.115   0.126   0.231   0.252   0.276   0.315
  0.340   0.346   0.369   0.383   0.401   0.415   0.420   0.425
  0.430   0.432   0.434   0.437   0.442   0.445   0.454   0.457
  0.464   0.475   0.482   0.548   0.560   0.575   0.602   0.647
  0.650   0.757   0.770
 --------------------------------------------------------------
 
          Ground-State Mulliken Net Atomic Charges

     Atom                 Charge (a.u.)
  ----------------------------------------
      1 C                    -0.019458
      2 C                    -0.017362
      3 C                     0.209629
      4 C                     0.211433
      5 O                    -0.164470
      6 O                    -0.212352
      7 O                    -0.168007
      8 O                    -0.207201
      9 C                    -0.127739
     10 C                    -0.126808
     11 C                     0.008829
     12 C                    -0.079182
     13 C                    -0.078494
     14 C                     0.008353
     15 H                     0.092651
     16 H                     0.088676
     17 H                     0.079525
     18 H                     0.087922
     19 H                     0.088816
     20 H                     0.090557
     21 H                     0.090383
     22 H                     0.079121
     23 C                    -0.224132
     24 C                    -0.222012
     25 H                     0.083329
     26 H                     0.079839
     27 H                     0.091273
     28 H                     0.092764
     29 H                     0.083730
     30 H                     0.080386
  ----------------------------------------
  Sum of atomic charges =     0.000000

 -----------------------------------------------------------------
                    Cartesian Multipole Moments
 -----------------------------------------------------------------
    Charge (ESU x 10^10)
                -0.0000
    Dipole Moment (Debye)
         X       0.9877      Y      -0.4414      Z       1.3236
       Tot       1.7095
    Quadrupole Moments (Debye-Ang)
        XX     -77.3254     XY       2.5677     YY     -77.3752
        XZ      -2.2436     YZ       4.1695     ZZ     -90.4624
    Octopole Moments (Debye-Ang^2)
       XXX      26.5406    XXY       8.1182    XYY       2.6132
       YYY      32.3684    XXZ       3.9990    XYZ      -0.9161
       YYZ       9.1621    XZZ       6.1030    YZZ       8.1081
       ZZZ      -8.8580
    Hexadecapole Moments (Debye-Ang^3)
      XXXX   -2009.1502   XXXY      39.5146   XXYY    -668.5240
      XYYY     -23.5027   YYYY   -1835.4518   XXXZ      -3.1175
      XXYZ      13.4738   XYYZ      -9.4026   YYYZ      15.9017
      XXZZ    -397.9359   XYZZ      -6.9450   YYZZ    -382.3159
      XZZZ       4.7714   YZZZ      -0.1969   ZZZZ    -226.7452
 -----------------------------------------------------------------
 Calculating analytic gradient of the SCF energy
 Gradient of SCF Energy
            1           2           3           4           5           6
    1  -0.0014014   0.0007684   0.0052893   0.0079100  -0.0015154  -0.0001574
    2  -0.0007450  -0.0006148  -0.0000032   0.0035756   0.0008872   0.0014042
    3   0.0014433   0.0033861   0.0036774   0.0033340  -0.0011861  -0.0032090
            7           8           9          10          11          12
    1  -0.0032211  -0.0032381  -0.0005924  -0.0042785  -0.0002036   0.0006342
    2  -0.0009507   0.0013235  -0.0044587  -0.0019279  -0.0003009  -0.0001022
    3  -0.0003522  -0.0028031  -0.0015776  -0.0008065  -0.0023284   0.0004942
           13          14          15          16          17          18
    1  -0.0002627  -0.0002348   0.0000990   0.0003735  -0.0002181  -0.0006562
    2   0.0002450   0.0009977   0.0005770  -0.0000126  -0.0000996   0.0002232
    3  -0.0001770  -0.0000060  -0.0004670  -0.0005590  -0.0001955   0.0001210
           19          20          21          22          23          24
    1   0.0005029  -0.0000116  -0.0000236   0.0000912   0.0005432   0.0003054
    2  -0.0004026  -0.0004956   0.0006907  -0.0001959   0.0007158   0.0011747
    3   0.0004551   0.0004908   0.0001071   0.0003039  -0.0006796   0.0005894
           25          26          27          28          29          30
    1   0.0000368  -0.0001419   0.0000791  -0.0002773  -0.0001627  -0.0000357
    2  -0.0000821  -0.0004436  -0.0004268  -0.0002262   0.0001426  -0.0004689
    3  -0.0003474  -0.0003803   0.0002097  -0.0001761   0.0002633   0.0003752
 Max gradient component =       7.910E-03
 RMS gradient           =       1.680E-03
 Gradient time:  CPU 19.21 s  wall 0.82 s
 Geometry Optimization Parameters
   NAtoms,    NIC,     NZ,  NCons,   NDum,   NFix, NCnnct, MaxDiis
       30     194       0       2       0       0       0       0

 Cartesian Hessian Update
 Hessian Updated using BFGS Update


** CONSTRAINED OPTIMIZATION IN DELOCALIZED INTERNAL COORDINATES **
   Searching for a Minimum

   Optimization Cycle:   3

                       Coordinates (Angstroms)
     ATOM                X               Y               Z
      1  C         0.3940927217   -0.7015313229   -0.0693740673
      2  C        -0.9448003532   -0.2363084343   -0.0186842783
      3  C         1.4909084660    0.3508201588   -0.3340140434
      4  C        -1.2224500883    1.2723727096   -0.2031674060
      5  O         2.5847146029    0.1483456907    0.5553275679
      6  O         1.4403907140    1.2675037935   -1.1912883379
      7  O        -0.5848573061    1.9812058268    0.8589165009
      8  O        -1.9362215207    1.8097425981   -1.0833955689
      9  C        -0.8035086965    3.4307077885    0.6813894902
     10  C         3.6188862120    1.1717374710    0.3026165810
     11  C         0.6800141291   -2.0928727533    0.0174396840
     12  C        -0.4034981878   -2.9836316030    0.1913915287
     13  C        -1.7313724187   -2.5192221689    0.2468433578
     14  C        -2.0282492355   -1.1425631687    0.1316602577
     15  H        -0.3980406899    3.7905876797   -0.2871521833
     16  H         4.0249440078    1.0993806505   -0.7280890903
     17  H        -2.5532195615   -3.2382492064    0.3693140248
     18  H        -1.8814366530    3.6919833341    0.7310114847
     19  H        -0.2651624393    3.9206772563    1.5143422617
     20  H         4.4250649754    0.9718977558    1.0330919478
     21  H         3.2256460759    2.1985626940    0.4539496557
     22  H        -0.2038869972   -4.0612538255    0.2696710095
     23  C        -3.4849411546   -0.6487341871    0.1538394730
     24  C         2.1158620927   -2.6393266601   -0.0711926075
     25  H         2.6804237056   -2.1400928239   -0.8745267564
     26  H         2.0947040473   -3.7208314625   -0.2767461503
     27  H         2.6571354478   -2.4747457069    0.8759996228
     28  H        -3.7830438162   -0.2795170625   -0.8423621858
     29  H        -3.6119288890    0.1781975662    0.8715300378
     30  H        -4.1599755010   -1.4692614664    0.4407938124
   Point Group: c1    Number of degrees of freedom:    84


   Energy is   -756.807362413

              Constraints and their Current Values
                                        Value     Constraint
   Dihedral:        2   1   3   5      135.197      135.200
   Dihedral:        1   2   4   7      -62.296      -62.300
 Hessian Updated using BFGS Update

   Using Lagrange Multiplier Algorithm


 73 Hessian modes will be used to form the next step
  Hessian Eigenvalues:
    -0.977752   -0.976723    0.039765    0.045000    0.045000    0.045000
     0.045000    0.045001    0.045001    0.045003    0.045006    0.045011
     0.045025    0.045084    0.045139    0.045732    0.092777    0.093903
     0.094233    0.094406    0.113192    0.113853    0.116855    0.116891
     0.159391    0.159979    0.159999    0.161356    0.164236    0.224644
     0.242286    0.244889    0.249022    0.249470    0.249634    0.249920
     0.249993    0.249998    0.250000    0.250475    0.291807    0.318971
     0.321818    0.341627    0.341809    0.342503    0.342583    0.342818
     0.342934    0.343014    0.343280    0.343449    0.343669    0.344072
     0.344410    0.344605    0.348612    0.349821    0.377124    0.396080
     0.408236    0.413510    0.419158    0.438527    0.446492    0.457735
     0.465197    0.481472    0.536437    0.959637    1.009817    1.022757
     1.037620

 Minimum Search - Taking P-RFO Step
 Searching for Lamda that Maximizes Along the Constraint modes Only
 Value Taken    Lamda =   0.00001109
 Searching for Lamda that Minimizes Along All other modes
 Value Taken    Lamda =  -0.00071498
 Step Taken.  Stepsize is  0.092847

                             Maximum     Tolerance    Cnvgd?
         Gradient            0.006772       0.000300      NO
         Displacement        0.025270       0.001200      NO
         Energy change     -0.003163       0.000001      NO


 New Cartesian Coordinates Obtained by Inverse Iteration

 Displacement from previous Coordinates is:  0.292023
 Adding empirical dispersion correction 
 ----------------------------------------------------------------
 Doing -D3(op) with
 s6 =   1.00000
 s8 =   0.78311
 a1 =   0.30000
 a2 =   4.25000
 n  =  10.00000
 -D3 energy without 3body term =     -0.0327669659 hartrees
 ----------------------------------------------------------------
             Standard Nuclear Orientation (Angstroms)
    I     Atom           X                Y                Z
 ----------------------------------------------------------------
    1      C       0.3840987248    -0.7047876907    -0.0816444253
    2      C      -0.9573581859    -0.2441580457    -0.0167798007
    3      C       1.4775926181     0.3552896259    -0.3291637732
    4      C      -1.2398515129     1.2639551631    -0.2069190512
    5      O       2.5842723386     0.1419535137     0.5541218253
    6      O       1.4167677443     1.2987398176    -1.1541823419
    7      O      -0.5881215982     1.9871497480     0.8478546638
    8      O      -1.9401768020     1.8002098808    -1.0956032372
    9      C      -0.7771465785     3.4454340602     0.6573138032
   10      C       3.6225134587     1.1763787814     0.3267410406
   11      C       0.6749347369    -2.0951280194     0.0051097224
   12      C      -0.4049895069    -2.9904199387     0.1781435248
   13      C      -1.7334421905    -2.5320621943     0.2455303067
   14      C      -2.0358054539    -1.1563011279     0.1384673116
   15      H      -0.3625578940     3.7819949848    -0.3146917106
   16      H       4.0237485965     1.1306219148    -0.7063374683
   17      H      -2.5515263098    -3.2542740445     0.3728903306
   18      H      -1.8493204035     3.7267573253     0.6978000595
   19      H      -0.2332490077     3.9367751557     1.4850600956
   20      H       4.4314702332     0.9626992123     1.0492844059
   21      H       3.2247337260     2.1965270834     0.5020689764
   22      H      -0.2003538621    -4.0673017719     0.2501280561
   23      C      -3.4933363664    -0.6645623476     0.1738247446
   24      C       2.1130076907    -2.6357693806    -0.0846138686
   25      H       2.6742997877    -2.1325924391    -0.8873373734
   26      H       2.0986476081    -3.7175973791    -0.2850787191
   27      H       2.6527642982    -2.4616516382     0.8615660771
   28      H      -3.7938883147    -0.2862469622    -0.8180619030
   29      H      -3.6130356762     0.1590894654     0.8959718729
   30      H      -4.1684982090    -1.4851416316     0.4576724781
 ----------------------------------------------------------------
 Molecular Point Group                 C1    NOp =  1
 Largest Abelian Subgroup              C1    NOp =  1
 Nuclear Repulsion Energy =  1117.6608100324 hartrees
 There are       59 alpha and       59 beta electrons
 Applying Cartesian multipole field
    Component          Value
    ---------          -----
     (2,0,0)        1.00000E-11
     (0,2,0)        2.00000E-11
     (0,0,2)       -3.00000E-10
 Nucleus-field energy     =     0.0000000039 hartrees
 Requested basis set is STO-3G
 There are 46 shells and 94 basis functions
 A cutoff of  1.0D-12 yielded    913 shell pairs
 There are      4285 function pairs
 Smallest overlap matrix eigenvalue = 1.83E-01
 Guess MOs from SCF MO coefficient file
 Reading MOs from coefficient file
 Reading MOs from coefficient file
 A restricted hybrid HF-DFT SCF calculation will be
 performed using Pulay DIIS extrapolation
 Exchange:     0.2000 Hartree-Fock + 0.0800 Slater + 0.7200 B88
 Correlation:  0.1900 VWN1RPA + 0.8100 LYP
 Using SG-1 standard quadrature grid
 Dispersion:   Grimme D3
 SCF converges when DIIS error is below 1.0E-08
 Geometry optimization detected.  Setting ReadMinima to 0
 Setting SaveMinima to 0
 -------------------------------------------------------
 OpenMP Integral computing Module                
 Release: version 1.0, May 2013, Q-Chem Inc. Pittsburgh 
 -------------------------------------------------------
 -------------------------------------------------------
 OpenMP BLAS3 based DFT computing Module                
 Release: version 1.0, May 2013, Q-Chem Inc. Pittsburgh 
 -------------------------------------------------------
 ---------------------------------------
  Cycle       Energy         DIIS Error
 ---------------------------------------
    1    -756.8000312579      1.71E-03
    2    -756.8075881802      3.19E-04
    3    -756.8070102864      7.48E-04
    4    -756.8077294171      6.69E-05
    5    -756.8077345274      2.61E-05
    6    -756.8077353541      8.58E-06
    7    -756.8077354399      4.56E-06
    8    -756.8077354654      1.36E-06
    9    -756.8077354676      4.86E-07
   10    -756.8077354680      8.98E-08
   11    -756.8077354680      2.26E-08
   12    -756.8077354680      1.04E-08
   13    -756.8077354680      3.76E-09 Convergence criterion met
 ---------------------------------------
 SCF time:  CPU 72.26 s  wall 3.08 s
 SCF   energy in the final basis set = -756.8077354680
 Total energy in the final basis set = -756.8077354680
 
 --------------------------------------------------------------
 
                    Orbital Energies (a.u.)
 --------------------------------------------------------------
 
 Alpha MOs
 -- Occupied --
-18.937 -18.930 -18.873 -18.873 -10.103 -10.100 -10.065 -10.060
-10.025 -10.024 -10.023 -10.022 -10.018 -10.018 -10.010 -10.009
 -1.012  -1.004  -0.935  -0.931  -0.815  -0.745  -0.719  -0.681
 -0.668  -0.656  -0.621  -0.584  -0.556  -0.494  -0.488  -0.447
 -0.442  -0.432  -0.411  -0.409  -0.406  -0.390  -0.382  -0.376
 -0.371  -0.367  -0.355  -0.348  -0.346  -0.338  -0.317  -0.310
 -0.306  -0.290  -0.283  -0.254  -0.251  -0.195  -0.183  -0.178
 -0.172  -0.154  -0.149
 -- Virtual --
  0.055   0.070   0.115   0.127   0.230   0.248   0.272   0.314
  0.338   0.346   0.368   0.382   0.400   0.414   0.421   0.426
  0.431   0.432   0.435   0.438   0.443   0.446   0.454   0.457
  0.464   0.475   0.482   0.548   0.559   0.575   0.602   0.647
  0.650   0.757   0.770
 --------------------------------------------------------------
 
          Ground-State Mulliken Net Atomic Charges

     Atom                 Charge (a.u.)
  ----------------------------------------
      1 C                    -0.019118
      2 C                    -0.017006
      3 C                     0.208910
      4 C                     0.211043
      5 O                    -0.164605
      6 O                    -0.211960
      7 O                    -0.168190
      8 O                    -0.206423
      9 C                    -0.129300
     10 C                    -0.128301
     11 C                     0.009203
     12 C                    -0.079120
     13 C                    -0.078508
     14 C                     0.008585
     15 H                     0.092728
     16 H                     0.088529
     17 H                     0.079855
     18 H                     0.087670
     19 H                     0.089066
     20 H                     0.090932
     21 H                     0.090430
     22 H                     0.079295
     23 C                    -0.224496
     24 C                    -0.222259
     25 H                     0.083675
     26 H                     0.080016
     27 H                     0.091757
     28 H                     0.092756
     29 H                     0.084064
     30 H                     0.080771
  ----------------------------------------
  Sum of atomic charges =     0.000000

 -----------------------------------------------------------------
                    Cartesian Multipole Moments
 -----------------------------------------------------------------
    Charge (ESU x 10^10)
                -0.0000
    Dipole Moment (Debye)
         X       0.9819      Y      -0.4860      Z       1.2872
       Tot       1.6903
    Quadrupole Moments (Debye-Ang)
        XX     -77.2808     XY       2.6775     YY     -77.3863
        XZ      -2.2492     YZ       4.1152     ZZ     -90.3583
    Octopole Moments (Debye-Ang^2)
       XXX      27.5051    XXY       8.3331    XYY       2.9112
       YYY      32.6153    XXZ       4.2584    XYZ      -0.7382
       YYZ       9.1450    XZZ       6.8255    YZZ       8.2967
       ZZZ      -8.9033
    Hexadecapole Moments (Debye-Ang^3)
      XXXX   -2008.3028   XXXY      35.7353   XXYY    -670.0098
      XYYY     -28.5747   YYYY   -1843.5399   XXXZ      -4.4567
      XXYZ      13.0990   XYYZ      -9.7568   YYYZ      16.2445
      XXZZ    -397.3644   XYZZ      -7.9601   YYZZ    -383.9304
      XZZZ       2.1615   YZZZ      -0.7191   ZZZZ    -223.7879
 -----------------------------------------------------------------
 Calculating analytic gradient of the SCF energy
 Gradient of SCF Energy
            1           2           3           4           5           6
    1  -0.0015311   0.0003926  -0.0000052   0.0021742  -0.0008665  -0.0000032
    2  -0.0008862  -0.0006596  -0.0015662  -0.0013560   0.0005689   0.0008495
    3  -0.0007056   0.0037401  -0.0002508  -0.0011665   0.0003086  -0.0009988
            7           8           9          10          11          12
    1  -0.0012728  -0.0006353   0.0004343   0.0014486  -0.0001745  -0.0001786
    2  -0.0004763   0.0008791   0.0014328   0.0004267  -0.0001687   0.0002095
    3   0.0004435  -0.0010968   0.0007575   0.0006638  -0.0014331   0.0002105
           13          14          15          16          17          18
    1   0.0002614  -0.0001242  -0.0003202  -0.0001265  -0.0001147   0.0000796
    2   0.0000162   0.0000805  -0.0000018   0.0001643  -0.0000111   0.0000047
    3  -0.0001426  -0.0000651  -0.0000342   0.0000157  -0.0000615  -0.0001427
           19          20          21          22          23          24
    1   0.0000913   0.0002648   0.0000638   0.0000773  -0.0004606   0.0004246
    2   0.0003158   0.0001838  -0.0000489  -0.0000215  -0.0000509  -0.0000410
    3   0.0000152   0.0000156  -0.0002277   0.0001590  -0.0000047  -0.0000264
           25          26          27          28          29          30
    1  -0.0000508  -0.0001382  -0.0000127   0.0000541   0.0001496   0.0000987
    2   0.0002343  -0.0000161  -0.0001039  -0.0000439   0.0001678  -0.0000816
    3   0.0001311  -0.0000873   0.0000491  -0.0000180  -0.0001887   0.0001405
 Max gradient component =       3.740E-03
 RMS gradient           =       7.069E-04
 Gradient time:  CPU 17.86 s  wall 0.75 s
 Geometry Optimization Parameters
   NAtoms,    NIC,     NZ,  NCons,   NDum,   NFix, NCnnct, MaxDiis
       30     194       0       2       0       0       0       0

 Cartesian Hessian Update
 Hessian Updated using BFGS Update


** CONSTRAINED OPTIMIZATION IN DELOCALIZED INTERNAL COORDINATES **
   Searching for a Minimum

   Optimization Cycle:   4

                       Coordinates (Angstroms)
     ATOM                X               Y               Z
      1  C         0.3840987248   -0.7047876907   -0.0816444253
      2  C        -0.9573581859   -0.2441580457   -0.0167798007
      3  C         1.4775926181    0.3552896259   -0.3291637732
      4  C        -1.2398515129    1.2639551631   -0.2069190512
      5  O         2.5842723386    0.1419535137    0.5541218253
      6  O         1.4167677443    1.2987398176   -1.1541823419
      7  O        -0.5881215982    1.9871497480    0.8478546638
      8  O        -1.9401768020    1.8002098808   -1.0956032372
      9  C        -0.7771465785    3.4454340602    0.6573138032
     10  C         3.6225134587    1.1763787814    0.3267410406
     11  C         0.6749347369   -2.0951280194    0.0051097224
     12  C        -0.4049895069   -2.9904199387    0.1781435248
     13  C        -1.7334421905   -2.5320621943    0.2455303067
     14  C        -2.0358054539   -1.1563011279    0.1384673116
     15  H        -0.3625578940    3.7819949848   -0.3146917106
     16  H         4.0237485965    1.1306219148   -0.7063374683
     17  H        -2.5515263098   -3.2542740445    0.3728903306
     18  H        -1.8493204035    3.7267573253    0.6978000595
     19  H        -0.2332490077    3.9367751557    1.4850600956
     20  H         4.4314702332    0.9626992123    1.0492844059
     21  H         3.2247337260    2.1965270834    0.5020689764
     22  H        -0.2003538621   -4.0673017719    0.2501280561
     23  C        -3.4933363664   -0.6645623476    0.1738247446
     24  C         2.1130076907   -2.6357693806   -0.0846138686
     25  H         2.6742997877   -2.1325924391   -0.8873373734
     26  H         2.0986476081   -3.7175973791   -0.2850787191
     27  H         2.6527642982   -2.4616516382    0.8615660771
     28  H        -3.7938883147   -0.2862469622   -0.8180619030
     29  H        -3.6130356762    0.1590894654    0.8959718729
     30  H        -4.1684982090   -1.4851416316    0.4576724781
   Point Group: c1    Number of degrees of freedom:    84


   Energy is   -756.807735468

              Constraints and their Current Values
                                        Value     Constraint
   Dihedral:        2   1   3   5      135.200      135.200
   Dihedral:        1   2   4   7      -62.300      -62.300
 Hessian Updated using BFGS Update

   Using Lagrange Multiplier Algorithm


 76 Hessian modes will be used to form the next step
  Hessian Eigenvalues:
    -0.977753   -0.973543    0.032845    0.045000    0.045000    0.045000
     0.045000    0.045001    0.045001    0.045002    0.045005    0.045009
     0.045011    0.045052    0.045091    0.045143    0.047365    0.093252
     0.093965    0.094234    0.094403    0.113853    0.114752    0.116855
     0.116882    0.159455    0.159979    0.159999    0.160355    0.161366
     0.164310    0.224558    0.242459    0.245995    0.249190    0.249440
     0.249639    0.249965    0.249995    0.249999    0.250000    0.250317
     0.250535    0.302754    0.318965    0.321798    0.341627    0.341735
     0.342538    0.342604    0.342893    0.342934    0.343054    0.343297
     0.343474    0.343932    0.344257    0.344416    0.347065    0.348702
     0.349837    0.373883    0.407987    0.410058    0.413523    0.437288
     0.445638    0.452536    0.459722    0.467022    0.531322    0.536442
     0.959206    0.993466    1.022774    1.034198

 Minimum Search - Taking P-RFO Step
 Searching for Lamda that Maximizes Along the Constraint modes Only
 Value Taken    Lamda =   0.00000188
 Searching for Lamda that Minimizes Along All other modes
 Value Taken    Lamda =  -0.00009202
 Step Taken.  Stepsize is  0.033851

                             Maximum     Tolerance    Cnvgd?
         Gradient            0.002910       0.000300      NO
         Displacement        0.010898       0.001200      NO
         Energy change     -0.000373       0.000001      NO


 New Cartesian Coordinates Obtained by Inverse Iteration

 Displacement from previous Coordinates is:  0.075629
 Adding empirical dispersion correction 
 ----------------------------------------------------------------
 Doing -D3(op) with
 s6 =   1.00000
 s8 =   0.78311
 a1 =   0.30000
 a2 =   4.25000
 n  =  10.00000
 -D3 energy without 3body term =     -0.0327674872 hartrees
 ----------------------------------------------------------------
             Standard Nuclear Orientation (Angstroms)
    I     Atom           X                Y                Z
 ----------------------------------------------------------------
    1      C       0.3853674957    -0.7011553533    -0.0900147711
    2      C      -0.9572567728    -0.2410448006    -0.0220683332
    3      C       1.4805269607     0.3573635056    -0.3296345422
    4      C      -1.2442090278     1.2660052312    -0.2078589865
    5      O       2.5854796071     0.1341886374     0.5534096679
    6      O       1.4238871453     1.3060560953    -1.1478530502
    7      O      -0.5922224327     1.9875142823     0.8479510428
    8      O      -1.9480749821     1.8018289594    -1.0927407246
    9      C      -0.7834252265     3.4439463243     0.6536462386
   10      C       3.6235061519     1.1676380575     0.3273304090
   11      C       0.6763237361    -2.0914911802     0.0024275842
   12      C      -0.4029792627    -2.9877044082     0.1751014263
   13      C      -1.7315812455    -2.5302949566     0.2432415697
   14      C      -2.0342687875    -1.1546229209     0.1366892838
   15      H      -0.3641815991     3.7792978785    -0.3169187652
   16      H       4.0236097847     1.1245789794    -0.7064067379
   17      H      -2.5487322139    -3.2529276556     0.3733249174
   18      H      -1.8560862910     3.7242004373     0.6906075937
   19      H      -0.2431444376     3.9360886156     1.4829342377
   20      H       4.4324735493     0.9487514640     1.0479414841
   21      H       3.2275498404     2.1876031771     0.5084652838
   22      H      -0.1978817031    -4.0644160142     0.2474360914
   23      C      -3.4917149334    -0.6630241129     0.1778502048
   24      C       2.1143172003    -2.6326280296    -0.0835960090
   25      H       2.6769727031    -2.1347728447    -0.8886992862
   26      H       2.1012306348    -3.7155391739    -0.2775621899
   27      H       2.6532447784    -2.4526411982     0.8619445978
   28      H      -3.7957085286    -0.2817891351    -0.8118980311
   29      H      -3.6099771562     0.1582433094     0.9029824164
   30      H      -4.1668512977    -1.4836720492     0.4611030006
 ----------------------------------------------------------------
 Molecular Point Group                 C1    NOp =  1
 Largest Abelian Subgroup              C1    NOp =  1
 Nuclear Repulsion Energy =  1117.8283032571 hartrees
 There are       59 alpha and       59 beta electrons
 Applying Cartesian multipole field
    Component          Value
    ---------          -----
     (2,0,0)        1.00000E-11
     (0,2,0)        2.00000E-11
     (0,0,2)       -3.00000E-10
 Nucleus-field energy     =     0.0000000041 hartrees
 Requested basis set is STO-3G
 There are 46 shells and 94 basis functions
 A cutoff of  1.0D-12 yielded    914 shell pairs
 There are      4289 function pairs
 Smallest overlap matrix eigenvalue = 1.83E-01
 Guess MOs from SCF MO coefficient file
 Reading MOs from coefficient file
 Reading MOs from coefficient file
 A restricted hybrid HF-DFT SCF calculation will be
 performed using Pulay DIIS extrapolation
 Exchange:     0.2000 Hartree-Fock + 0.0800 Slater + 0.7200 B88
 Correlation:  0.1900 VWN1RPA + 0.8100 LYP
 Using SG-1 standard quadrature grid
 Dispersion:   Grimme D3
 SCF converges when DIIS error is below 1.0E-08
 Geometry optimization detected.  Setting ReadMinima to 0
 Setting SaveMinima to 0
 -------------------------------------------------------
 OpenMP Integral computing Module                
 Release: version 1.0, May 2013, Q-Chem Inc. Pittsburgh 
 -------------------------------------------------------
 -------------------------------------------------------
 OpenMP BLAS3 based DFT computing Module                
 Release: version 1.0, May 2013, Q-Chem Inc. Pittsburgh 
 -------------------------------------------------------
 ---------------------------------------
  Cycle       Energy         DIIS Error
 ---------------------------------------
    1    -756.8089057753      4.18E-04
    2    -756.8077838511      2.49E-05
    3    -756.8077850233      1.70E-05
    4    -756.8077852856      1.09E-05
    5    -756.8077854056      5.81E-06
    6    -756.8077854471      1.69E-06
    7    -756.8077854515      3.09E-07
    8    -756.8077854516      1.33E-07
    9    -756.8077854517      4.54E-08
   10    -756.8077854516      3.03E-08
   11    -756.8077854517      4.99E-09 Convergence criterion met
 ---------------------------------------
 SCF time:  CPU 64.52 s  wall 2.75 s
 SCF   energy in the final basis set = -756.8077854517
 Total energy in the final basis set = -756.8077854517
 
 --------------------------------------------------------------
 
                    Orbital Energies (a.u.)
 --------------------------------------------------------------
 
 Alpha MOs
 -- Occupied --
-18.937 -18.930 -18.874 -18.874 -10.103 -10.100 -10.065 -10.060
-10.025 -10.024 -10.023 -10.022 -10.018 -10.018 -10.010 -10.009
 -1.012  -1.005  -0.935  -0.932  -0.815  -0.745  -0.719  -0.681
 -0.668  -0.656  -0.621  -0.584  -0.556  -0.494  -0.488  -0.447
 -0.442  -0.432  -0.412  -0.409  -0.406  -0.390  -0.382  -0.376
 -0.371  -0.367  -0.356  -0.348  -0.346  -0.338  -0.317  -0.310
 -0.306  -0.290  -0.283  -0.255  -0.252  -0.195  -0.183  -0.178
 -0.172  -0.154  -0.150
 -- Virtual --
  0.055   0.070   0.115   0.127   0.230   0.249   0.273   0.315
  0.338   0.346   0.368   0.382   0.400   0.414   0.421   0.427
  0.431   0.432   0.435   0.438   0.443   0.446   0.454   0.457
  0.464   0.475   0.482   0.548   0.559   0.574   0.602   0.648
  0.651   0.756   0.769
 --------------------------------------------------------------
 
          Ground-State Mulliken Net Atomic Charges

     Atom                 Charge (a.u.)
  ----------------------------------------
      1 C                    -0.019238
      2 C                    -0.017025
      3 C                     0.209070
      4 C                     0.211409
      5 O                    -0.164586
      6 O                    -0.212108
      7 O                    -0.168053
      8 O                    -0.206443
      9 C                    -0.129271
     10 C                    -0.128258
     11 C                     0.009287
     12 C                    -0.079112
     13 C                    -0.078521
     14 C                     0.008586
     15 H                     0.092690
     16 H                     0.088510
     17 H                     0.079916
     18 H                     0.087743
     19 H                     0.088963
     20 H                     0.090753
     21 H                     0.090444
     22 H                     0.079312
     23 C                    -0.224578
     24 C                    -0.222295
     25 H                     0.083600
     26 H                     0.079919
     27 H                     0.091855
     28 H                     0.092694
     29 H                     0.084003
     30 H                     0.080732
  ----------------------------------------
  Sum of atomic charges =     0.000000

 -----------------------------------------------------------------
                    Cartesian Multipole Moments
 -----------------------------------------------------------------
    Charge (ESU x 10^10)
                -0.0000
    Dipole Moment (Debye)
         X       0.9750      Y      -0.4940      Z       1.2823
       Tot       1.6849
    Quadrupole Moments (Debye-Ang)
        XX     -77.3381     XY       2.6386     YY     -77.4699
        XZ      -2.2565     YZ       4.0918     ZZ     -90.3237
    Octopole Moments (Debye-Ang^2)
       XXX      27.4404    XXY       8.1069    XYY       2.7677
       YYY      32.1957    XXZ       4.3715    XYZ      -0.7213
       YYZ       9.1858    XZZ       6.8355    YZZ       8.2542
       ZZZ      -8.7562
    Hexadecapole Moments (Debye-Ang^3)
      XXXX   -2011.5766   XXXY      37.1145   XXYY    -670.4640
      XYYY     -26.7990   YYYY   -1841.7181   XXXZ      -4.6301
      XXYZ      13.1341   XYYZ      -9.7638   YYYZ      16.0506
      XXZZ    -397.6746   XYZZ      -7.2986   YYZZ    -383.3628
      XZZZ       2.1520   YZZZ      -0.7638   ZZZZ    -222.9852
 -----------------------------------------------------------------
 Calculating analytic gradient of the SCF energy
 Gradient of SCF Energy
            1           2           3           4           5           6
    1  -0.0003298  -0.0002255   0.0005004   0.0011137  -0.0004386   0.0001034
    2  -0.0004397   0.0003661  -0.0005528  -0.0001828   0.0001781   0.0000527
    3  -0.0017855   0.0038059  -0.0006612  -0.0021604   0.0008734  -0.0003161
            7           8           9          10          11          12
    1  -0.0009374   0.0000240   0.0000753   0.0005044  -0.0000706  -0.0001669
    2  -0.0001806   0.0001406   0.0005990   0.0002943  -0.0001411   0.0000498
    3   0.0011777  -0.0001097   0.0001433   0.0000388  -0.0008139   0.0001815
           13          14          15          16          17          18
    1   0.0001265  -0.0000258  -0.0000953  -0.0000169  -0.0000113  -0.0000095
    2  -0.0000862  -0.0001086  -0.0000567   0.0000173  -0.0000109   0.0000085
    3  -0.0002024  -0.0000224  -0.0000981  -0.0000527  -0.0000000   0.0000359
           19          20          21          22          23          24
    1   0.0000248  -0.0000660  -0.0000518  -0.0000019  -0.0002172   0.0000863
    2  -0.0000477  -0.0000117   0.0000078  -0.0000087  -0.0001242  -0.0000628
    3  -0.0000836  -0.0000456  -0.0000488   0.0000801   0.0000954  -0.0000538
           25          26          27          28          29          30
    1   0.0000321   0.0000274  -0.0000143  -0.0000183   0.0000442   0.0000345
    2   0.0001467   0.0000842  -0.0000953  -0.0000735   0.0001336   0.0001047
    3   0.0001393  -0.0000904   0.0000671  -0.0000358  -0.0001624   0.0001046
 Max gradient component =       3.806E-03
 RMS gradient           =       5.809E-04
 Gradient time:  CPU 18.64 s  wall 0.79 s
 Geometry Optimization Parameters
   NAtoms,    NIC,     NZ,  NCons,   NDum,   NFix, NCnnct, MaxDiis
       30     194       0       2       0       0       0       0

 Cartesian Hessian Update
 Hessian Updated using BFGS Update


** CONSTRAINED OPTIMIZATION IN DELOCALIZED INTERNAL COORDINATES **
   Searching for a Minimum

   Optimization Cycle:   5

                       Coordinates (Angstroms)
     ATOM                X               Y               Z
      1  C         0.3853674957   -0.7011553533   -0.0900147711
      2  C        -0.9572567728   -0.2410448006   -0.0220683332
      3  C         1.4805269607    0.3573635056   -0.3296345422
      4  C        -1.2442090278    1.2660052312   -0.2078589865
      5  O         2.5854796071    0.1341886374    0.5534096679
      6  O         1.4238871453    1.3060560953   -1.1478530502
      7  O        -0.5922224327    1.9875142823    0.8479510428
      8  O        -1.9480749821    1.8018289594   -1.0927407246
      9  C        -0.7834252265    3.4439463243    0.6536462386
     10  C         3.6235061519    1.1676380575    0.3273304090
     11  C         0.6763237361   -2.0914911802    0.0024275842
     12  C        -0.4029792627   -2.9877044082    0.1751014263
     13  C        -1.7315812455   -2.5302949566    0.2432415697
     14  C        -2.0342687875   -1.1546229209    0.1366892838
     15  H        -0.3641815991    3.7792978785   -0.3169187652
     16  H         4.0236097847    1.1245789794   -0.7064067379
     17  H        -2.5487322139   -3.2529276556    0.3733249174
     18  H        -1.8560862910    3.7242004373    0.6906075937
     19  H        -0.2431444376    3.9360886156    1.4829342377
     20  H         4.4324735493    0.9487514640    1.0479414841
     21  H         3.2275498404    2.1876031771    0.5084652838
     22  H        -0.1978817031   -4.0644160142    0.2474360914
     23  C        -3.4917149334   -0.6630241129    0.1778502048
     24  C         2.1143172003   -2.6326280296   -0.0835960090
     25  H         2.6769727031   -2.1347728447   -0.8886992862
     26  H         2.1012306348   -3.7155391739   -0.2775621899
     27  H         2.6532447784   -2.4526411982    0.8619445978
     28  H        -3.7957085286   -0.2817891351   -0.8118980311
     29  H        -3.6099771562    0.1582433094    0.9029824164
     30  H        -4.1668512977   -1.4836720492    0.4611030006
   Point Group: c1    Number of degrees of freedom:    84


   Energy is   -756.807785452

              Constraints and their Current Values
                                        Value     Constraint
   Dihedral:        2   1   3   5      135.200      135.200
   Dihedral:        1   2   4   7      -62.300      -62.300
 Hessian Updated using BFGS Update

 72 Hessian modes will be used to form the next step
  Hessian Eigenvalues:
     0.021442    0.042922    0.045000    0.045000    0.045000    0.045001
     0.045001    0.045004    0.045006    0.045009    0.045042    0.045067
     0.045152    0.046664    0.092767    0.093888    0.094237    0.094408
[...]
 H         -0.004  0.003  0.000   -0.003 -0.006  0.006    0.000 -0.134  0.031
 H         -0.006 -0.002  0.006   -0.003 -0.009  0.001    0.164  0.087 -0.068
 H         -0.012  0.002  0.005   -0.013 -0.001 -0.005    0.114 -0.019  0.055
 H         -0.320  0.187  0.023   -0.491 -0.038  0.058    0.007 -0.000  0.000
 C         -0.003 -0.027  0.002   -0.030  0.008  0.004   -0.001 -0.007  0.002
 C          0.022  0.014 -0.003    0.022 -0.023 -0.003   -0.003 -0.001  0.001
 H          0.193 -0.060  0.100    0.050 -0.000  0.027    0.013 -0.015  0.006
 H         -0.238  0.101 -0.026    0.000 -0.015  0.016   -0.002  0.006 -0.024
 H          0.152  0.055 -0.093    0.054 -0.019 -0.030    0.007  0.033 -0.003
 H          0.013 -0.180 -0.075   -0.009  0.050  0.024    0.045  0.027  0.003
 H          0.107 -0.149  0.119   -0.002  0.042 -0.039    0.016  0.020 -0.026
 H         -0.176  0.196 -0.025   -0.018 -0.005 -0.008    0.021 -0.024  0.012
 TransDip  -0.059  0.101 -0.013   -0.044  0.006 -0.018   -0.253 -0.035  0.191

 Mode:                70                     71                     72
 Frequency:      1778.32                3035.10                3040.87
 Force Cnst:     21.8290                 5.6222                 5.6428
 Red. Mass:      11.7155                 1.0359                 1.0357
 IR Active:          YES                    YES                    YES
 IR Intens:      419.575                 24.383                 23.177
 Raman Active:       YES                    YES                    YES
               X      Y      Z        X      Y      Z        X      Y      Z
 C         -0.052 -0.038  0.022   -0.000  0.001 -0.000    0.000 -0.000  0.000
 C          0.043 -0.064  0.010    0.000 -0.000  0.000   -0.001 -0.000  0.000
 C          0.136  0.229 -0.349    0.000 -0.000  0.000   -0.000 -0.000 -0.000
 C         -0.359  0.428 -0.329    0.000  0.000  0.000    0.000 -0.000  0.000
 O         -0.001 -0.014  0.025   -0.000  0.000 -0.000    0.000  0.000  0.000
 O         -0.070 -0.144  0.233   -0.000 -0.000  0.000    0.000  0.000 -0.000
 O          0.026 -0.019  0.023   -0.000 -0.000 -0.000    0.000  0.000 -0.000
 O          0.240 -0.255  0.223    0.000 -0.000  0.000   -0.000  0.000 -0.000
 C         -0.000  0.026 -0.007   -0.000 -0.000  0.000   -0.000  0.000 -0.000
 C          0.015  0.008 -0.006   -0.000  0.000  0.000    0.000  0.000 -0.000
 C          0.008  0.015 -0.003   -0.000  0.000 -0.000   -0.000  0.000  0.000
 C         -0.011  0.004 -0.000   -0.000  0.001 -0.000    0.000 -0.000  0.000
 C          0.014 -0.012 -0.002    0.000 -0.000  0.000   -0.002 -0.000  0.000
 C         -0.026  0.017 -0.003   -0.000  0.000  0.000   -0.000  0.001 -0.000
 H         -0.056 -0.091 -0.063    0.001  0.000 -0.003   -0.002 -0.001  0.006
 H         -0.066 -0.011 -0.052    0.000 -0.000 -0.000   -0.002  0.002  0.005
 H         -0.012  0.038  0.001    0.000 -0.000 -0.000    0.017  0.006 -0.003
 H         -0.097 -0.074 -0.028   -0.003  0.002  0.001    0.005 -0.004 -0.002
 H         -0.005 -0.185  0.045    0.002  0.000  0.002   -0.004 -0.001 -0.003
 H         -0.110 -0.057  0.047   -0.000  0.000 -0.000   -0.002  0.001 -0.003
 H         -0.072  0.013 -0.038    0.000 -0.002  0.000    0.000 -0.005  0.000
 H          0.012  0.002  0.000   -0.000 -0.012  0.001    0.000 -0.001 -0.000
 C         -0.005 -0.007  0.003    0.000 -0.000 -0.000    0.040 -0.028 -0.010
 C          0.001 -0.000 -0.000    0.044 -0.024 -0.007   -0.000  0.000  0.000
 H         -0.019  0.013 -0.011   -0.363 -0.166  0.501    0.003  0.001 -0.004
 H          0.011 -0.009  0.016    0.164  0.470  0.063   -0.001 -0.002 -0.000
 H         -0.013 -0.023  0.009   -0.318 -0.030 -0.484    0.002  0.000  0.004
 H          0.078  0.043  0.000   -0.000  0.001 -0.003   -0.088  0.211 -0.452
 H          0.029  0.035 -0.039    0.001  0.003  0.003    0.068  0.464  0.429
 H          0.041 -0.048  0.020   -0.004 -0.003  0.001   -0.446 -0.341  0.147
 TransDip  -0.243  0.384 -0.473    0.112 -0.109 -0.022    0.142 -0.039 -0.046

 Mode:                73                     74                     75
 Frequency:      3050.32                3050.62                3090.73
 Force Cnst:      5.6432                 5.6445                 6.1939
 Red. Mass:       1.0294                 1.0294                 1.1005
 IR Active:          YES                    YES                    YES
 IR Intens:       16.559                 51.731                 10.635
 Raman Active:       YES                    YES                    YES
               X      Y      Z        X      Y      Z        X      Y      Z
 C         -0.000  0.000 -0.000    0.000 -0.000  0.000   -0.000 -0.000  0.000
 C          0.000  0.000  0.000    0.000  0.000  0.000    0.000 -0.000 -0.000
 C          0.001 -0.001  0.002   -0.001  0.000 -0.001   -0.000 -0.000 -0.000
 C         -0.001 -0.000 -0.001   -0.002 -0.000 -0.001    0.000  0.000 -0.000
 O         -0.002 -0.000 -0.000    0.002  0.000  0.000   -0.000 -0.000  0.000
 O          0.000  0.000 -0.001   -0.000 -0.000  0.001   -0.000 -0.000  0.000
 O          0.001  0.002  0.000    0.001  0.002  0.000   -0.000  0.000  0.000
 O          0.000 -0.000  0.000    0.000 -0.000  0.000    0.000 -0.000  0.000
 C          0.002  0.025 -0.008    0.002  0.033 -0.011   -0.000 -0.000  0.000
 C         -0.029 -0.015  0.014    0.022  0.011 -0.011    0.000  0.000  0.000
 C          0.000  0.000 -0.000    0.000 -0.000  0.000   -0.000  0.000 -0.001
 C          0.000 -0.000 -0.000   -0.000  0.000 -0.000    0.000 -0.001 -0.000
 C          0.000  0.000 -0.000    0.000  0.000 -0.000   -0.000  0.000 -0.000
 C         -0.000  0.000  0.000   -0.000  0.000 -0.000   -0.000 -0.000  0.000
 H         -0.111 -0.063  0.366   -0.148 -0.085  0.488    0.000  0.000 -0.001
 H          0.205 -0.215 -0.422   -0.154  0.161  0.317   -0.000  0.000  0.001
 H         -0.000 -0.000  0.000   -0.001 -0.000  0.000   -0.001 -0.001  0.000
 H          0.293 -0.206 -0.089    0.390 -0.274 -0.118    0.000 -0.000 -0.000
 H         -0.205 -0.043 -0.173   -0.272 -0.057 -0.230    0.000 -0.000  0.000
 H          0.179 -0.095  0.291   -0.134  0.071 -0.218   -0.001  0.001 -0.002
 H         -0.021  0.494 -0.043    0.016 -0.371  0.032   -0.000 -0.004  0.000
 H         -0.000  0.000  0.000   -0.000 -0.001  0.000   -0.000  0.005 -0.001
 C          0.000  0.000  0.000   -0.000  0.001  0.000    0.000  0.000  0.001
 C         -0.000 -0.000 -0.000    0.000  0.000  0.000    0.003  0.019 -0.090
 H         -0.002 -0.001  0.003   -0.001 -0.001  0.002   -0.414 -0.179  0.535
 H          0.002  0.005  0.001   -0.000 -0.001 -0.000   -0.028 -0.082 -0.031
 H          0.001  0.000  0.001   -0.003 -0.000 -0.004    0.406  0.039  0.572
 H         -0.000  0.000 -0.000    0.001 -0.003  0.006   -0.001  0.002 -0.004
 H         -0.000 -0.000 -0.000   -0.001 -0.007 -0.006   -0.000 -0.003 -0.003
 H         -0.001 -0.001  0.000    0.005  0.004 -0.002   -0.001 -0.001  0.000
 TransDip  -0.112  0.066  0.007    0.156  0.170  0.011    0.011  0.035 -0.098

 Mode:                76                     77                     78
 Frequency:      3099.23                3108.01                3112.30
 Force Cnst:      6.2261                 6.2730                 6.2932
 Red. Mass:       1.1002                 1.1022                 1.1027
 IR Active:          YES                    YES                    YES
 IR Intens:       12.844                 17.526                 12.600
 Raman Active:       YES                    YES                    YES
               X      Y      Z        X      Y      Z        X      Y      Z
 C          0.000 -0.000 -0.000   -0.000 -0.000 -0.000   -0.000  0.000 -0.000
 C          0.000 -0.000  0.000   -0.000  0.000 -0.000    0.000  0.000  0.000
 C         -0.000 -0.000  0.000   -0.000  0.000 -0.000    0.000  0.000 -0.000
 C          0.000 -0.000  0.000   -0.000 -0.000 -0.000   -0.001  0.000 -0.000
 O          0.000  0.000  0.000    0.000 -0.000  0.000    0.000 -0.000  0.000
 O          0.000  0.000 -0.000    0.000 -0.000  0.000    0.000 -0.000  0.000
 O         -0.000 -0.000 -0.000    0.000  0.000  0.000    0.000  0.000  0.000
 O          0.000  0.000  0.000    0.000 -0.000  0.000    0.000 -0.000  0.000
 C         -0.000  0.000  0.000    0.000 -0.000 -0.000    0.000 -0.000  0.000
 C         -0.000  0.000  0.000    0.001 -0.001 -0.001    0.000 -0.000 -0.000
 C          0.000  0.000 -0.000   -0.001 -0.000  0.000   -0.000 -0.000  0.000
 C         -0.000 -0.000  0.000    0.000  0.004 -0.000    0.000  0.001 -0.000
 C          0.002  0.001 -0.001   -0.000 -0.000  0.000   -0.004 -0.002  0.001
 C         -0.000 -0.001 -0.000    0.000  0.000 -0.000   -0.000  0.001 -0.000
 H          0.001  0.000 -0.002   -0.001 -0.000  0.002    0.001  0.000 -0.002
 H          0.000 -0.000 -0.001   -0.005  0.005  0.011   -0.000  0.000  0.001
 H         -0.020 -0.008  0.003    0.008  0.004 -0.001    0.045  0.018 -0.007
 H          0.004 -0.003 -0.001   -0.002  0.001  0.000   -0.001  0.001  0.000
 H          0.000  0.000  0.000   -0.001 -0.000 -0.001   -0.001 -0.000 -0.001
 H         -0.000  0.000  0.000   -0.001  0.000 -0.001   -0.000  0.000 -0.000
 H          0.000 -0.001  0.000   -0.001  0.005 -0.001   -0.000  0.002 -0.000
 H          0.001  0.005 -0.000   -0.002 -0.042  0.002   -0.001 -0.009  0.001
 C         -0.037 -0.044 -0.071   -0.000  0.000 -0.000    0.036  0.064 -0.057
 C          0.000  0.000 -0.000   -0.053 -0.074 -0.017    0.000  0.000 -0.000
 H         -0.003 -0.001  0.004    0.162  0.062 -0.241   -0.001 -0.000  0.001
 H         -0.001 -0.003 -0.001    0.266  0.808  0.109   -0.001 -0.003 -0.001
 H          0.002  0.000  0.002    0.221  0.003  0.341    0.001  0.000  0.001
 H          0.092 -0.247  0.462    0.001 -0.002  0.004    0.138 -0.283  0.600
 H          0.067  0.559  0.502    0.000  0.001  0.001   -0.005 -0.075 -0.098
 H          0.286  0.211 -0.111    0.000  0.000 -0.000   -0.558 -0.414  0.178
 TransDip  -0.061 -0.071 -0.067   -0.059 -0.119 -0.019    0.083  0.063 -0.046

 Mode:                79                     80                     81
 Frequency:      3122.69                3125.58                3156.34
 Force Cnst:      6.3587                 6.3732                 6.4943
 Red. Mass:       1.1068                 1.1073                 1.1064
 IR Active:          YES                    YES                    YES
 IR Intens:       18.079                 13.681                 13.074
 Raman Active:       YES                    YES                    YES
               X      Y      Z        X      Y      Z        X      Y      Z
 C          0.000 -0.000 -0.000   -0.000 -0.000  0.000    0.000 -0.000 -0.000
 C          0.000  0.000  0.000    0.000 -0.000 -0.000    0.000 -0.000  0.000
 C         -0.000  0.000  0.000    0.000  0.000 -0.000   -0.000  0.000 -0.000
 C         -0.000 -0.000 -0.000    0.000 -0.000  0.000   -0.000  0.001 -0.000
 O         -0.000  0.000  0.000   -0.000 -0.000  0.000    0.000  0.000  0.000
 O         -0.000  0.000  0.000   -0.000 -0.000  0.000    0.000 -0.000  0.000
 O          0.000  0.000  0.000   -0.000 -0.000  0.000    0.000 -0.000  0.000
 O          0.000  0.000  0.000   -0.000  0.000  0.000    0.000 -0.000  0.000
 C          0.002 -0.001 -0.002    0.061 -0.024 -0.069   -0.070  0.007 -0.064
 C          0.024 -0.081 -0.043   -0.001  0.002  0.002   -0.000 -0.000 -0.000
 C         -0.000 -0.000  0.000    0.000  0.000  0.000   -0.000 -0.000  0.000
 C          0.000 -0.000  0.000   -0.000 -0.000  0.000    0.000  0.000 -0.000
 C         -0.000  0.000 -0.000    0.000 -0.000  0.000   -0.000 -0.000  0.000
 C         -0.000 -0.000  0.000   -0.000  0.000  0.000   -0.000  0.000  0.000
 H         -0.005 -0.003  0.018   -0.182 -0.120  0.657   -0.101 -0.047  0.281
 H         -0.272  0.274  0.579    0.009 -0.009 -0.018   -0.002  0.002  0.003
 H          0.000  0.000 -0.000   -0.000 -0.000  0.000    0.002  0.001 -0.000
 H         -0.019  0.013  0.005   -0.571  0.400  0.155    0.250 -0.180 -0.091
 H         -0.003 -0.000 -0.003    0.029 -0.001  0.002    0.673  0.141  0.569
 H          0.017 -0.022  0.011   -0.002  0.001 -0.003    0.002 -0.001  0.003
 H         -0.029  0.705 -0.080    0.001 -0.020  0.002    0.000  0.003 -0.001
 H          0.000  0.001 -0.000    0.000  0.001 -0.000   -0.000 -0.001  0.000
 C         -0.000 -0.000  0.000   -0.000 -0.000 -0.000    0.000  0.000 -0.000
 C          0.001  0.001 -0.000    0.000  0.000  0.000   -0.000 -0.000 -0.000
 H         -0.004 -0.001  0.006   -0.001 -0.000  0.001    0.000  0.000 -0.000
 H         -0.003 -0.010 -0.001   -0.001 -0.002 -0.000    0.000  0.000  0.000
 H         -0.002  0.000 -0.004   -0.000  0.000 -0.001    0.000 -0.000  0.000
 H         -0.000  0.000 -0.001    0.000 -0.001  0.003    0.000 -0.000  0.001
 H          0.000  0.001  0.001    0.000  0.003  0.003   -0.000 -0.001 -0.001
 H          0.002  0.001 -0.001    0.001  0.001 -0.000   -0.001 -0.001  0.001
 TransDip   0.035 -0.115 -0.064    0.069 -0.041 -0.087   -0.089 -0.015 -0.073

 Mode:                82                     83                     84
 Frequency:      3158.12                3160.52                3177.58
 Force Cnst:      6.5013                 6.3983                 6.5119
 Red. Mass:       1.1064                 1.0872                 1.0946
 IR Active:          YES                    YES                    YES
 IR Intens:       12.722                  8.240                 20.506
 Raman Active:       YES                    YES                    YES
               X      Y      Z        X      Y      Z        X      Y      Z
 C         -0.000 -0.000  0.000   -0.000  0.000 -0.000   -0.000  0.001 -0.000
 C         -0.000 -0.000  0.000   -0.001  0.000  0.000    0.001  0.000 -0.000
 C          0.001  0.001 -0.001    0.000  0.000  0.000    0.000  0.000 -0.000
 C          0.000 -0.000  0.000    0.000 -0.000  0.000   -0.000  0.000 -0.000
 O          0.000 -0.000  0.000   -0.000  0.000 -0.000   -0.000 -0.000 -0.000
 O         -0.000 -0.000  0.000   -0.000 -0.000  0.000   -0.000 -0.000  0.000
 O         -0.000  0.000  0.000    0.000  0.000  0.000   -0.000 -0.000 -0.000
 O         -0.000  0.000 -0.000   -0.000  0.000 -0.000    0.000 -0.000  0.000
 C          0.000 -0.000 -0.000   -0.000 -0.000 -0.000    0.000  0.000  0.000
 C         -0.030  0.036 -0.083    0.000 -0.000  0.001    0.000 -0.000  0.000
 C         -0.000  0.000  0.000    0.002 -0.000 -0.000    0.003  0.000 -0.000
 C         -0.000 -0.001  0.000   -0.009 -0.059  0.003   -0.005 -0.063  0.003
 C          0.000  0.000 -0.000    0.054  0.027 -0.007   -0.057 -0.024  0.008
 C          0.000 -0.000 -0.000    0.001 -0.002  0.000   -0.001  0.003 -0.000
 H         -0.000 -0.000  0.001   -0.000  0.000  0.000   -0.000 -0.000  0.000
 H         -0.121  0.132  0.230    0.001 -0.001 -0.002    0.000 -0.000 -0.000
 H         -0.005 -0.003  0.001   -0.640 -0.294  0.086    0.630  0.284 -0.084
 H         -0.003  0.002  0.001    0.001 -0.000 -0.000    0.000 -0.000 -0.000
 H         -0.002 -0.001 -0.002    0.002  0.000  0.001   -0.001 -0.000 -0.001
 H          0.454 -0.240  0.736   -0.005  0.003 -0.008   -0.001  0.001 -0.002
 H          0.012 -0.316  0.013   -0.000  0.003 -0.000   -0.000 -0.000  0.000
 H          0.001  0.009 -0.000    0.081  0.691 -0.037    0.077  0.706 -0.038
 C          0.000  0.000 -0.000    0.003  0.003 -0.001   -0.002 -0.002  0.001
 C          0.000  0.000 -0.000   -0.001 -0.003 -0.000   -0.001 -0.002 -0.000
 H         -0.000  0.000  0.000    0.004  0.003 -0.006    0.001  0.002 -0.002
 H         -0.000 -0.000  0.000    0.009  0.034  0.005    0.006  0.025  0.004
 H         -0.000 -0.000  0.000    0.003  0.000  0.006    0.000  0.000  0.002
 H          0.000 -0.000  0.000    0.002 -0.004  0.010   -0.000  0.002 -0.005
 H         -0.000 -0.000 -0.000   -0.001 -0.007 -0.007    0.002  0.003  0.003
 H         -0.001 -0.000  0.000   -0.036 -0.024  0.012    0.026  0.017 -0.008
 TransDip  -0.056  0.034 -0.093    0.076 -0.051 -0.006   -0.085 -0.117  0.015

 STANDARD THERMODYNAMIC QUANTITIES AT   298.15 K  AND     1.00 ATM

   This Molecule has  0 Imaginary Frequencies
   Zero point vibrational energy:      150.386 kcal/mol

   Atom    1 Element C  Has Mass   12.00000
   Atom    2 Element C  Has Mass   12.00000
   Atom    3 Element C  Has Mass   12.00000
   Atom    4 Element C  Has Mass   12.00000
   Atom    5 Element O  Has Mass   15.99491
   Atom    6 Element O  Has Mass   15.99491
   Atom    7 Element O  Has Mass   15.99491
   Atom    8 Element O  Has Mass   15.99491
   Atom    9 Element C  Has Mass   12.00000
   Atom   10 Element C  Has Mass   12.00000
   Atom   11 Element C  Has Mass   12.00000
   Atom   12 Element C  Has Mass   12.00000
   Atom   13 Element C  Has Mass   12.00000
   Atom   14 Element C  Has Mass   12.00000
   Atom   15 Element H  Has Mass    1.00783
   Atom   16 Element H  Has Mass    1.00783
   Atom   17 Element H  Has Mass    1.00783
   Atom   18 Element H  Has Mass    1.00783
   Atom   19 Element H  Has Mass    1.00783
   Atom   20 Element H  Has Mass    1.00783
   Atom   21 Element H  Has Mass    1.00783
   Atom   22 Element H  Has Mass    1.00783
   Atom   23 Element C  Has Mass   12.00000
   Atom   24 Element C  Has Mass   12.00000
   Atom   25 Element H  Has Mass    1.00783
   Atom   26 Element H  Has Mass    1.00783
   Atom   27 Element H  Has Mass    1.00783
   Atom   28 Element H  Has Mass    1.00783
   Atom   29 Element H  Has Mass    1.00783
   Atom   30 Element H  Has Mass    1.00783
   Molecular Mass:   222.089260 amu
   Principal axes and moments of inertia in amu*Bohr^2:
                             1           2           3
    Eigenvalues --     2853.74542  3197.17828  5563.30183
          X               0.99994     0.01123     0.00105
          Y              -0.01124     0.99990     0.00801
          Z              -0.00096    -0.00802     0.99997
   Rotational Symmetry Number is   1
   The Molecule is an Asymmetric Top
   Translational Enthalpy:        0.889 kcal/mol
   Rotational Enthalpy:           0.889 kcal/mol
   Vibrational Enthalpy:        159.269 kcal/mol
   gas constant (RT):             0.592 kcal/mol
   Translational Entropy:        42.096  cal/mol.K
   Rotational Entropy:           32.295  cal/mol.K
   Vibrational Entropy:          59.384  cal/mol.K

   Total Enthalpy:              161.639 kcal/mol
   Total Entropy:               133.775  cal/mol.K
Archival summary:
1\1\nid03057\FREQ\ProcedureUnspecified\BasisUnspecified\41214\junteng\WedOct421:27:442017WedOct421:27:442017\0\\#,FREQ,ProcedureUnspecified,BasisUnspecified,\\0,1\O\C,1,1.35014\O,2,1.2072,1,123.432\C,1,1.4388,2,115.908,3,-7.75723,0\H,4,1.08774,1,105.4,2,178.576,0\H,4,1.09061,1,110.565,2,58.9082,0\H,4,1.09119,1,109.921,2,-62.0704,0\C,2,1.49612,1,111.431,3,-178.985,0\C,8,1.40688,2,120.139,1,-44.4147,0\C,9,1.40384,8,121.015,2,-178.776,0\C,10,1.39568,9,117.619,8,-0.904559,0\H,11,1.08505,10,119.102,9,179.722,0\C,11,1.38887,10,121.477,9,0.209091,0\H,13,1.08487,11,119.417,10,-179.765,0\C,13,1.39599,11,121.612,10,0.81434,0\C,9,1.50092,8,119.502,2,-4.57303,0\O,16,1.2075,9,124.328,8,-60.0516,0\O,16,1.34527,9,111.832,8,121.778,0\C,18,1.43972,16,115.769,9,178.597,0\H,19,1.08762,18,105.435,16,179.072,0\H,19,1.09083,18,110.268,16,59.5361,0\H,19,1.09118,18,110.502,16,-61.2434,0\C,15,1.51022,13,119.388,11,179.212,0\H,23,1.09161,15,111.061,13,-111.845,0\H,23,1.09161,15,110.065,13,8.62403,0\H,23,1.09268,15,112.007,13,128.951,0\C,10,1.51063,9,122.404,8,177.856,0\H,27,1.09138,10,110.382,9,-167.108,0\H,27,1.09284,10,111.242,9,72.6162,0\H,27,1.09318,10,111.614,9,-47.2472,0\\\@

 Total job time:  8405.16s(wall), 47402.76s(cpu) 
 Wed Oct  4 21:27:44 2017

        *************************************************************
        *                                                           *
        *  Thank you very much for using Q-Chem.  Have a nice day.  *
        *                                                           *
        *************************************************************


