nid00666 10.128.2
Q-Chem Developer Version! Running on 10.128.2.*
                  Welcome to Q-Chem
     A Quantum Leap Into The Future Of Chemistry


 Q-Chem 5.0, Q-Chem, Inc., Pleasanton, CA (2017)

 Yihan Shao,  Zhengting Gan,  E. Epifanovsky,  A. T. B. Gilbert,  M. Wormit,  
 J. Kussmann,  A. W. Lange,  A. Behn,  Jia Deng,  Xintian Feng,  D. Ghosh,  
 M. Goldey,  P. R. Horn,  L. D. Jacobson,  I. Kaliman,  T. Kus,  A. Landau,  
 Jie Liu,  E. I. Proynov,  R. M. Richard,  R. P. Steele,  E. J. Sundstrom,  
 H. L. Woodcock III,  P. M. Zimmerman,  D. Zuev,  B. Albrecht,  E. Alguire,  
 S. A. Baeppler,  Z. Benda,  Y. A. Bernard,  E. J. Berquist,  K. B. Bravaya,  
 D. Casanova,  Chun-Min Chang,  Yunqing Chen,  A. Chien,  K. D. Closser,  
 M. P. Coons,  S. Dasgupta,  M. Diedenhofen,  Hainam Do,  R. G. Edgar,  
 Po-Tung Fang,  S. Fatehi,  Qingguo Feng,  Qinghui Ge,  A. Ghysels,  
 J. Gomes,  J. Gonthier,  A. Gunina,  M. W. D. Hanson-Heine,  
 P. H. P. Harbach,  A. W. Hauser,  J. E. Herr,  E. G. Hohenstein,  
 Z. C. Holden,  Kerwin Hui,  T.-C. Jagau,  Hyunjun Ji,  B. Kaduk,  
 K. Khistyaev,  Jaehoon Kim,  P. Klunzinger,  K. Koh,  D. Kosenkov,  
 T. Kowalczyk,  C. M. Krauter,  A. Kunitsa,  Ka Un Lao,  A. Laurent,  
 K. V. Lawler,  Joonho Lee,  D. Lefrancois,  S. Lehtola,  D. S. Levine,  
 Yi-Pei Li,  You-Sheng Lin,  Fenglai Liu,  E. Livshits,  A. Luenser,  
 P. Manohar,  E. Mansoor,  S. F. Manzer,  Shan-Ping Mao,  Yuezhi Mao,  
 N. Mardirossian,  A. V. Marenich,  L. A. Martinez-Martinez,  S. A. Maurer,  
 N. J. Mayhall,  S. C. McKenzie,  J.-M. Mewes,  A. F. Morrison,  K. Nanda,  
 T. S. Nguyen-Beck,  R. Olivares-Amaya,  J. A. Parkhill,  T. M. Perrine,  
 F. Plasser,  S. Prager,  A. Prociuk,  D. R. Rehn,  F. Rob,  M. Schneider,  
 N. Sergueev,  S. M. Sharada,  S. Sharma,  D. W. Small,  T. Stauch,  
 T. Stein,  Yu-Chuan Su,  A. J. W. Thom,  T. Tsuchimochi,  L. Vogt,  
 O. Vydrov,  M. A. Watson,  J. Wenzel,  M. de Wergifosse,  T. A. Wesolowski,  
 A. White,  J. Witte,  A. Yamada,  Jun Yang,  K. Yao,  S. Yeganeh,  
 S. R. Yost,  Zhi-Qiang You,  A. Zech,  Igor Ying Zhang,  Xing Zhang,  
 Yan Zhao,  Ying Zhu,  B. R. Brooks,  G. K. L. Chan,  C. J. Cramer,  
 M. S. Gordon,  W. J. Hehre,  A. Klamt,  M. W. Schmidt,  C. D. Sherrill,  
 D. G. Truhlar,  A. Aspuru-Guzik,  R. Baer,  A. T. Bell,  N. A. Besley,  
 Jeng-Da Chai,  A. Dreuw,  B. D. Dunietz,  T. R. Furlani,  Chao-Ping Hsu,  
 Yousung Jung,  Jing Kong,  D. S. Lambrecht,  WanZhen Liang,  C. Ochsenfeld,  
 V. A. Rassolov,  L. V. Slipchenko,  J. E. Subotnik,  T. Van Voorhis,  
 J. M. Herbert,  A. I. Krylov,  P. M. W. Gill,  M. Head-Gordon

 Contributors to earlier versions of Q-Chem not listed above: 
 R. D. Adamson,  B. Austin,  J. Baker,  G. J. O. Beran,  K. Brandhorst,  
 S. T. Brown,  E. F. C. Byrd,  A. K. Chakraborty,  C.-L. Cheng,  
 Siu Hung Chien,  D. M. Chipman,  D. L. Crittenden,  H. Dachsel,  
 R. A. DiStasio Jr.,  R. J. Doerksen,  A. D. Dutoi,  L. Fusti-Molnar,  
 W. A. Goddard III,  A. Golubeva-Zadorozhnaya,  S. R. Gwaltney,  G. Hawkins,  
 A. Heyden,  S. Hirata,  G. Kedziora,  F. J. Keil,  C. Kelley,  Jihan Kim,  
 R. A. King,  R. Z. Khaliullin,  P. P. Korambath,  W. Kurlancheek,  
 A. M. Lee,  M. S. Lee,  S. V. Levchenko,  Ching Yeh Lin,  D. Liotard,  
 R. C. Lochan,  I. Lotan,  P. E. Maslen,  N. Nair,  D. P. O'Neill,  
 D. Neuhauser,  E. Neuscamman,  C. M. Oana,  R. Olson,  B. Peters,  
 R. Peverati,  P. A. Pieniazek,  Y. M. Rhee,  J. Ritchie,  M. A. Rohrdanz,  
 E. Rosta,  N. J. Russ,  H. F. Schaefer III,  N. E. Schultz,  N. Shenvi,  
 A. C. Simmonett,  A. Sodt,  D. Stuck,  K. S. Thanthiriwatte,  V. Vanovschi,  
 Tao Wang,  A. Warshel,  C. F. Williams,  Q. Wu,  X. Xu,  W. Zhang

 Please cite Q-Chem as follows:
 Y. Shao et al., Mol. Phys. 113, 184-215 (2015)
 DOI: 10.1080/00268976.2014.952696

 Q-Chem 5.0.0 for Intel X86 EM64T Linux

 Parts of Q-Chem use Armadillo 5.200.1 (Boston Tea Smuggler).
 http://arma.sourceforge.net/

 Q-Chem begins on Wed Oct  4 17:37:16 2017  

Host: nid00666
0

     Scratch files written to /global/cscratch1/sd/junteng/scratch/14/opt_1101-o.save//

Checking the input file for inconsistencies... 	...done.

--------------------------------------------------------------
User input:
--------------------------------------------------------------
$molecule
0  1
C    0.711  -1.958   0.589
C   -0.299  -1.995   1.756
C    1.089  -0.603   0.022
C   -0.528  -0.668   2.454
O    2.255  -0.726  -0.682
O    0.458   0.435   0.138
O    0.672  -0.221   2.944
O   -1.603  -0.140   2.687
C    0.580   1.027   3.634
C    2.698   0.490  -1.286
C   -0.031  -2.720  -0.508
C   -0.144  -4.202  -0.153
C   -1.210  -4.188   0.944
C   -1.515  -2.680   1.086
O   -1.391  -2.278  -0.299
H    1.639  -2.461   0.888
H    0.068  -2.659   2.552
H   -0.050   0.928   4.523
H    1.951   0.864  -1.993
H   -0.511  -4.776  -1.011
H    0.804  -4.638   0.173
H   -2.087  -4.746   0.595
H   -0.869  -4.649   1.876
H    1.587   1.311   3.953
H    0.196   1.807   2.969
H    3.619   0.278  -1.837
H    2.918   1.240  -0.519
H    0.300  -2.531  -1.532
C   -2.908  -2.427   1.624
H   -3.642  -3.061   1.114
H   -2.968  -2.632   2.696
H   -3.235  -1.402   1.426
$end


$opt
CONSTRAINT
tors    2    1    3    5    157.3
tors    1    2    4    7    -60.0
ENDCONSTRAINT
$end

$rem
JOBTYPE                   OPT
METHOD                    B3LYP
DFT_D                     D3_OP
BASIS                     STO-3G
GEOM_OPT_MAX_CYCLES       500
SYMMETRY                  False
THRESH                    12
SCF_CONVERGENCE           8
MAX_SUB_FILE_NUM          128
MEM_STATIC                400
MEM_TOTAL                 4000
$end

--------------------------------------------------------------
 Adding empirical dispersion correction 
 ----------------------------------------------------------------
 Doing -D3(op) with
 s6 =   1.00000
 s8 =   0.78311
 a1 =   0.30000
 a2 =   4.25000
 n  =  10.00000
 -D3 energy without 3body term =     -0.0354339443 hartrees
 ----------------------------------------------------------------
             Standard Nuclear Orientation (Angstroms)
    I     Atom           X                Y                Z
 ----------------------------------------------------------------
    1      C      -0.1011848019     0.8054220658     0.6072204492
    2      C       0.6620154878    -0.5364971559     0.5955533906
    3      C      -1.4015644380     0.8875516009    -0.1690949129
    4      C      -0.1410572282    -1.7318799813     0.1194146361
    5      O      -2.1190916287     1.9620046977     0.2792423188
    6      O      -1.7586593461     0.1451011244    -1.0692679610
    7      O      -1.2361871469    -1.8724092621     0.9323420513
    8      O       0.1839039632    -2.5367797787    -0.7380435496
    9      C      -2.0705618232    -2.9788079980     0.5833882767
   10      C      -3.3601324547     2.1543130106    -0.4008725103
   11      C       0.8921947687     1.7507805700    -0.0666573788
   12      C       2.1006898551     1.9956119456     0.8359583888
   13      C       2.8581814059     0.6714609442     0.7228580976
   14      C       1.9353848860    -0.1568246325    -0.1989024928
   15      O       1.4677351984     0.8937269451    -1.0780214566
   16      H      -0.3158357451     1.0989107000     1.6422969653
   17      H       0.9675145382    -0.8059543627     1.6169564177
   18      H      -1.5277085504    -3.9211288805     0.7032368423
   19      H      -3.1925366947     2.3218430413    -1.4693196780
   20      H       2.7207990583     2.8058706669     0.4368664437
   21      H       1.8242280680     2.2474343817     1.8632024401
   22      H       3.8327460722     0.8578355890     0.2561866896
   23      H       3.0366664167     0.1979666648     1.6931015044
   24      H      -2.9267737949    -2.9833521908     1.2640838105
   25      H      -2.4439876414    -2.8714877839    -0.4398988433
   26      H      -3.8403685125     3.0440784321     0.0168317195
   27      H      -4.0212059080     1.2961810682    -0.2403095674
   28      H       0.4702491978     2.6594561976    -0.5026946926
   29      C       2.6945415386    -1.2278384490    -0.9542253256
   30      H       3.6222933193    -0.8229488311    -1.3739312116
   31      H       2.9531506788    -2.0694657777    -0.3064647586
   32      H       2.1281180017    -1.5881402477    -1.8179990175
 ----------------------------------------------------------------
 Molecular Point Group                 C1    NOp =  1
 Largest Abelian Subgroup              C1    NOp =  1
 Nuclear Repulsion Energy =  1248.6091517482 hartrees
 There are       61 alpha and       61 beta electrons
 Requested basis set is STO-3G
 There are 48 shells and 96 basis functions

 Total QAlloc Memory Limit   4000 MB
 Mega-Array Size       392 MB
 MEM_STATIC part       400 MB
 A cutoff of  1.0D-12 yielded   1028 shell pairs
 There are      4526 function pairs
 
 -------------------------------------------------------
 OpenMP Integral Computing Module                       
 Release: version 1.0, May 2013, Q-Chem Inc. Pittsburgh 
 -------------------------------------------------------
 Integral Job Info:
 Integral job number is                      11
 Integral operator is                         1
 short-range coefficients                     0
 long-range coefficients              100000000
 Omega coefficients                           0
 if combine SR and LR in K                    0
 Integral screening is                        0
 Integral computing path is                   2
 max size of driver memory is            800000
 size of driver memory is                 45569
 size of scratch memory is               945100
 max col of scratch BK array                289
 max len of scratch array in speh3           22
 max len of scratch index in speh4            8
 max int batch size is                      520
 min int batch size is                       52
 fixed nKL is                                52
 max L of basis functions is                  1
 order of int derivative is                   0
 number of shells is                         48
 number of basis is                          96
 number of cartesian basis is                96
 number of contracted shell pairs          1028
 number of primitive shell pairs           5665
 maxK2 (contraction) of shell pair            9
 max number of K2 of shell pair               1
 max number of CS2 of shell pair            150
 max number of PS2 of shell pair            666
 mem total for path MDJ                   31466
 -------------------------------------------------------
 Smallest overlap matrix eigenvalue = 1.94E-01

 Scale SEOQF with 1.000000e-01/1.000000e-01/1.000000e-01

 Standard Electronic Orientation quadrupole field applied
 Nucleus-field energy     =     0.0000000345 hartrees
 Guess from superposition of atomic densities
 Warning:  Energy on first SCF cycle will be non-variational
 A restricted hybrid HF-DFT SCF calculation will be
 performed using Pulay DIIS extrapolation
 Exchange:     0.2000 Hartree-Fock + 0.0800 Slater + 0.7200 B88
 Correlation:  0.1900 VWN1RPA + 0.8100 LYP
 Using SG-1 standard quadrature grid
 Dispersion:   Grimme D3
 SCF converges when DIIS error is below 1.0E-08
 -------------------------------------------------------
 OpenMP Integral computing Module                
 Release: version 1.0, May 2013, Q-Chem Inc. Pittsburgh 
 -------------------------------------------------------
 -------------------------------------------------------
 OpenMP BLAS3 based DFT computing Module                
 Release: version 1.0, May 2013, Q-Chem Inc. Pittsburgh 
 -------------------------------------------------------
 ---------------------------------------
  Cycle       Energy         DIIS Error
 ---------------------------------------
    1    -793.7951598601      1.10E-01
    2    -794.2843676763      1.34E-02
    3    -793.3333321269      3.22E-02
    4    -794.5216836078      4.73E-03
    5    -794.5484650511      1.51E-03
    6    -794.5513969032      2.61E-04
    7    -794.5514890854      3.74E-05
    8    -794.5514903283      2.22E-05
    9    -794.5514908913      7.66E-06
   10    -794.5514909686      1.53E-06
   11    -794.5514909718      3.16E-07
   12    -794.5514909719      9.25E-08
   13    -794.5514909719      1.78E-08
   14    -794.5514909720      6.56E-09 Convergence criterion met
 ---------------------------------------
 SCF time:  CPU 60.98 s  wall 2.57 s
 SCF   energy in the final basis set = -794.5514909720
 Total energy in the final basis set = -794.5514909720
 
 --------------------------------------------------------------
 
                    Orbital Energies (a.u.)
 --------------------------------------------------------------
 
 Alpha MOs
 -- Occupied --
-18.943 -18.932 -18.868 -18.867 -18.860 -10.109 -10.103 -10.074
-10.066 -10.062 -10.059 -10.033 -10.031 -10.012 -10.008 -10.003
 -1.043  -1.032  -0.988  -0.952  -0.944  -0.774  -0.743  -0.732
 -0.691  -0.670  -0.644  -0.600  -0.547  -0.535  -0.503  -0.481
 -0.469  -0.452  -0.439  -0.430  -0.426  -0.421  -0.414  -0.389
 -0.380  -0.373  -0.369  -0.361  -0.345  -0.338  -0.319  -0.311
 -0.307  -0.306  -0.290  -0.285  -0.273  -0.248  -0.240  -0.217
 -0.183  -0.173  -0.152  -0.141  -0.132
 -- Virtual --
  0.113   0.128   0.246   0.275   0.297   0.311   0.337   0.354
  0.375   0.382   0.400   0.402   0.409   0.414   0.433   0.434
  0.439   0.446   0.447   0.456   0.457   0.463   0.467   0.476
  0.483   0.487   0.501   0.503   0.508   0.531   0.544   0.578
  0.585   0.705   0.710
 --------------------------------------------------------------
 
          Ground-State Mulliken Net Atomic Charges

     Atom                 Charge (a.u.)
  ----------------------------------------
      1 C                    -0.083253
      2 C                    -0.085483
      3 C                     0.238543
      4 C                     0.240385
      5 O                    -0.189915
      6 O                    -0.229133
      7 O                    -0.193361
      8 O                    -0.227914
      9 C                    -0.126235
     10 C                    -0.125671
     11 C                     0.027112
     12 C                    -0.148912
     13 C                    -0.146349
     14 C                     0.112176
     15 O                    -0.212592
     16 H                     0.088932
     17 H                     0.086216
     18 H                     0.090756
     19 H                     0.094062
     20 H                     0.077409
     21 H                     0.072391
     22 H                     0.076456
     23 H                     0.069266
     24 H                     0.092224
     25 H                     0.097060
     26 H                     0.095371
     27 H                     0.092912
     28 H                     0.086999
     29 C                    -0.230002
     30 H                     0.079447
     31 H                     0.082736
     32 H                     0.098367
  ----------------------------------------
  Sum of atomic charges =    -0.000000

 -----------------------------------------------------------------
                    Cartesian Multipole Moments
 -----------------------------------------------------------------
    Charge (ESU x 10^10)
                 0.0000
    Dipole Moment (Debye)
         X      -0.9000      Y       1.0167      Z       2.2398
       Tot       2.6192
    Quadrupole Moments (Debye-Ang)
        XX     -78.1689     XY      -0.4924     YY     -83.5528
        XZ       1.8518     YZ      -3.7325     ZZ     -89.8619
    Octopole Moments (Debye-Ang^2)
       XXX     -39.6060    XXY       2.0281    XYY     -24.2189
       YYY      -4.1508    XXZ      -2.1840    XYZ       5.6095
       YYZ       2.6959    XZZ      -4.9119    YZZ      -1.2831
       ZZZ      -3.9507
    Hexadecapole Moments (Debye-Ang^3)
      XXXX   -1973.1049   XXXY     -37.3837   XXYY    -550.3213
      XYYY      13.0527   YYYY   -1542.9943   XXXZ     -20.5358
      XXYZ     -15.3485   XYYZ       3.7340   YYYZ     -48.0150
      XXZZ    -415.8538   XYZZ      -7.7171   YYZZ    -326.9796
      XZZZ      -2.4473   YZZZ       1.8990   ZZZZ    -354.7750
 -----------------------------------------------------------------
 Calculating analytic gradient of the SCF energy
 Gradient of SCF Energy
            1           2           3           4           5           6
    1   0.0105824  -0.0047585  -0.0132229  -0.0145618  -0.0080439   0.0193486
    2  -0.0094286   0.0006148   0.0177705  -0.0098726  -0.0439694   0.0387808
    3  -0.0409748  -0.0271339  -0.0065933   0.0069328  -0.0438092   0.0463905
            7           8           9          10          11          12
    1   0.0251284  -0.0101926   0.0105892   0.0172321  -0.0122285  -0.0111337
    2  -0.0315334   0.0398761   0.0145324  -0.0014748  -0.0114503  -0.0268783
    3  -0.0462533   0.0454110   0.0056542   0.0108542   0.0065478  -0.0228126
           13          14          15          16          17          18
    1  -0.0225272  -0.0132804   0.0045446   0.0009547   0.0009502  -0.0038117
    2   0.0054772  -0.0016595  -0.0046165  -0.0044751  -0.0029562   0.0135603
    3  -0.0246370   0.0052221   0.0629161  -0.0049379  -0.0071049   0.0038572
           19          20          21          22          23          24
    1   0.0029927   0.0007724   0.0019036  -0.0026177  -0.0008809   0.0067039
    2   0.0017931  -0.0059840  -0.0021286   0.0055801   0.0031867  -0.0023497
    3   0.0137962   0.0006951  -0.0064503   0.0039902  -0.0052610  -0.0078703
           25          26          27          28          29          30
    1   0.0031110   0.0020007   0.0092035   0.0069460  -0.0095853  -0.0048298
    2   0.0045157  -0.0084361   0.0092190  -0.0070614   0.0139670  -0.0048305
    3   0.0126380  -0.0059197   0.0042661   0.0054435   0.0229604  -0.0035494
           31          32
    1   0.0008812   0.0078296
    2   0.0043954   0.0058359
    3  -0.0032957  -0.0009721
 Max gradient component =       6.292E-02
 RMS gradient           =       1.745E-02
 Gradient time:  CPU 16.26 s  wall 0.70 s
 Geometry Optimization Parameters
   NAtoms,    NIC,     NZ,  NCons,   NDum,   NFix, NCnnct, MaxDiis
       32     251       0       2       0       0       0       0


** CONSTRAINED OPTIMIZATION IN DELOCALIZED INTERNAL COORDINATES **
   Searching for a Minimum

   Optimization Cycle:   1

                       Coordinates (Angstroms)
     ATOM                X               Y               Z
      1  C        -0.1011848019    0.8054220658    0.6072204492
      2  C         0.6620154878   -0.5364971559    0.5955533906
      3  C        -1.4015644380    0.8875516009   -0.1690949129
      4  C        -0.1410572282   -1.7318799813    0.1194146361
      5  O        -2.1190916287    1.9620046977    0.2792423188
      6  O        -1.7586593461    0.1451011244   -1.0692679610
      7  O        -1.2361871469   -1.8724092621    0.9323420513
      8  O         0.1839039632   -2.5367797787   -0.7380435496
      9  C        -2.0705618232   -2.9788079980    0.5833882767
     10  C        -3.3601324547    2.1543130106   -0.4008725103
     11  C         0.8921947687    1.7507805700   -0.0666573788
     12  C         2.1006898551    1.9956119456    0.8359583888
     13  C         2.8581814059    0.6714609442    0.7228580976
     14  C         1.9353848860   -0.1568246325   -0.1989024928
     15  O         1.4677351984    0.8937269451   -1.0780214566
     16  H        -0.3158357451    1.0989107000    1.6422969653
     17  H         0.9675145382   -0.8059543627    1.6169564177
     18  H        -1.5277085504   -3.9211288805    0.7032368423
     19  H        -3.1925366947    2.3218430413   -1.4693196780
     20  H         2.7207990583    2.8058706669    0.4368664437
     21  H         1.8242280680    2.2474343817    1.8632024401
     22  H         3.8327460722    0.8578355890    0.2561866896
     23  H         3.0366664167    0.1979666648    1.6931015044
     24  H        -2.9267737949   -2.9833521908    1.2640838105
     25  H        -2.4439876414   -2.8714877839   -0.4398988433
     26  H        -3.8403685125    3.0440784321    0.0168317195
     27  H        -4.0212059080    1.2961810682   -0.2403095674
     28  H         0.4702491978    2.6594561976   -0.5026946926
     29  C         2.6945415386   -1.2278384490   -0.9542253256
     30  H         3.6222933193   -0.8229488311   -1.3739312116
     31  H         2.9531506788   -2.0694657777   -0.3064647586
     32  H         2.1281180017   -1.5881402477   -1.8179990175
   Point Group: c1    Number of degrees of freedom:    90


   Energy is   -794.551490972

              Constraints and their Current Values
                                        Value     Constraint
   Dihedral:        2   1   3   5      161.506      157.300
   Dihedral:        1   2   4   7      -58.727      -60.000

 Attempting to Generate Delocalized Internal Coordinates

   Using Lagrange Multiplier Algorithm


 92 Hessian modes will be used to form the next step
  Hessian Eigenvalues:
    -0.977753   -0.977753    0.045000    0.045000    0.045000    0.045000
     0.045000    0.045010    0.045298    0.045515    0.048619    0.059359
     0.061550    0.067521    0.068252    0.070602    0.073231    0.073438
     0.076637    0.079785    0.081436    0.082111    0.083599    0.083601
     0.084460    0.085259    0.090062    0.091363    0.091986    0.097105
     0.108323    0.112588    0.113785    0.113804    0.116926    0.116971
     0.122385    0.127205    0.139525    0.143598    0.160000    0.160000
     0.160000    0.160000    0.160000    0.160000    0.160000    0.160000
     0.160000    0.167195    0.181257    0.244222    0.248535    0.249951
     0.250000    0.250000    0.250000    0.250000    0.252783    0.262190
     0.267687    0.287879    0.290216    0.306804    0.306860    0.308963
     0.329030    0.337223    0.340066    0.340731    0.341491    0.341652
     0.341740    0.342327    0.342899    0.343079    0.343239    0.343448
     0.343570    0.343585    0.343737    0.344460    0.344599    0.345095
     0.411320    0.412508    0.507662    0.514426    0.952633    0.953292
     1.022753    1.022753

 Minimum Search - Taking P-RFO Step
 Searching for Lamda that Maximizes Along the Constraint modes Only
 Value Taken    Lamda =   0.00352629
 Searching for Lamda that Minimizes Along All other modes
 Value Taken    Lamda =  -0.06851574
 Calculated Step too Large.  Step scaled by  0.704185
 Step Taken.  Stepsize is  0.300000

                             Maximum     Tolerance    Cnvgd?
         Gradient            0.077184       0.000300      NO
         Displacement        0.092684       0.001200      NO
         Energy change     *********       0.000001      NO


 New Cartesian Coordinates Obtained by Inverse Iteration

 Displacement from previous Coordinates is:  0.970227
 Adding empirical dispersion correction 
 ----------------------------------------------------------------
 Doing -D3(op) with
 s6 =   1.00000
 s8 =   0.78311
 a1 =   0.30000
 a2 =   4.25000
 n  =  10.00000
 -D3 energy without 3body term =     -0.0352315537 hartrees
 ----------------------------------------------------------------
             Standard Nuclear Orientation (Angstroms)
    I     Atom           X                Y                Z
 ----------------------------------------------------------------
    1      C      -0.0651630230     0.8508231089     0.6109036144
    2      C       0.6863652359    -0.5157300773     0.6087075943
    3      C      -1.4003558958     0.8800704625    -0.1773245957
    4      C      -0.1614928527    -1.7179797832     0.1065787965
    5      O      -2.1761174969     1.9462853874     0.2970392024
    6      O      -1.7538740058     0.0929737465    -1.0726686492
    7      O      -1.2789820745    -1.8321114751     0.9502252694
    8      O       0.1260072264    -2.5396586176    -0.7797635854
    9      C      -2.1518805257    -2.9355249392     0.5699635541
   10      C      -3.4554141726     2.0560984992    -0.3931260966
   11      C       0.9684382011     1.7996799259    -0.0806702512
   12      C       2.1850236386     2.0422482650     0.8683742059
   13      C       2.9336173738     0.6776265829     0.7570277820
   14      C       1.9915416682    -0.1434156937    -0.2087182397
   15      O       1.5386836666     0.9265811174    -1.1208658832
   16      H      -0.2826409166     1.1570604573     1.6475496810
   17      H       0.9889613085    -0.7856801880     1.6363877905
   18      H      -1.6387120167    -3.9109007626     0.6621860769
   19      H      -3.3210740513     2.2207975965    -1.4784551006
   20      H       2.8152002184     2.8558192547     0.4813623966
   21      H       1.8916167142     2.2973888096     1.8968667271
   22      H       3.9203333040     0.8328168690     0.2979452194
   23      H       3.0884901954     0.1897442690     1.7305173061
   24      H      -3.0096043701    -2.9221173969     1.2633072746
   25      H      -2.5306623864    -2.8152328228    -0.4619691921
   26      H      -3.9785722293     2.9286287292     0.0330569803
   27      H      -4.0802261520     1.1574367851    -0.2334538330
   28      H       0.5488123607     2.7145542092    -0.5301159638
   29      C       2.7283191508    -1.2516578301    -0.9803963873
   30      H       3.6694754093    -0.8600398678    -1.3935371247
   31      H       2.9620329040    -2.1025451348    -0.3274691344
   32      H       2.1354103332    -1.6020051720    -1.8364283486
 ----------------------------------------------------------------
 Molecular Point Group                 C1    NOp =  1
 Largest Abelian Subgroup              C1    NOp =  1
 Nuclear Repulsion Energy =  1229.7968421180 hartrees
 There are       61 alpha and       61 beta electrons
 Applying Cartesian multipole field
    Component          Value
    ---------          -----
     (2,0,0)        1.00000E-11
     (0,2,0)        2.00000E-11
     (0,0,2)       -3.00000E-11
 Nucleus-field energy     =     0.0000000347 hartrees
 Requested basis set is STO-3G
 There are 48 shells and 96 basis functions
 A cutoff of  1.0D-12 yielded   1024 shell pairs
 There are      4516 function pairs
 Smallest overlap matrix eigenvalue = 2.07E-01
 Guess MOs from SCF MO coefficient file
 Reading MOs from coefficient file
 Reading MOs from coefficient file
 A restricted hybrid HF-DFT SCF calculation will be
 performed using Pulay DIIS extrapolation
 Exchange:     0.2000 Hartree-Fock + 0.0800 Slater + 0.7200 B88
 Correlation:  0.1900 VWN1RPA + 0.8100 LYP
 Using SG-1 standard quadrature grid
 Dispersion:   Grimme D3
 SCF converges when DIIS error is below 1.0E-08
 Geometry optimization detected.  Setting ReadMinima to 0
 Setting SaveMinima to 0
 -------------------------------------------------------
 OpenMP Integral computing Module                
 Release: version 1.0, May 2013, Q-Chem Inc. Pittsburgh 
 -------------------------------------------------------
 -------------------------------------------------------
 OpenMP BLAS3 based DFT computing Module                
 Release: version 1.0, May 2013, Q-Chem Inc. Pittsburgh 
 -------------------------------------------------------
 ---------------------------------------
  Cycle       Energy         DIIS Error
 ---------------------------------------
    1    -794.4212938025      5.40E-03
    2    -794.5773043335      1.87E-03
    3    -794.5717463166      2.83E-03
    4    -794.5815095107      6.29E-04
    5    -794.5820447036      1.04E-04
    6    -794.5820601474      2.34E-05
    7    -794.5820605227      1.88E-05
    8    -794.5820609692      4.83E-06
    9    -794.5820610040      7.89E-07
   10    -794.5820610049      3.45E-07
   11    -794.5820610051      7.08E-08
   12    -794.5820610052      2.73E-08
   13    -794.5820610052      4.45E-09 Convergence criterion met
 ---------------------------------------
 SCF time:  CPU 57.47 s  wall 2.42 s
 SCF   energy in the final basis set = -794.5820610052
 Total energy in the final basis set = -794.5820610052
 
 --------------------------------------------------------------
 
                    Orbital Energies (a.u.)
 --------------------------------------------------------------
 
 Alpha MOs
 -- Occupied --
-18.941 -18.927 -18.873 -18.870 -18.861 -10.102 -10.096 -10.070
-10.062 -10.060 -10.058 -10.035 -10.031 -10.015 -10.010 -10.005
 -1.024  -1.012  -0.969  -0.941  -0.932  -0.764  -0.730  -0.721
 -0.680  -0.661  -0.638  -0.593  -0.542  -0.529  -0.496  -0.474
 -0.457  -0.443  -0.431  -0.420  -0.416  -0.411  -0.406  -0.382
 -0.378  -0.366  -0.364  -0.353  -0.342  -0.336  -0.312  -0.308
 -0.304  -0.300  -0.288  -0.280  -0.269  -0.250  -0.242  -0.222
 -0.181  -0.169  -0.152  -0.141  -0.135
 -- Virtual --
  0.103   0.120   0.237   0.260   0.278   0.294   0.319   0.338
  0.356   0.358   0.376   0.383   0.394   0.401   0.413   0.423
  0.426   0.432   0.434   0.438   0.439   0.443   0.448   0.451
  0.456   0.471   0.484   0.486   0.492   0.515   0.521   0.557
  0.562   0.667   0.672
 --------------------------------------------------------------
 
          Ground-State Mulliken Net Atomic Charges

     Atom                 Charge (a.u.)
  ----------------------------------------
      1 C                    -0.079332
      2 C                    -0.082125
      3 C                     0.222535
      4 C                     0.224274
      5 O                    -0.177978
      6 O                    -0.217691
      7 O                    -0.184350
      8 O                    -0.218299
      9 C                    -0.125017
     10 C                    -0.124937
     11 C                     0.024745
     12 C                    -0.146139
     13 C                    -0.144957
     14 C                     0.107326
     15 O                    -0.200051
     16 H                     0.087325
     17 H                     0.083739
     18 H                     0.087482
     19 H                     0.091049
     20 H                     0.076638
     21 H                     0.072436
     22 H                     0.075162
     23 H                     0.069157
     24 H                     0.088664
     25 H                     0.093791
     26 H                     0.092313
     27 H                     0.090162
     28 H                     0.083816
     29 C                    -0.227450
     30 H                     0.078709
     31 H                     0.081473
     32 H                     0.097529
  ----------------------------------------
  Sum of atomic charges =     0.000000

 -----------------------------------------------------------------
                    Cartesian Multipole Moments
 -----------------------------------------------------------------
    Charge (ESU x 10^10)
                 0.0000
    Dipole Moment (Debye)
         X      -0.8072      Y       1.0314      Z       2.1866
       Tot       2.5488
    Quadrupole Moments (Debye-Ang)
        XX     -77.5617     XY      -0.3487     YY     -83.9107
        XZ       2.2552     YZ      -3.4088     ZZ     -89.7894
    Octopole Moments (Debye-Ang^2)
       XXX     -42.8763    XXY       0.9373    XYY     -22.6405
       YYY      -5.9490    XXZ      -2.3638    XYZ       6.2378
       YYZ       2.9005    XZZ      -5.4863    YZZ      -1.1713
       ZZZ      -3.3537
    Hexadecapole Moments (Debye-Ang^3)
      XXXX   -2064.2727   XXXY     -57.2039   XXYY    -566.1233
      XYYY      -1.2250   YYYY   -1528.7328   XXXZ     -17.9883
      XXYZ     -17.6678   XYYZ       3.5580   YYYZ     -53.1137
      XXZZ    -434.9889   XYZZ     -14.7886   YYZZ    -327.0380
      XZZZ      -1.9198   YZZZ      -6.2759   ZZZZ    -366.7950
 -----------------------------------------------------------------
 Calculating analytic gradient of the SCF energy
 Gradient of SCF Energy
            1           2           3           4           5           6
    1   0.0092118  -0.0067368  -0.0051001  -0.0127335  -0.0032102   0.0049791
    2  -0.0096728   0.0032221   0.0163112   0.0026626  -0.0200041   0.0092487
    3  -0.0197428  -0.0081610   0.0023465   0.0116882  -0.0179907   0.0122840
            7           8           9          10          11          12
    1   0.0117212  -0.0002565   0.0052793   0.0097049  -0.0089263  -0.0044281
    2  -0.0139550   0.0084445   0.0080443   0.0001948  -0.0000489  -0.0065590
    3  -0.0216390   0.0125217   0.0040448   0.0067687   0.0050919  -0.0066514
           13          14          15          16          17          18
    1  -0.0055684  -0.0070627   0.0035534   0.0003642   0.0017057  -0.0013056
    2   0.0014788  -0.0051040  -0.0007668  -0.0038811  -0.0023022   0.0031388
    3  -0.0106156   0.0028186   0.0181665  -0.0006896  -0.0022950   0.0021234
           19          20          21          22          23          24
    1   0.0005209   0.0005882   0.0020639  -0.0009744   0.0013260   0.0010071
    2   0.0017058  -0.0022761   0.0007513   0.0030640   0.0013759  -0.0017369
    3   0.0034378   0.0007350  -0.0016745   0.0026715  -0.0014156  -0.0027589
           25          26          27          28          29          30
    1  -0.0003158  -0.0005822   0.0014286   0.0036201  -0.0041313  -0.0017912
    2   0.0013663  -0.0022916   0.0030227  -0.0020839   0.0043940  -0.0019615
    3   0.0036078  -0.0024332   0.0018622   0.0012170   0.0117313  -0.0027821
           31          32
    1   0.0010807   0.0049679
    2   0.0013992   0.0028191
    3  -0.0014877  -0.0027798
 Max gradient component =       2.164E-02
 RMS gradient           =       7.038E-03
 Gradient time:  CPU 15.60 s  wall 0.65 s
 Geometry Optimization Parameters
   NAtoms,    NIC,     NZ,  NCons,   NDum,   NFix, NCnnct, MaxDiis
       32     251       0       2       0       0       0       0

 Cartesian Hessian Update
 Hessian Updated using BFGS Update


** CONSTRAINED OPTIMIZATION IN DELOCALIZED INTERNAL COORDINATES **
   Searching for a Minimum

   Optimization Cycle:   2

                       Coordinates (Angstroms)
     ATOM                X               Y               Z
      1  C        -0.0651630230    0.8508231089    0.6109036144
      2  C         0.6863652359   -0.5157300773    0.6087075943
      3  C        -1.4003558958    0.8800704625   -0.1773245957
      4  C        -0.1614928527   -1.7179797832    0.1065787965
      5  O        -2.1761174969    1.9462853874    0.2970392024
      6  O        -1.7538740058    0.0929737465   -1.0726686492
      7  O        -1.2789820745   -1.8321114751    0.9502252694
      8  O         0.1260072264   -2.5396586176   -0.7797635854
      9  C        -2.1518805257   -2.9355249392    0.5699635541
     10  C        -3.4554141726    2.0560984992   -0.3931260966
     11  C         0.9684382011    1.7996799259   -0.0806702512
     12  C         2.1850236386    2.0422482650    0.8683742059
     13  C         2.9336173738    0.6776265829    0.7570277820
     14  C         1.9915416682   -0.1434156937   -0.2087182397
     15  O         1.5386836666    0.9265811174   -1.1208658832
     16  H        -0.2826409166    1.1570604573    1.6475496810
     17  H         0.9889613085   -0.7856801880    1.6363877905
     18  H        -1.6387120167   -3.9109007626    0.6621860769
     19  H        -3.3210740513    2.2207975965   -1.4784551006
     20  H         2.8152002184    2.8558192547    0.4813623966
     21  H         1.8916167142    2.2973888096    1.8968667271
     22  H         3.9203333040    0.8328168690    0.2979452194
     23  H         3.0884901954    0.1897442690    1.7305173061
     24  H        -3.0096043701   -2.9221173969    1.2633072746
     25  H        -2.5306623864   -2.8152328228   -0.4619691921
     26  H        -3.9785722293    2.9286287292    0.0330569803
     27  H        -4.0802261520    1.1574367851   -0.2334538330
     28  H         0.5488123607    2.7145542092   -0.5301159638
     29  C         2.7283191508   -1.2516578301   -0.9803963873
     30  H         3.6694754093   -0.8600398678   -1.3935371247
     31  H         2.9620329040   -2.1025451348   -0.3274691344
     32  H         2.1354103332   -1.6020051720   -1.8364283486
   Point Group: c1    Number of degrees of freedom:    90


   Energy is   -794.582061005

              Constraints and their Current Values
                                        Value     Constraint
   Dihedral:        2   1   3   5      158.636      157.300
   Dihedral:        1   2   4   7      -59.602      -60.000
 Hessian Updated using BFGS Update

   Using Lagrange Multiplier Algorithm


 80 Hessian modes will be used to form the next step
  Hessian Eigenvalues:
    -0.977850   -0.977213    0.044969    0.045000    0.045017    0.045282
     0.045515    0.048619    0.059354    0.061280    0.067466    0.068277
     0.070604    0.073212    0.073398    0.076671    0.079796    0.081309
     0.082164    0.083312    0.083605    0.084446    0.085346    0.090058
     0.091297    0.091947    0.096975    0.107684    0.112323    0.113735
     0.113796    0.116926    0.116971    0.122452    0.127825    0.139860
     0.143245    0.158928    0.161497    0.167738    0.181544    0.241409
     0.245479    0.248693    0.249952    0.250134    0.252724    0.262501
     0.268953    0.289381    0.295515    0.306831    0.308553    0.317931
     0.329053    0.337249    0.340075    0.340679    0.341491    0.341722
     0.342259    0.342771    0.343005    0.343225    0.343355    0.343539
     0.343582    0.343708    0.344437    0.344581    0.345024    0.377459
     0.411882    0.416767    0.496843    0.512749    0.952835    0.972555
     1.022722    1.025606

 Minimum Search - Taking P-RFO Step
 Searching for Lamda that Maximizes Along the Constraint modes Only
 Value Taken    Lamda =   0.00028408
 Searching for Lamda that Minimizes Along All other modes
 Value Taken    Lamda =  -0.01218258
 Step Taken.  Stepsize is  0.265063

                             Maximum     Tolerance    Cnvgd?
         Gradient            0.026234       0.000300      NO
         Displacement        0.088505       0.001200      NO
         Energy change     -0.030570       0.000001      NO


 New Cartesian Coordinates Obtained by Inverse Iteration

 Displacement from previous Coordinates is:  0.995880
 Adding empirical dispersion correction 
 ----------------------------------------------------------------
 Doing -D3(op) with
 s6 =   1.00000
 s8 =   0.78311
 a1 =   0.30000
 a2 =   4.25000
 n  =  10.00000
 -D3 energy without 3body term =     -0.0354580110 hartrees
 ----------------------------------------------------------------
             Standard Nuclear Orientation (Angstroms)
    I     Atom           X                Y                Z
 ----------------------------------------------------------------
    1      C      -0.0364843560     0.9048727713     0.6470364345
    2      C       0.7132361406    -0.4804804470     0.6451305814
    3      C      -1.3899988166     0.8705889538    -0.1377808454
    4      C      -0.1614267305    -1.6723121234     0.1138229978
    5      O      -2.2155989242     1.9276449350     0.3403862367
    6      O      -1.7331860287     0.0487189874    -1.0178866132
    7      O      -1.2986611756    -1.7652134729     0.9752248967
    8      O       0.0837597631    -2.4776102042    -0.8101617924
    9      C      -2.1834017158    -2.8488631887     0.5108373519
   10      C      -3.5004059115     1.9235333785    -0.3869987141
   11      C       1.0177038737     1.8279506017    -0.0876148926
   12      C       2.2456628576     2.0633998720     0.8706592159
   13      C       2.9777950964     0.6746956817     0.7700827868
   14      C       2.0168620316    -0.1317562689    -0.2045946718
   15      O       1.5615915576     0.9340114183    -1.1373554060
   16      H      -0.2471717423     1.2451691299     1.6771031840
   17      H       1.0186567894    -0.7446273664     1.6746281081
   18      H      -1.6819907836    -3.8379774376     0.5547650139
   19      H      -3.3563089784     2.0584323779    -1.4788608939
   20      H       2.8820733592     2.8735570463     0.4795142473
   21      H       1.9402355178     2.3237563908     1.8970623295
   22      H       3.9693174155     0.7889601016     0.3029119619
   23      H       3.1106020998     0.1803633324     1.7460223510
   24      H      -3.0525344404    -2.8467941536     1.1949930704
   25      H      -2.5296668298    -2.6739107775    -0.5287235645
   26      H      -4.0818612499     2.7736049259     0.0161383908
   27      H      -4.0605904158     0.9802282479    -0.2199248461
   28      H       0.5900189324     2.7391147433    -0.5498812906
   29      C       2.6984284656    -1.2833045868    -0.9845415709
   30      H       3.6465947733    -0.9264792855    -1.4167631322
   31      H       2.9072072982    -2.1297411913    -0.3132985156
   32      H       2.0430988672    -1.6274980775    -1.7988953236
 ----------------------------------------------------------------
 Molecular Point Group                 C1    NOp =  1
 Largest Abelian Subgroup              C1    NOp =  1
 Nuclear Repulsion Energy =  1227.8074117446 hartrees
 There are       61 alpha and       61 beta electrons
 Applying Cartesian multipole field
    Component          Value
    ---------          -----
     (2,0,0)        1.00000E-11
     (0,2,0)        2.00000E-11
     (0,0,2)       -3.00000E-11
 Nucleus-field energy     =     0.0000000340 hartrees
 Requested basis set is STO-3G
 There are 48 shells and 96 basis functions
 A cutoff of  1.0D-12 yielded   1023 shell pairs
 There are      4515 function pairs
 Smallest overlap matrix eigenvalue = 2.13E-01
 Guess MOs from SCF MO coefficient file
 Reading MOs from coefficient file
 Reading MOs from coefficient file
 A restricted hybrid HF-DFT SCF calculation will be
 performed using Pulay DIIS extrapolation
 Exchange:     0.2000 Hartree-Fock + 0.0800 Slater + 0.7200 B88
 Correlation:  0.1900 VWN1RPA + 0.8100 LYP
 Using SG-1 standard quadrature grid
 Dispersion:   Grimme D3
 SCF converges when DIIS error is below 1.0E-08
 Geometry optimization detected.  Setting ReadMinima to 0
 Setting SaveMinima to 0
 -------------------------------------------------------
 OpenMP Integral computing Module                
 Release: version 1.0, May 2013, Q-Chem Inc. Pittsburgh 
 -------------------------------------------------------
 -------------------------------------------------------
 OpenMP BLAS3 based DFT computing Module                
 Release: version 1.0, May 2013, Q-Chem Inc. Pittsburgh 
 -------------------------------------------------------
 ---------------------------------------
  Cycle       Energy         DIIS Error
 ---------------------------------------
    1    -794.4985888819      4.03E-03
    2    -794.5864655223      1.24E-03
    3    -794.5824002794      2.18E-03
    4    -794.5883692473      3.69E-04
    5    -794.5885528192      8.44E-05
    6    -794.5885625594      2.23E-05
    7    -794.5885628189      1.89E-05
    8    -794.5885632841      3.65E-06
    9    -794.5885633045      6.21E-07
   10    -794.5885633051      3.08E-07
   11    -794.5885633052      4.96E-08
   12    -794.5885633053      2.16E-08
   13    -794.5885633053      4.28E-09 Convergence criterion met
 ---------------------------------------
 SCF time:  CPU 58.24 s  wall 2.46 s
 SCF   energy in the final basis set = -794.5885633053
 Total energy in the final basis set = -794.5885633053
 
 --------------------------------------------------------------
 
                    Orbital Energies (a.u.)
 --------------------------------------------------------------
 
 Alpha MOs
 -- Occupied --
-18.939 -18.923 -18.877 -18.875 -18.864 -10.100 -10.092 -10.066
-10.058 -10.058 -10.057 -10.035 -10.030 -10.017 -10.012 -10.005
 -1.016  -1.002  -0.963  -0.938  -0.927  -0.761  -0.725  -0.717
 -0.673  -0.655  -0.635  -0.591  -0.541  -0.525  -0.491  -0.471
 -0.453  -0.439  -0.429  -0.415  -0.414  -0.405  -0.402  -0.380
 -0.376  -0.366  -0.357  -0.350  -0.340  -0.335  -0.311  -0.306
 -0.306  -0.294  -0.289  -0.277  -0.268  -0.254  -0.246  -0.226
 -0.181  -0.167  -0.154  -0.141  -0.138
 -- Virtual --
  0.096   0.117   0.236   0.255   0.273   0.287   0.309   0.327
  0.343   0.346   0.361   0.374   0.386   0.393   0.406   0.419
  0.423   0.425   0.428   0.430   0.433   0.437   0.440   0.441
  0.449   0.464   0.476   0.480   0.491   0.505   0.513   0.549
  0.554   0.649   0.658
 --------------------------------------------------------------
 
          Ground-State Mulliken Net Atomic Charges

     Atom                 Charge (a.u.)
  ----------------------------------------
      1 C                    -0.078145
      2 C                    -0.081676
      3 C                     0.215452
      4 C                     0.216750
      5 O                    -0.169774
      6 O                    -0.212056
      7 O                    -0.178574
      8 O                    -0.213677
      9 C                    -0.127403
     10 C                    -0.127112
     11 C                     0.024204
     12 C                    -0.144498
     13 C                    -0.144351
     14 C                     0.104702
     15 O                    -0.194831
     16 H                     0.086710
     17 H                     0.082308
     18 H                     0.085957
     19 H                     0.090195
     20 H                     0.076944
     21 H                     0.072867
     22 H                     0.074445
     23 H                     0.069933
     24 H                     0.085932
     25 H                     0.092818
     26 H                     0.090547
     27 H                     0.089525
     28 H                     0.082002
     29 C                    -0.226883
     30 H                     0.078137
     31 H                     0.079917
     32 H                     0.099636
  ----------------------------------------
  Sum of atomic charges =    -0.000000

 -----------------------------------------------------------------
                    Cartesian Multipole Moments
 -----------------------------------------------------------------
    Charge (ESU x 10^10)
                -0.0000
    Dipole Moment (Debye)
         X      -0.6734      Y       1.0253      Z       2.0705
       Tot       2.4066
    Quadrupole Moments (Debye-Ang)
        XX     -77.7357     XY      -0.2245     YY     -84.4298
        XZ       2.7187     YZ      -3.0040     ZZ     -89.7332
    Octopole Moments (Debye-Ang^2)
       XXX     -43.8999    XXY      -0.4624    XYY     -19.6695
       YYY      -8.7458    XXZ      -3.5766    XYZ       5.9122
       YYZ       1.6061    XZZ      -5.9666    YZZ      -1.3013
       ZZZ      -5.2093
    Hexadecapole Moments (Debye-Ang^3)
      XXXX   -2105.8563   XXXY     -68.5924   XXYY    -572.3855
      XYYY     -13.6562   YYYY   -1480.0338   XXXZ     -17.8912
      XXYZ     -20.7882   XYYZ       3.3792   YYYZ     -58.7127
      XXZZ    -442.5568   XYZZ     -19.6107   YYZZ    -319.6879
      XZZZ      -1.6688   YZZZ     -16.9666   ZZZZ    -368.9584
 -----------------------------------------------------------------
 Calculating analytic gradient of the SCF energy
 Gradient of SCF Energy
            1           2           3           4           5           6
    1   0.0044250  -0.0033173  -0.0028269  -0.0056665  -0.0005963  -0.0003848
    2  -0.0016144   0.0023948   0.0072808   0.0001134  -0.0029287  -0.0023996
    3  -0.0055977  -0.0008879  -0.0006996   0.0052031  -0.0003369   0.0012534
            7           8           9          10          11          12
    1   0.0014272   0.0023233   0.0035392   0.0042544  -0.0026528  -0.0023310
    2   0.0005875  -0.0016943   0.0024602  -0.0014819   0.0020032  -0.0009560
    3  -0.0037090  -0.0006033  -0.0002083   0.0011272   0.0050984  -0.0002874
           13          14          15          16          17          18
    1  -0.0018488  -0.0024143   0.0028116  -0.0006355   0.0019371   0.0000792
    2  -0.0007772  -0.0032192  -0.0000397  -0.0019529  -0.0000199  -0.0002082
    3  -0.0012279   0.0008151  -0.0002479   0.0010426  -0.0002852   0.0002396
           19          20          21          22          23          24
    1  -0.0001044   0.0005062   0.0006880   0.0002128   0.0013046  -0.0000674
    2   0.0001857  -0.0002025   0.0010694   0.0003669  -0.0000106   0.0003288
    3  -0.0002531  -0.0003122   0.0000942  -0.0000404   0.0002755   0.0002710
           25          26          27          28          29          30
    1  -0.0002317   0.0000250  -0.0002274   0.0001628  -0.0015002   0.0001773
    2  -0.0001497   0.0002762  -0.0001169  -0.0004634  -0.0003363   0.0002390
    3  -0.0001135   0.0001809   0.0002128  -0.0013125   0.0027925  -0.0005876
           31          32
    1  -0.0000336   0.0009653
    2  -0.0000219   0.0012874
    3   0.0000813  -0.0019774
 Max gradient component =       7.281E-03
 RMS gradient           =       1.989E-03
 Gradient time:  CPU 15.74 s  wall 0.66 s
 Geometry Optimization Parameters
   NAtoms,    NIC,     NZ,  NCons,   NDum,   NFix, NCnnct, MaxDiis
       32     251       0       2       0       0       0       0

 Cartesian Hessian Update
 Hessian Updated using BFGS Update


** CONSTRAINED OPTIMIZATION IN DELOCALIZED INTERNAL COORDINATES **
   Searching for a Minimum

   Optimization Cycle:   3

                       Coordinates (Angstroms)
     ATOM                X               Y               Z
      1  C        -0.0364843560    0.9048727713    0.6470364345
      2  C         0.7132361406   -0.4804804470    0.6451305814
      3  C        -1.3899988166    0.8705889538   -0.1377808454
      4  C        -0.1614267305   -1.6723121234    0.1138229978
      5  O        -2.2155989242    1.9276449350    0.3403862367
      6  O        -1.7331860287    0.0487189874   -1.0178866132
      7  O        -1.2986611756   -1.7652134729    0.9752248967
      8  O         0.0837597631   -2.4776102042   -0.8101617924
      9  C        -2.1834017158   -2.8488631887    0.5108373519
     10  C        -3.5004059115    1.9235333785   -0.3869987141
     11  C         1.0177038737    1.8279506017   -0.0876148926
     12  C         2.2456628576    2.0633998720    0.8706592159
     13  C         2.9777950964    0.6746956817    0.7700827868
     14  C         2.0168620316   -0.1317562689   -0.2045946718
     15  O         1.5615915576    0.9340114183   -1.1373554060
     16  H        -0.2471717423    1.2451691299    1.6771031840
     17  H         1.0186567894   -0.7446273664    1.6746281081
     18  H        -1.6819907836   -3.8379774376    0.5547650139
     19  H        -3.3563089784    2.0584323779   -1.4788608939
     20  H         2.8820733592    2.8735570463    0.4795142473
     21  H         1.9402355178    2.3237563908    1.8970623295
     22  H         3.9693174155    0.7889601016    0.3029119619
     23  H         3.1106020998    0.1803633324    1.7460223510
     24  H        -3.0525344404   -2.8467941536    1.1949930704
     25  H        -2.5296668298   -2.6739107775   -0.5287235645
     26  H        -4.0818612499    2.7736049259    0.0161383908
     27  H        -4.0605904158    0.9802282479   -0.2199248461
     28  H         0.5900189324    2.7391147433   -0.5498812906
     29  C         2.6984284656   -1.2833045868   -0.9845415709
     30  H         3.6465947733   -0.9264792855   -1.4167631322
     31  H         2.9072072982   -2.1297411913   -0.3132985156
     32  H         2.0430988672   -1.6274980775   -1.7988953236
   Point Group: c1    Number of degrees of freedom:    90


   Energy is   -794.588563305

              Constraints and their Current Values
                                        Value     Constraint
   Dihedral:        2   1   3   5      157.307      157.300
   Dihedral:        1   2   4   7      -59.994      -60.000
 Hessian Updated using BFGS Update

   Using Lagrange Multiplier Algorithm


 83 Hessian modes will be used to form the next step
  Hessian Eigenvalues:
    -0.977629   -0.975891    0.042733    0.045000    0.045001    0.045013
     0.045357    0.045543    0.048619    0.059240    0.059429    0.066630
     0.068306    0.070777    0.072951    0.073507    0.076464    0.079681
     0.080688    0.082094    0.082797    0.083617    0.084440    0.085317
     0.090104    0.091260    0.092198    0.096849    0.108204    0.113390
     0.113795    0.113864    0.116927    0.116973    0.123014    0.128931
     0.139978    0.144375    0.159330    0.160645    0.161829    0.169923
     0.181604    0.241762    0.245010    0.249464    0.249990    0.250122
     0.251313    0.262383    0.267837    0.269797    0.289279    0.295550
     0.306765    0.308551    0.315074    0.329190    0.337198    0.340075
     0.340792    0.341411    0.341802    0.342054    0.342613    0.342972
     0.343219    0.343336    0.343530    0.343604    0.343707    0.344438
     0.344598    0.345074    0.383458    0.393696    0.411964    0.477770
     0.512401    0.952596    0.982062    1.022982    1.033945

 Minimum Search - Taking P-RFO Step
 Searching for Lamda that Maximizes Along the Constraint modes Only
 Value Taken    Lamda =   0.00002092
 Searching for Lamda that Minimizes Along All other modes
 Value Taken    Lamda =  -0.00136761
 Step Taken.  Stepsize is  0.139081

                             Maximum     Tolerance    Cnvgd?
         Gradient            0.006240       0.000300      NO
         Displacement        0.058608       0.001200      NO
         Energy change     -0.006502       0.000001      NO


 New Cartesian Coordinates Obtained by Inverse Iteration

 Displacement from previous Coordinates is:  0.259055
 Adding empirical dispersion correction 
 ----------------------------------------------------------------
 Doing -D3(op) with
 s6 =   1.00000
 s8 =   0.78311
 a1 =   0.30000
 a2 =   4.25000
 n  =  10.00000
 -D3 energy without 3body term =     -0.0355055914 hartrees
 ----------------------------------------------------------------
             Standard Nuclear Orientation (Angstroms)
    I     Atom           X                Y                Z
 ----------------------------------------------------------------
    1      C      -0.0318538651     0.9010761926     0.6674250886
    2      C       0.7303980788    -0.4869237009     0.6558283952
    3      C      -1.3824343839     0.8585962031    -0.1275945014
    4      C      -0.1508745710    -1.6795965696     0.1210526341
    5      O      -2.2304362525     1.9075706786     0.3520358726
    6      O      -1.7061513200     0.0569232960    -1.0337049609
    7      O      -1.2910075270    -1.7805451113     0.9939535697
    8      O       0.0675867998    -2.4674881602    -0.8235699349
    9      C      -2.2055949686    -2.8426575526     0.5151565140
   10      C      -3.5103950849     1.9146946070    -0.3992864226
   11      C       1.0191689326     1.8250459848    -0.0834716617
   12      C       2.2539154122     2.0692131597     0.8690170472
   13      C       2.9938376977     0.6856266622     0.7642749275
   14      C       2.0292934013    -0.1257126879    -0.2061739419
   15      O       1.5507361935     0.9319031926    -1.1381125558
   16      H      -0.2384117893     1.2499036860     1.6947259791
   17      H       1.0346775821    -0.7529683849     1.6846695913
   18      H      -1.7192537697    -3.8399983951     0.5241098577
   19      H      -3.3464201428     2.0689820559    -1.4855130239
   20      H       2.8801140368     2.8875275272     0.4789695729
   21      H       1.9448991066     2.3197312328     1.8966920617
   22      H       3.9834607255     0.8008552597     0.2937196666
   23      H       3.1246430744     0.1889539255     1.7386352388
   24      H      -3.0659263588    -2.8455762399     1.2100225685
   25      H      -2.5594800604    -2.6337831571    -0.5154527676
   26      H      -4.1023876549     2.7541277580     0.0098986145
   27      H      -4.0675289657     0.9650438209    -0.2619668858
   28      H       0.5796602188     2.7352203885    -0.5371781117
   29      C       2.7061276754    -1.2820732733    -0.9892028929
   30      H       3.6467928022    -0.9288318637    -1.4385882792
   31      H       2.9267795144    -2.1192629874    -0.3100149522
   32      H       2.0296222023    -1.6435432331    -1.7773192220
 ----------------------------------------------------------------
 Molecular Point Group                 C1    NOp =  1
 Largest Abelian Subgroup              C1    NOp =  1
 Nuclear Repulsion Energy =  1225.5737267045 hartrees
 There are       61 alpha and       61 beta electrons
 Applying Cartesian multipole field
    Component          Value
    ---------          -----
     (2,0,0)        1.00000E-11
     (0,2,0)        2.00000E-11
     (0,0,2)       -3.00000E-11
 Nucleus-field energy     =     0.0000000339 hartrees
 Requested basis set is STO-3G
 There are 48 shells and 96 basis functions
 A cutoff of  1.0D-12 yielded   1022 shell pairs
 There are      4511 function pairs
 Smallest overlap matrix eigenvalue = 2.14E-01
 Guess MOs from SCF MO coefficient file
 Reading MOs from coefficient file
 Reading MOs from coefficient file
 A restricted hybrid HF-DFT SCF calculation will be
 performed using Pulay DIIS extrapolation
 Exchange:     0.2000 Hartree-Fock + 0.0800 Slater + 0.7200 B88
 Correlation:  0.1900 VWN1RPA + 0.8100 LYP
 Using SG-1 standard quadrature grid
 Dispersion:   Grimme D3
 SCF converges when DIIS error is below 1.0E-08
 Geometry optimization detected.  Setting ReadMinima to 0
 Setting SaveMinima to 0
 -------------------------------------------------------
 OpenMP Integral computing Module                
 Release: version 1.0, May 2013, Q-Chem Inc. Pittsburgh 
 -------------------------------------------------------
 -------------------------------------------------------
 OpenMP BLAS3 based DFT computing Module                
 Release: version 1.0, May 2013, Q-Chem Inc. Pittsburgh 
 -------------------------------------------------------
 ---------------------------------------
  Cycle       Energy         DIIS Error
 ---------------------------------------
    1    -794.5701791553      1.95E-03
    2    -794.5890715445      4.13E-04
    3    -794.5882541187      9.01E-04
    4    -794.5893086483      7.77E-05
    5    -794.5893163100      2.90E-05
    6    -794.5893172492      1.29E-05
    7    -794.5893174042      7.22E-06
    8    -794.5893174744      9.74E-07
    9    -794.5893174758      1.76E-07
   10    -794.5893174758      7.43E-08
   11    -794.5893174758      1.81E-08
   12    -794.5893174758      4.89E-09 Convergence criterion met
 ---------------------------------------
 SCF time:  CPU 51.68 s  wall 2.17 s
 SCF   energy in the final basis set = -794.5893174758
 Total energy in the final basis set = -794.5893174758
 
 --------------------------------------------------------------
 
                    Orbital Energies (a.u.)
 --------------------------------------------------------------
 
 Alpha MOs
 -- Occupied --
-18.936 -18.920 -18.879 -18.875 -18.867 -10.099 -10.092 -10.065
-10.059 -10.058 -10.056 -10.036 -10.031 -10.018 -10.013 -10.005
 -1.012  -0.998  -0.964  -0.935  -0.925  -0.760  -0.725  -0.717
 -0.671  -0.654  -0.635  -0.591  -0.540  -0.525  -0.489  -0.469
 -0.451  -0.438  -0.429  -0.413  -0.413  -0.403  -0.401  -0.381
 -0.376  -0.366  -0.357  -0.349  -0.340  -0.336  -0.311  -0.306
 -0.306  -0.293  -0.289  -0.276  -0.267  -0.253  -0.245  -0.228
 -0.179  -0.166  -0.154  -0.142  -0.139
 -- Virtual --
  0.096   0.116   0.233   0.252   0.269   0.286   0.307   0.325
  0.340   0.343   0.357   0.373   0.384   0.391   0.403   0.419
  0.422   0.423   0.427   0.430   0.432   0.434   0.439   0.440
  0.449   0.463   0.473   0.478   0.491   0.502   0.511   0.546
  0.553   0.647   0.656
 --------------------------------------------------------------
 
          Ground-State Mulliken Net Atomic Charges

     Atom                 Charge (a.u.)
  ----------------------------------------
      1 C                    -0.077708
      2 C                    -0.080999
      3 C                     0.213371
      4 C                     0.214800
      5 O                    -0.169458
      6 O                    -0.211580
      7 O                    -0.178097
      8 O                    -0.211883
      9 C                    -0.128912
     10 C                    -0.128462
     11 C                     0.024645
     12 C                    -0.144533
     13 C                    -0.144671
     14 C                     0.104909
     15 O                    -0.193646
     16 H                     0.086943
     17 H                     0.082266
     18 H                     0.085930
     19 H                     0.089952
     20 H                     0.077252
     21 H                     0.073163
     22 H                     0.074955
     23 H                     0.070693
     24 H                     0.086259
     25 H                     0.092430
     26 H                     0.090679
     27 H                     0.089251
     28 H                     0.081727
     29 C                    -0.227930
     30 H                     0.078647
     31 H                     0.079434
     32 H                     0.100575
  ----------------------------------------
  Sum of atomic charges =    -0.000000

 -----------------------------------------------------------------
                    Cartesian Multipole Moments
 -----------------------------------------------------------------
    Charge (ESU x 10^10)
                -0.0000
    Dipole Moment (Debye)
         X      -0.5908      Y       1.0135      Z       2.0700
       Tot       2.3793
    Quadrupole Moments (Debye-Ang)
        XX     -77.5010     XY      -0.1386     YY     -84.3498
        XZ       2.7818     YZ      -2.9460     ZZ     -89.8876
    Octopole Moments (Debye-Ang^2)
       XXX     -44.6005    XXY      -0.6649    XYY     -19.6291
       YYY      -8.5325    XXZ      -4.0709    XYZ       6.0115
       YYZ       1.2890    XZZ      -5.9450    YZZ      -0.9397
       ZZZ      -5.3447
    Hexadecapole Moments (Debye-Ang^3)
      XXXX   -2114.2269   XXXY     -70.5394   XXYY    -573.1951
      XYYY     -16.5535   YYYY   -1474.1743   XXXZ     -17.6028
      XXYZ     -21.3405   XYYZ       3.1746   YYYZ     -57.5946
      XXZZ    -445.2846   XYZZ     -20.6198   YYZZ    -320.2951
      XZZZ      -1.8636   YZZZ     -16.7372   ZZZZ    -373.7899
 -----------------------------------------------------------------
 Calculating analytic gradient of the SCF energy
 Gradient of SCF Energy
            1           2           3           4           5           6
    1   0.0014826  -0.0000211   0.0016537   0.0009677  -0.0001181  -0.0011315
    2   0.0009376   0.0006587   0.0027481  -0.0002512  -0.0008953  -0.0018896
    3  -0.0005323  -0.0005090  -0.0001791   0.0027328   0.0009408  -0.0005049
            7           8           9          10          11          12
    1  -0.0006412   0.0003987  -0.0015915  -0.0014911  -0.0005413  -0.0004555
    2   0.0010600  -0.0015258  -0.0006876   0.0009766   0.0012374   0.0000150
    3  -0.0012416  -0.0005756   0.0006671  -0.0000739   0.0026806   0.0006860
           13          14          15          16          17          18
    1   0.0001550  -0.0005497   0.0010361  -0.0003821   0.0008515   0.0000083
    2  -0.0001882  -0.0006522   0.0001085  -0.0010937   0.0001406  -0.0001734
    3   0.0004886   0.0005125  -0.0023623   0.0004591  -0.0003725  -0.0000965
           19          20          21          22          23          24
    1  -0.0001353   0.0003029   0.0001703   0.0000587   0.0005705  -0.0003797
    2  -0.0002013  -0.0001543   0.0005531   0.0001959   0.0000011  -0.0002197
    3  -0.0001623  -0.0003195   0.0000623  -0.0002096  -0.0000098  -0.0000375
           25          26          27          28          29          30
    1   0.0001205  -0.0003548  -0.0001039  -0.0003750   0.0001968   0.0004288
    2  -0.0001918   0.0001337  -0.0001673  -0.0003604  -0.0007545   0.0000665
    3  -0.0001502  -0.0001309  -0.0002002  -0.0008152  -0.0005371   0.0004685
           31          32
    1  -0.0005990   0.0004685
    2  -0.0002088   0.0007823
    3  -0.0002036  -0.0004747
 Max gradient component =       2.748E-03
 RMS gradient           =       8.391E-04
 Gradient time:  CPU 16.73 s  wall 0.70 s
 Geometry Optimization Parameters
   NAtoms,    NIC,     NZ,  NCons,   NDum,   NFix, NCnnct, MaxDiis
       32     251       0       2       0       0       0       0

 Cartesian Hessian Update
 Hessian Updated using BFGS Update


** CONSTRAINED OPTIMIZATION IN DELOCALIZED INTERNAL COORDINATES **
   Searching for a Minimum

   Optimization Cycle:   4

                       Coordinates (Angstroms)
     ATOM                X               Y               Z
      1  C        -0.0318538651    0.9010761926    0.6674250886
      2  C         0.7303980788   -0.4869237009    0.6558283952
      3  C        -1.3824343839    0.8585962031   -0.1275945014
      4  C        -0.1508745710   -1.6795965696    0.1210526341
      5  O        -2.2304362525    1.9075706786    0.3520358726
      6  O        -1.7061513200    0.0569232960   -1.0337049609
      7  O        -1.2910075270   -1.7805451113    0.9939535697
      8  O         0.0675867998   -2.4674881602   -0.8235699349
      9  C        -2.2055949686   -2.8426575526    0.5151565140
     10  C        -3.5103950849    1.9146946070   -0.3992864226
     11  C         1.0191689326    1.8250459848   -0.0834716617
     12  C         2.2539154122    2.0692131597    0.8690170472
     13  C         2.9938376977    0.6856266622    0.7642749275
     14  C         2.0292934013   -0.1257126879   -0.2061739419
     15  O         1.5507361935    0.9319031926   -1.1381125558
     16  H        -0.2384117893    1.2499036860    1.6947259791
     17  H         1.0346775821   -0.7529683849    1.6846695913
     18  H        -1.7192537697   -3.8399983951    0.5241098577
     19  H        -3.3464201428    2.0689820559   -1.4855130239
     20  H         2.8801140368    2.8875275272    0.4789695729
     21  H         1.9448991066    2.3197312328    1.8966920617
     22  H         3.9834607255    0.8008552597    0.2937196666
     23  H         3.1246430744    0.1889539255    1.7386352388
     24  H        -3.0659263588   -2.8455762399    1.2100225685
     25  H        -2.5594800604   -2.6337831571   -0.5154527676
     26  H        -4.1023876549    2.7541277580    0.0098986145
     27  H        -4.0675289657    0.9650438209   -0.2619668858
     28  H         0.5796602188    2.7352203885   -0.5371781117
     29  C         2.7061276754   -1.2820732733   -0.9892028929
     30  H         3.6467928022   -0.9288318637   -1.4385882792
     31  H         2.9267795144   -2.1192629874   -0.3100149522
     32  H         2.0296222023   -1.6435432331   -1.7773192220
   Point Group: c1    Number of degrees of freedom:    90


   Energy is   -794.589317476

              Constraints and their Current Values
                                        Value     Constraint
   Dihedral:        2   1   3   5      157.300      157.300
   Dihedral:        1   2   4   7      -60.000      -60.000
 Hessian Updated using BFGS Update

   Using Lagrange Multiplier Algorithm


 86 Hessian modes will be used to form the next step
  Hessian Eigenvalues:
    -0.976331   -0.975071    0.027442    0.045000    0.045001    0.045005
     0.045258    0.045432    0.045722    0.048693    0.055912    0.059443
     0.066302    0.068288    0.071012    0.072820    0.073504    0.076260
     0.079727    0.080850    0.082035    0.082772    0.083643    0.084480
     0.085291    0.090172    0.091312    0.092204    0.096925    0.108081
     0.113780    0.113795    0.114416    0.116928    0.116974    0.123227
     0.128824    0.139985    0.144324    0.159679    0.160157    0.160805
     0.162220    0.169903    0.181577    0.242041    0.245018    0.249508
     0.249994    0.250014    0.250230    0.251264    0.262441    0.268688
     0.288303    0.289241    0.294913    0.307292    0.308628    0.324730
     0.329103    0.337487    0.340196    0.340760    0.341510    0.341767
     0.342407    0.342943    0.343141    0.343310    0.343457    0.343529
     0.343703    0.344378    0.344500    0.345000    0.346061    0.383017
     0.411923    0.451821    0.511579    0.536686    0.953372    0.978903
     1.027230    1.035144

 Minimum Search - Taking P-RFO Step
 Searching for Lamda that Maximizes Along the Constraint modes Only
 Value Taken    Lamda =   0.00000279
 Searching for Lamda that Minimizes Along All other modes
 Value Taken    Lamda =  -0.00041401
 Step Taken.  Stepsize is  0.105190

                             Maximum     Tolerance    Cnvgd?
         Gradient            0.004495       0.000300      NO
         Displacement        0.043818       0.001200      NO
         Energy change     -0.000754       0.000001      NO


 New Cartesian Coordinates Obtained by Inverse Iteration

 Displacement from previous Coordinates is:  0.252459
 Adding empirical dispersion correction 
 ----------------------------------------------------------------
 Doing -D3(op) with
 s6 =   1.00000
 s8 =   0.78311
 a1 =   0.30000
 a2 =   4.25000
 n  =  10.00000
 -D3 energy without 3body term =     -0.0356423834 hartrees
 ----------------------------------------------------------------
             Standard Nuclear Orientation (Angstroms)
    I     Atom           X                Y                Z
 ----------------------------------------------------------------
    1      C      -0.0303769709     0.8960573460     0.6835788112
    2      C       0.7376846950    -0.4895680124     0.6668448206
    3      C      -1.3774037640     0.8453105540    -0.1140793652
    4      C      -0.1467319066    -1.6762873673     0.1270248275
    5      O      -2.2327953845     1.8884752707     0.3683558681
    6      O      -1.6869921440     0.0571973402    -1.0359082700
    7      O      -1.2852548650    -1.7757765131     1.0047686328
    8      O       0.0555852161    -2.4487932359    -0.8328163635
    9      C      -2.2101737427    -2.8171510461     0.5018428496
   10      C      -3.5020562983     1.8916002715    -0.4004046214
   11      C       1.0136192572     1.8202072995    -0.0823555995
   12      C       2.2542569362     2.0736179395     0.8610774907
   13      C       2.9986126137     0.6932676586     0.7561290367
   14      C       2.0299225732    -0.1248963516    -0.2041367757
   15      O       1.5342764691     0.9238281631    -1.1362189556
   16      H      -0.2322797770     1.2529310216     1.7086379613
   17      H       1.0405675991    -0.7566390756     1.6961005727
   18      H      -1.7336244529    -3.8190401700     0.4851080830
   19      H      -3.3237204126     2.0568365803    -1.4827534193
   20      H       2.8717434074     2.8970443287     0.4687237919
   21      H       1.9465818909     2.3199034554     1.8900199112
   22      H       3.9862968728     0.8068590045     0.2818395741
   23      H       3.1299960513     0.1994214529     1.7316542117
   24      H      -3.0669410672    -2.8269458960     1.2005079089
   25      H      -2.5653040740    -2.5782722018    -0.5218780641
   26      H      -4.1033228479     2.7236438571     0.0094250441
   27      H      -4.0539822667     0.9370416792    -0.2776948239
   28      H       0.5674202566     2.7298138095    -0.5304774119
   29      C       2.7004222430    -1.2876512698    -0.9832003283
   30      H       3.6308811937    -0.9383959362    -1.4552257724
   31      H       2.9381555305    -2.1117153753    -0.2933607204
   32      H       2.0084939080    -1.6698902672    -1.7480918188
 ----------------------------------------------------------------
 Molecular Point Group                 C1    NOp =  1
 Largest Abelian Subgroup              C1    NOp =  1
 Nuclear Repulsion Energy =  1227.7127241756 hartrees
 There are       61 alpha and       61 beta electrons
 Applying Cartesian multipole field
    Component          Value
    ---------          -----
     (2,0,0)        1.00000E-11
     (0,2,0)        2.00000E-11
     (0,0,2)       -3.00000E-11
 Nucleus-field energy     =     0.0000000336 hartrees
 Requested basis set is STO-3G
 There are 48 shells and 96 basis functions
 A cutoff of  1.0D-12 yielded   1022 shell pairs
 There are      4511 function pairs
 Smallest overlap matrix eigenvalue = 2.14E-01
 Guess MOs from SCF MO coefficient file
 Reading MOs from coefficient file
 Reading MOs from coefficient file
 A restricted hybrid HF-DFT SCF calculation will be
 performed using Pulay DIIS extrapolation
 Exchange:     0.2000 Hartree-Fock + 0.0800 Slater + 0.7200 B88
 Correlation:  0.1900 VWN1RPA + 0.8100 LYP
 Using SG-1 standard quadrature grid
 Dispersion:   Grimme D3
 SCF converges when DIIS error is below 1.0E-08
 Geometry optimization detected.  Setting ReadMinima to 0
 Setting SaveMinima to 0
 -------------------------------------------------------
 OpenMP Integral computing Module                
 Release: version 1.0, May 2013, Q-Chem Inc. Pittsburgh 
 -------------------------------------------------------
 -------------------------------------------------------
 OpenMP BLAS3 based DFT computing Module                
 Release: version 1.0, May 2013, Q-Chem Inc. Pittsburgh 
 -------------------------------------------------------
 ---------------------------------------
  Cycle       Energy         DIIS Error
 ---------------------------------------
    1    -794.5884309482      1.30E-03
    2    -794.5895481881      1.12E-04
    3    -794.5895191984      2.06E-04
    4    -794.5895728426      4.02E-05
    5    -794.5895746978      1.58E-05
    6    -794.5895750226      5.43E-06
    7    -794.5895750558      2.33E-06
    8    -794.5895750627      6.01E-07
    9    -794.5895750631      8.13E-08
   10    -794.5895750632      4.30E-08
   11    -794.5895750632      9.52E-09 Convergence criterion met
 ---------------------------------------
 SCF time:  CPU 48.73 s  wall 2.05 s
 SCF   energy in the final basis set = -794.5895750632
 Total energy in the final basis set = -794.5895750632
 
 --------------------------------------------------------------
 
                    Orbital Energies (a.u.)
 --------------------------------------------------------------
 
 Alpha MOs
 -- Occupied --
-18.935 -18.920 -18.879 -18.875 -18.868 -10.098 -10.092 -10.065
-10.059 -10.058 -10.055 -10.035 -10.030 -10.018 -10.013 -10.005
 -1.012  -0.999  -0.965  -0.935  -0.926  -0.760  -0.725  -0.718
 -0.671  -0.653  -0.635  -0.591  -0.540  -0.525  -0.489  -0.469
 -0.452  -0.438  -0.429  -0.413  -0.413  -0.404  -0.401  -0.381
 -0.376  -0.366  -0.356  -0.349  -0.339  -0.336  -0.312  -0.307
 -0.306  -0.293  -0.289  -0.276  -0.267  -0.254  -0.246  -0.228
 -0.179  -0.167  -0.154  -0.143  -0.139
 -- Virtual --
  0.096   0.116   0.234   0.252   0.270   0.287   0.307   0.326
  0.339   0.343   0.356   0.374   0.384   0.391   0.403   0.418
  0.422   0.423   0.427   0.430   0.432   0.434   0.439   0.441
  0.449   0.462   0.473   0.478   0.492   0.501   0.512   0.545
  0.553   0.648   0.657
 --------------------------------------------------------------
 
          Ground-State Mulliken Net Atomic Charges

     Atom                 Charge (a.u.)
  ----------------------------------------
      1 C                    -0.077910
      2 C                    -0.081096
      3 C                     0.213519
      4 C                     0.215013
      5 O                    -0.169169
      6 O                    -0.211871
      7 O                    -0.177829
      8 O                    -0.211186
      9 C                    -0.129363
     10 C                    -0.128766
     11 C                     0.025133
     12 C                    -0.144656
     13 C                    -0.144839
     14 C                     0.105203
     15 O                    -0.193650
     16 H                     0.086896
     17 H                     0.082082
     18 H                     0.086103
     19 H                     0.089935
     20 H                     0.077331
     21 H                     0.073192
     22 H                     0.075230
     23 H                     0.070923
     24 H                     0.085997
     25 H                     0.092478
     26 H                     0.090439
     27 H                     0.089148
     28 H                     0.081525
     29 C                    -0.228706
     30 H                     0.078707
     31 H                     0.078807
     32 H                     0.101381
  ----------------------------------------
  Sum of atomic charges =    -0.000000

 -----------------------------------------------------------------
                    Cartesian Multipole Moments
 -----------------------------------------------------------------
    Charge (ESU x 10^10)
                -0.0000
    Dipole Moment (Debye)
         X      -0.5613      Y       1.0024      Z       2.0645
       Tot       2.3626
    Quadrupole Moments (Debye-Ang)
        XX     -77.5494     XY      -0.0966     YY     -84.3459
        XZ       2.8121     YZ      -2.8954     ZZ     -89.9994
    Octopole Moments (Debye-Ang^2)
       XXX     -44.3210    XXY      -0.8556    XYY     -19.0542
       YYY      -8.3145    XXZ      -4.4651    XYZ       5.8851
       YYZ       0.8512    XZZ      -5.8017    YZZ      -0.7305
       ZZZ      -5.7180
    Hexadecapole Moments (Debye-Ang^3)
      XXXX   -2110.7473   XXXY     -70.8686   XXYY    -571.4683
      XYYY     -18.9896   YYYY   -1458.9464   XXXZ     -17.7335
      XXYZ     -21.8164   XYYZ       3.0960   YYYZ     -57.9655
      XXZZ    -444.4038   XYZZ     -21.2399   YYZZ    -318.2018
      XZZZ      -1.9375   YZZZ     -18.3731   ZZZZ    -374.4083
 -----------------------------------------------------------------
 Calculating analytic gradient of the SCF energy
 Gradient of SCF Energy
            1           2           3           4           5           6
    1  -0.0002740  -0.0000256   0.0011030   0.0019818  -0.0001057  -0.0005824
    2   0.0011500   0.0000769  -0.0000783  -0.0023459   0.0008161  -0.0011155
    3   0.0014678  -0.0016072  -0.0012487   0.0014806   0.0018960  -0.0003495
            7           8           9          10          11          12
    1  -0.0018522  -0.0001335  -0.0006409  -0.0010838   0.0003998   0.0003483
    2   0.0021381  -0.0003380  -0.0006647   0.0000462   0.0003971   0.0005651
    3   0.0005494  -0.0002846  -0.0003738  -0.0006819   0.0007015   0.0006217
           13          14          15          16          17          18
    1   0.0007490   0.0001455  -0.0002705  -0.0001482   0.0002245   0.0000678
    2   0.0001899   0.0003575  -0.0000735  -0.0005497   0.0003796  -0.0002051
    3   0.0004865   0.0000327  -0.0012939   0.0002173   0.0001173  -0.0000185
           19          20          21          22          23          24
    1   0.0000432   0.0000240  -0.0000649  -0.0001220   0.0000447   0.0000857
    2  -0.0001221  -0.0000896   0.0001554   0.0000595  -0.0000249   0.0001753
    3  -0.0001930  -0.0001639  -0.0000094  -0.0001404  -0.0000596   0.0000471
           25          26          27          28          29          30
    1   0.0000870   0.0001870  -0.0000298  -0.0003108   0.0003314   0.0003927
    2  -0.0000623   0.0000116  -0.0002034  -0.0001164  -0.0002378  -0.0001727
    3  -0.0002107   0.0000991  -0.0000859  -0.0001892  -0.0011011   0.0008081
           31          32
    1  -0.0008242   0.0002531
    2  -0.0004249   0.0003067
    3  -0.0002147  -0.0002989
 Max gradient component =       2.346E-03
 RMS gradient           =       6.963E-04
 Gradient time:  CPU 16.22 s  wall 0.68 s
 Geometry Optimization Parameters
   NAtoms,    NIC,     NZ,  NCons,   NDum,   NFix, NCnnct, MaxDiis
       32     251       0       2       0       0       0       0

 Cartesian Hessian Update
 Hessian Updated using BFGS Update


** CONSTRAINED OPTIMIZATION IN DELOCALIZED INTERNAL COORDINATES **
   Searching for a Minimum

   Optimization Cycle:   5

                       Coordinates (Angstroms)
     ATOM                X               Y               Z
[...]
 TransDip   0.134  0.218  0.163   -0.141  0.406  0.416   -0.128  0.039  0.039

 Mode:                76                     77                     78
 Frequency:      3048.71                3049.80                3055.06
 Force Cnst:      5.6373                 5.6425                 5.8762
 Red. Mass:       1.0294                 1.0296                 1.0686
 IR Active:          YES                    YES                    YES
 IR Intens:       34.027                 37.079                 12.321
 Raman Active:       YES                    YES                    YES
               X      Y      Z        X      Y      Z        X      Y      Z
 C          0.000 -0.000 -0.001   -0.000  0.000  0.001   -0.001  0.002  0.007
 C          0.001 -0.001  0.005   -0.000  0.000 -0.001   -0.013  0.012 -0.049
 C         -0.000  0.000  0.000    0.001 -0.002 -0.001    0.000 -0.000  0.000
 C          0.002 -0.000 -0.002    0.000 -0.000 -0.000    0.000 -0.000 -0.002
 O          0.000 -0.000  0.000   -0.002  0.001 -0.001   -0.000  0.000 -0.000
 O         -0.000 -0.000 -0.000    0.000  0.001  0.001   -0.000 -0.000 -0.000
 O         -0.002 -0.001  0.000   -0.000 -0.000  0.000   -0.000 -0.000  0.000
 O         -0.000  0.001  0.001   -0.000  0.000  0.000   -0.000  0.000  0.000
 C         -0.023 -0.032 -0.018   -0.003 -0.004 -0.002   -0.001 -0.002 -0.001
 C          0.004  0.000  0.003   -0.034 -0.002 -0.028    0.000  0.000  0.000
 C          0.000 -0.000  0.000   -0.000  0.000 -0.000   -0.001  0.002 -0.001
 C          0.000  0.000  0.000   -0.000 -0.000 -0.000   -0.008 -0.024 -0.018
 C         -0.002  0.001 -0.001   -0.000  0.000 -0.000    0.031 -0.017  0.023
 C          0.000  0.000 -0.000    0.000  0.000  0.000   -0.001 -0.000 -0.000
 O         -0.000 -0.000  0.000   -0.000  0.000  0.000    0.000  0.000  0.000
 H         -0.001  0.002  0.007    0.002 -0.003 -0.009    0.016 -0.028 -0.087
 H         -0.015  0.013 -0.055    0.002 -0.001  0.006    0.161 -0.139  0.587
 H         -0.251  0.580 -0.017   -0.029  0.067 -0.002   -0.015  0.034 -0.001
 H          0.016  0.016 -0.068   -0.135 -0.135  0.594    0.002  0.002 -0.008
 H         -0.002 -0.002  0.001    0.004  0.005 -0.002    0.185  0.219 -0.109
 H          0.001 -0.001 -0.004   -0.002  0.001  0.005   -0.101  0.067  0.324
 H          0.016  0.002 -0.008    0.005  0.000 -0.002   -0.327 -0.036  0.167
 H          0.002 -0.011  0.021    0.000 -0.002  0.004   -0.036  0.232 -0.430
 H          0.323 -0.048 -0.312    0.037 -0.005 -0.036    0.019 -0.003 -0.018
 H          0.217 -0.132  0.559    0.025 -0.015  0.065    0.013 -0.007  0.032
 H         -0.021  0.040  0.024    0.181 -0.347 -0.203   -0.002  0.004  0.003
 H         -0.043 -0.059  0.005    0.376  0.508 -0.039   -0.005 -0.006  0.000
 H         -0.001  0.002 -0.001    0.001 -0.002  0.001    0.008 -0.022  0.009
 C          0.001 -0.001 -0.000    0.001 -0.001 -0.000    0.003 -0.002 -0.001
 H         -0.017 -0.008  0.009   -0.009 -0.004  0.005   -0.033 -0.015  0.018
 H         -0.006  0.017 -0.013   -0.003  0.009 -0.007   -0.009  0.030 -0.023
 H          0.007  0.003  0.007    0.003  0.002  0.004    0.011  0.007  0.014
 TransDip  -0.119 -0.144  0.014   -0.179  0.046 -0.061    0.066 -0.084 -0.036

 Mode:                79                     80                     81
 Frequency:      3059.84                3067.35                3093.95
 Force Cnst:      5.9071                 5.8873                 6.2457
 Red. Mass:       1.0708                 1.0620                 1.1074
 IR Active:          YES                    YES                    YES
 IR Intens:       23.060                 37.858                  0.597
 Raman Active:       YES                    YES                    YES
               X      Y      Z        X      Y      Z        X      Y      Z
 C         -0.001  0.001  0.004   -0.001  0.002  0.007   -0.002  0.003  0.009
 C         -0.014  0.014 -0.054   -0.005  0.005 -0.022    0.002 -0.002  0.007
 C          0.000 -0.000  0.000    0.000  0.000  0.000   -0.000  0.000  0.000
 C          0.000 -0.000 -0.002    0.000  0.000 -0.000   -0.000  0.000  0.000
 O         -0.000  0.000 -0.000   -0.000  0.000 -0.000    0.000 -0.000 -0.000
 O         -0.000 -0.000 -0.000   -0.000 -0.000 -0.000    0.000 -0.000 -0.000
 O         -0.000 -0.000  0.000   -0.000 -0.000  0.000   -0.000 -0.000 -0.000
 O         -0.000  0.000  0.000   -0.000  0.000  0.000    0.000 -0.000 -0.000
 C         -0.001 -0.001 -0.001    0.000 -0.000  0.000    0.000  0.000 -0.000
 C          0.000 -0.000  0.000    0.000  0.000  0.000    0.000 -0.000 -0.000
 C          0.001 -0.003  0.001   -0.001  0.004 -0.002    0.003 -0.006  0.002
 C          0.012  0.036  0.025   -0.008 -0.032 -0.024    0.038  0.024 -0.052
 C         -0.017  0.003 -0.002   -0.044  0.018 -0.020   -0.032 -0.021  0.049
 C         -0.001 -0.000 -0.000   -0.000  0.001  0.000   -0.001 -0.000  0.000
 O          0.000 -0.000  0.000    0.000 -0.000  0.000   -0.000  0.000  0.000
 H          0.009 -0.013 -0.042    0.014 -0.026 -0.078    0.018 -0.036 -0.105
 H          0.179 -0.156  0.656    0.071 -0.062  0.261   -0.021  0.020 -0.082
 H         -0.009  0.021 -0.001   -0.000  0.001 -0.000    0.001 -0.001  0.000
 H          0.001  0.001 -0.002    0.002  0.002 -0.008   -0.000 -0.000  0.000
 H         -0.272 -0.322  0.160    0.230  0.273 -0.137   -0.325 -0.394  0.175
 H          0.141 -0.094 -0.450   -0.131  0.088  0.415   -0.130  0.106  0.447
 H          0.186  0.018 -0.090    0.470  0.049 -0.234    0.424  0.037 -0.195
 H          0.008 -0.061  0.118    0.037 -0.251  0.463   -0.046  0.210 -0.388
 H          0.011 -0.002 -0.011    0.000 -0.000 -0.000   -0.001  0.000  0.001
 H          0.008 -0.004  0.019   -0.000  0.000 -0.001   -0.000 -0.000 -0.000
 H         -0.001  0.001  0.001   -0.002  0.004  0.002   -0.000  0.000  0.000
 H         -0.001 -0.002  0.000   -0.004 -0.006  0.000   -0.000 -0.000  0.000
 H         -0.011  0.031 -0.012    0.020 -0.053  0.024   -0.029  0.069 -0.033
 C         -0.004  0.003  0.001   -0.004  0.003  0.001    0.005  0.012 -0.009
 H          0.051  0.023 -0.028    0.049  0.022 -0.026   -0.091 -0.040  0.045
 H          0.015 -0.044  0.033    0.014 -0.043  0.032    0.035 -0.097  0.075
 H         -0.021 -0.011 -0.022   -0.020 -0.012 -0.023   -0.004 -0.000 -0.010
 TransDip  -0.028  0.151  0.012   -0.157 -0.009 -0.118    0.023  0.008  0.001

 Mode:                82                     83                     84
 Frequency:      3102.62                3110.25                3116.53
 Force Cnst:      6.2499                 6.2472                 6.2733
 Red. Mass:       1.1020                 1.0961                 1.0962
 IR Active:          YES                    YES                    YES
 IR Intens:       12.662                 17.173                 37.787
 Raman Active:       YES                    YES                    YES
               X      Y      Z        X      Y      Z        X      Y      Z
 C         -0.001  0.002  0.007    0.010 -0.019 -0.055    0.010 -0.018 -0.054
 C          0.001 -0.000  0.000   -0.001  0.001 -0.002   -0.003  0.003 -0.009
 C         -0.000  0.000  0.000    0.001 -0.001 -0.001    0.001 -0.001 -0.001
 C          0.000 -0.000 -0.000    0.000  0.000 -0.000    0.000  0.000 -0.000
 O         -0.000 -0.000 -0.000   -0.000  0.000  0.000   -0.000  0.000  0.000
 O          0.000 -0.000 -0.000    0.000  0.000  0.000    0.000  0.000  0.000
 O         -0.000 -0.000  0.000   -0.000 -0.000  0.000   -0.000 -0.000  0.000
 O         -0.000  0.000  0.000   -0.000 -0.000 -0.000   -0.000  0.000  0.000
 C         -0.000  0.000  0.000   -0.000  0.000  0.000    0.000 -0.000  0.000
 C          0.000  0.000 -0.000   -0.000  0.000  0.000   -0.001 -0.001  0.001
 C          0.001 -0.002  0.001   -0.004  0.009 -0.004    0.001 -0.002 -0.001
 C          0.013  0.008 -0.018   -0.019 -0.013  0.024    0.027  0.015 -0.040
 C          0.002  0.002 -0.004   -0.029 -0.018  0.043    0.023  0.015 -0.036
 C         -0.001 -0.001  0.001   -0.001 -0.001  0.001    0.000  0.001 -0.001
 O         -0.000  0.000 -0.000   -0.000  0.000  0.000   -0.000  0.000  0.001
 H          0.016 -0.029 -0.087   -0.120  0.218  0.654   -0.119  0.212  0.638
 H         -0.002  0.002 -0.011    0.010 -0.008  0.028    0.030 -0.029  0.112
 H          0.001 -0.003  0.000    0.001 -0.002  0.000   -0.002  0.004  0.000
 H         -0.000 -0.000  0.001   -0.000 -0.001  0.003    0.002  0.001 -0.005
 H         -0.110 -0.134  0.060    0.168  0.206 -0.091   -0.214 -0.262  0.116
 H         -0.044  0.036  0.150    0.057 -0.048 -0.192   -0.106  0.087  0.359
 H         -0.032 -0.002  0.017    0.391  0.033 -0.180   -0.313 -0.026  0.145
 H          0.003 -0.015  0.024   -0.040  0.181 -0.331    0.034 -0.157  0.286
 H          0.001 -0.000 -0.001    0.001 -0.000 -0.001    0.001 -0.000 -0.001
 H          0.000 -0.000  0.000   -0.000  0.000 -0.000   -0.001  0.001 -0.003
 H         -0.000  0.000  0.000    0.001 -0.003 -0.002    0.001 -0.003 -0.002
 H         -0.001 -0.002  0.000    0.002  0.003 -0.000    0.008  0.011 -0.001
 H         -0.013  0.030 -0.015    0.044 -0.103  0.049   -0.004  0.012 -0.006
 C         -0.028 -0.063  0.056   -0.005 -0.012  0.012    0.003  0.006 -0.006
 H          0.541  0.234 -0.274    0.111  0.047 -0.057   -0.053 -0.022  0.028
 H         -0.194  0.538 -0.412   -0.037  0.102 -0.078    0.018 -0.049  0.037
 H         -0.008 -0.016  0.013   -0.008 -0.007 -0.006    0.004  0.003  0.003
 TransDip  -0.048 -0.073  0.073   -0.089 -0.081  0.055    0.102  0.023 -0.167

 Mode:                85                     86                     87
 Frequency:      3122.45                3123.64                3128.20
 Force Cnst:      6.3592                 6.3654                 6.2851
 Red. Mass:       1.1070                 1.1073                 1.0901
 IR Active:          YES                    YES                    YES
 IR Intens:       19.165                 15.259                 23.777
 Raman Active:       YES                    YES                    YES
               X      Y      Z        X      Y      Z        X      Y      Z
 C          0.000 -0.000 -0.001   -0.000  0.000  0.000    0.001 -0.002 -0.007
 C         -0.000  0.000 -0.000    0.000 -0.000  0.000   -0.000  0.001 -0.002
 C         -0.000 -0.000  0.000    0.000  0.000  0.000    0.000 -0.001  0.000
 C          0.000  0.000 -0.000   -0.000 -0.000 -0.000    0.000  0.000  0.000
 O         -0.000 -0.000  0.000   -0.000 -0.000  0.000   -0.000  0.000 -0.000
 O         -0.000 -0.000  0.000   -0.000 -0.000 -0.000   -0.000  0.000 -0.000
 O         -0.000 -0.000  0.000   -0.000  0.000 -0.000   -0.000 -0.000  0.000
 O         -0.000 -0.000  0.000   -0.000  0.000 -0.000   -0.000 -0.000 -0.000
 C         -0.003  0.004 -0.003    0.046 -0.066  0.051    0.000 -0.000  0.000
 C          0.046  0.059 -0.058    0.003  0.004 -0.004   -0.001 -0.001  0.001
 C          0.001 -0.001  0.001   -0.000  0.000 -0.000    0.030 -0.072  0.035
 C          0.000 -0.000 -0.000   -0.000 -0.000  0.000   -0.008 -0.008  0.005
 C          0.000  0.000 -0.000   -0.000 -0.000  0.000   -0.003  0.000  0.001
 C         -0.000  0.000 -0.000    0.000 -0.000  0.000   -0.001  0.001 -0.000
 O          0.000 -0.000  0.000   -0.000  0.000 -0.000    0.000 -0.000 -0.000
 H         -0.002  0.004  0.011    0.000 -0.001 -0.003   -0.016  0.024  0.078
 H          0.001 -0.001  0.003   -0.000  0.001 -0.001    0.005 -0.004  0.017
 H          0.019 -0.043  0.000   -0.282  0.647 -0.003   -0.000  0.001  0.000
 H         -0.147 -0.134  0.674   -0.010 -0.009  0.045    0.002  0.002 -0.011
 H         -0.001 -0.001  0.001    0.000  0.001 -0.000    0.086  0.101 -0.044
 H         -0.001  0.001  0.004    0.000 -0.000 -0.001    0.008 -0.006 -0.019
 H         -0.003 -0.000  0.001    0.002  0.000 -0.001    0.033  0.003 -0.015
 H          0.001 -0.002  0.004   -0.000  0.001 -0.003   -0.000  0.001 -0.000
 H          0.003  0.000 -0.004   -0.023 -0.008  0.040    0.001 -0.000 -0.001
 H          0.015 -0.009  0.041   -0.235  0.137 -0.642   -0.001  0.001 -0.003
 H          0.015 -0.001 -0.018    0.000  0.001 -0.000    0.000 -0.002 -0.001
 H         -0.411 -0.567  0.027   -0.026 -0.036  0.002    0.009  0.012 -0.001
 H         -0.007  0.016 -0.008    0.001 -0.001  0.001   -0.342  0.825 -0.408
 C          0.000  0.000 -0.000   -0.000 -0.000  0.000   -0.000 -0.000  0.000
 H         -0.002 -0.001  0.001    0.002  0.001 -0.001    0.003  0.001 -0.002
 H          0.001 -0.002  0.001   -0.001  0.002 -0.002   -0.000  0.001 -0.001
 H          0.000  0.000 -0.000   -0.000 -0.000  0.000   -0.002 -0.001 -0.002
 TransDip   0.064  0.090 -0.086    0.056 -0.095  0.060    0.033 -0.148  0.037

 Mode:                88                     89                     90
 Frequency:      3152.59                3157.16                3164.37
 Force Cnst:      6.4788                 6.4973                 6.4729
 Red. Mass:       1.1064                 1.1063                 1.0972
 IR Active:          YES                    YES                    YES
 IR Intens:       14.468                 14.497                  2.845
 Raman Active:       YES                    YES                    YES
               X      Y      Z        X      Y      Z        X      Y      Z
 C         -0.000  0.000  0.000    0.000  0.000 -0.000    0.000 -0.000 -0.000
 C          0.000 -0.000 -0.000   -0.000  0.000 -0.000    0.000 -0.000 -0.000
 C         -0.000  0.000  0.000   -0.001 -0.000 -0.001   -0.000 -0.000 -0.000
 C          0.000  0.001  0.001   -0.000  0.000 -0.000    0.000 -0.000 -0.000
 O          0.000 -0.000 -0.000   -0.000  0.000  0.000   -0.000  0.000 -0.000
 O          0.000 -0.000 -0.000    0.000  0.000  0.000    0.000  0.000  0.000
 O          0.000 -0.000 -0.000    0.000 -0.000  0.000   -0.000  0.000  0.000
 O         -0.000 -0.000 -0.000    0.000 -0.000  0.000   -0.001 -0.000  0.000
 C         -0.052  0.023  0.076    0.000  0.000 -0.000    0.000 -0.000 -0.000
 C         -0.000 -0.000 -0.000    0.022 -0.072 -0.057    0.000 -0.000 -0.000
 C         -0.000  0.000 -0.000    0.000 -0.000  0.000    0.000 -0.000  0.000
 C          0.000  0.000  0.000   -0.000 -0.000 -0.000   -0.000  0.000 -0.000
 C          0.000 -0.000  0.000   -0.000  0.000 -0.000   -0.001  0.000  0.001
 C          0.000  0.000  0.000   -0.000  0.000  0.000   -0.001  0.000 -0.001
 O          0.000 -0.000 -0.000    0.000  0.000  0.000    0.000 -0.000  0.000
 H          0.000 -0.001 -0.002    0.000  0.000  0.002   -0.000  0.000  0.001
 H         -0.000 -0.000 -0.001    0.000 -0.000  0.000    0.000 -0.001  0.003
 H          0.108 -0.263  0.023    0.000 -0.001 -0.000   -0.001  0.001 -0.000
 H          0.000  0.000 -0.001   -0.068 -0.082  0.295   -0.000 -0.000  0.000
 H         -0.000 -0.000  0.000    0.000  0.000 -0.000    0.001  0.000 -0.000
 H          0.000 -0.000 -0.001   -0.000  0.000  0.001    0.000  0.000  0.001
 H         -0.000 -0.000  0.000    0.000  0.000 -0.000    0.011  0.002 -0.004
 H          0.000  0.000 -0.000    0.000 -0.000  0.000   -0.001  0.002 -0.005
 H          0.634 -0.093 -0.617   -0.002  0.000  0.002   -0.003  0.000  0.003
 H         -0.132  0.082 -0.306    0.001 -0.000  0.002    0.001 -0.000  0.001
 H         -0.001  0.002  0.001   -0.368  0.706  0.414   -0.001  0.001  0.001
 H          0.002  0.003 -0.000    0.182  0.231 -0.031    0.000  0.000 -0.000
 H          0.001 -0.002  0.001   -0.000  0.001 -0.000   -0.001  0.001 -0.001
 C         -0.000  0.000 -0.000    0.000  0.000  0.000   -0.067 -0.021 -0.057
 H         -0.000 -0.000  0.000   -0.000 -0.000  0.000    0.180  0.085 -0.106
 H          0.001 -0.002  0.001   -0.000  0.000 -0.000    0.043 -0.165  0.115
 H          0.003  0.002  0.003   -0.001 -0.001 -0.001    0.590  0.331  0.664
 TransDip  -0.083  0.016  0.088    0.047 -0.096 -0.059   -0.034 -0.007 -0.041

 STANDARD THERMODYNAMIC QUANTITIES AT   298.15 K  AND     1.00 ATM

   This Molecule has  0 Imaginary Frequencies
   Zero point vibrational energy:      166.287 kcal/mol

   Atom    1 Element C  Has Mass   12.00000
   Atom    2 Element C  Has Mass   12.00000
   Atom    3 Element C  Has Mass   12.00000
   Atom    4 Element C  Has Mass   12.00000
   Atom    5 Element O  Has Mass   15.99491
   Atom    6 Element O  Has Mass   15.99491
   Atom    7 Element O  Has Mass   15.99491
   Atom    8 Element O  Has Mass   15.99491
   Atom    9 Element C  Has Mass   12.00000
   Atom   10 Element C  Has Mass   12.00000
   Atom   11 Element C  Has Mass   12.00000
   Atom   12 Element C  Has Mass   12.00000
   Atom   13 Element C  Has Mass   12.00000
   Atom   14 Element C  Has Mass   12.00000
   Atom   15 Element O  Has Mass   15.99491
   Atom   16 Element H  Has Mass    1.00783
   Atom   17 Element H  Has Mass    1.00783
   Atom   18 Element H  Has Mass    1.00783
   Atom   19 Element H  Has Mass    1.00783
   Atom   20 Element H  Has Mass    1.00783
   Atom   21 Element H  Has Mass    1.00783
   Atom   22 Element H  Has Mass    1.00783
   Atom   23 Element H  Has Mass    1.00783
   Atom   24 Element H  Has Mass    1.00783
   Atom   25 Element H  Has Mass    1.00783
   Atom   26 Element H  Has Mass    1.00783
   Atom   27 Element H  Has Mass    1.00783
   Atom   28 Element H  Has Mass    1.00783
   Atom   29 Element C  Has Mass   12.00000
   Atom   30 Element H  Has Mass    1.00783
   Atom   31 Element H  Has Mass    1.00783
   Atom   32 Element H  Has Mass    1.00783
   Molecular Mass:   228.099830 amu
   Principal axes and moments of inertia in amu*Bohr^2:
                             1           2           3
    Eigenvalues --     2654.32291  3419.14616  5127.07956
          X               0.99998    -0.00315     0.00561
          Y               0.00313     0.99999     0.00239
          Z              -0.00561    -0.00237     0.99998
   Rotational Symmetry Number is   1
   The Molecule is an Asymmetric Top
   Translational Enthalpy:        0.889 kcal/mol
   Rotational Enthalpy:           0.889 kcal/mol
   Vibrational Enthalpy:        174.464 kcal/mol
   gas constant (RT):             0.592 kcal/mol
   Translational Entropy:        42.176  cal/mol.K
   Rotational Entropy:           32.209  cal/mol.K
   Vibrational Entropy:          53.897  cal/mol.K

   Total Enthalpy:              176.834 kcal/mol
   Total Entropy:               128.282  cal/mol.K
Archival summary:
1\1\nid00666\FREQ\ProcedureUnspecified\BasisUnspecified\51116\junteng\WedOct421:01:372017WedOct421:01:372017\0\\#,FREQ,ProcedureUnspecified,BasisUnspecified,\\0,1\O\C,1,1.42412\H,2,1.08824,1,110.146\C,1,1.44654,2,98.2307,3,179.89,0\C,4,1.5123,1,110.443,2,-177.389,0\H,5,1.08668,4,111.227,1,-57.8847,0\H,5,1.09266,4,108.998,1,63.1156,0\H,5,1.09299,4,110.408,1,-177.807,0\C,2,1.54389,1,103.662,3,-124.352,0\H,9,1.09096,2,110.237,1,85.3821,0\H,9,1.09181,2,112.477,1,-153.918,0\C,9,1.55434,2,100.771,1,-32.4775,0\H,12,1.09105,9,111.2,2,114.903,0\H,12,1.09176,9,113.543,2,-123.018,0\C,2,1.56022,1,102.269,3,121.96,0\H,15,1.08897,2,111.411,1,157.522,0\C,15,1.51326,2,108.685,1,-83.4483,0\O,17,1.20496,15,126.684,2,88.0354,0\O,17,1.35322,15,109.957,2,-89.0265,0\C,19,1.4403,17,115.803,15,176.673,0\H,20,1.08776,19,105.47,17,179.801,0\H,20,1.09103,19,110.507,17,-60.5268,0\H,20,1.09104,19,110.37,17,60.304,0\C,15,1.56432,2,100.313,1,38.2267,0\H,24,1.09363,15,108.008,2,110.276,0\C,24,1.52142,15,114.432,2,-134.387,0\O,26,1.20196,24,128.082,15,126.196,0\O,26,1.35642,24,108.555,15,-57.9489,0\C,28,1.43892,26,115.701,24,175.234,0\H,29,1.08806,28,105.479,26,-178.754,0\H,29,1.09099,28,109.794,26,-59.4111,0\H,29,1.09103,28,110.689,26,61.6082,0\\\@

 Total job time:  10263.96s(wall), 59518.50s(cpu) 
 Wed Oct  4 21:01:38 2017

        *************************************************************
        *                                                           *
        *  Thank you very much for using Q-Chem.  Have a nice day.  *
        *                                                           *
        *************************************************************


