nid03059 10.128.12
Q-Chem Developer Version! Running on 10.128.12.*
                  Welcome to Q-Chem
     A Quantum Leap Into The Future Of Chemistry


 Q-Chem 5.0, Q-Chem, Inc., Pleasanton, CA (2017)

 Yihan Shao,  Zhengting Gan,  E. Epifanovsky,  A. T. B. Gilbert,  M. Wormit,  
 J. Kussmann,  A. W. Lange,  A. Behn,  Jia Deng,  Xintian Feng,  D. Ghosh,  
 M. Goldey,  P. R. Horn,  L. D. Jacobson,  I. Kaliman,  T. Kus,  A. Landau,  
 Jie Liu,  E. I. Proynov,  R. M. Richard,  R. P. Steele,  E. J. Sundstrom,  
 H. L. Woodcock III,  P. M. Zimmerman,  D. Zuev,  B. Albrecht,  E. Alguire,  
 S. A. Baeppler,  Z. Benda,  Y. A. Bernard,  E. J. Berquist,  K. B. Bravaya,  
 D. Casanova,  Chun-Min Chang,  Yunqing Chen,  A. Chien,  K. D. Closser,  
 M. P. Coons,  S. Dasgupta,  M. Diedenhofen,  Hainam Do,  R. G. Edgar,  
 Po-Tung Fang,  S. Fatehi,  Qingguo Feng,  Qinghui Ge,  A. Ghysels,  
 J. Gomes,  J. Gonthier,  A. Gunina,  M. W. D. Hanson-Heine,  
 P. H. P. Harbach,  A. W. Hauser,  J. E. Herr,  E. G. Hohenstein,  
 Z. C. Holden,  Kerwin Hui,  T.-C. Jagau,  Hyunjun Ji,  B. Kaduk,  
 K. Khistyaev,  Jaehoon Kim,  P. Klunzinger,  K. Koh,  D. Kosenkov,  
 T. Kowalczyk,  C. M. Krauter,  A. Kunitsa,  Ka Un Lao,  A. Laurent,  
 K. V. Lawler,  Joonho Lee,  D. Lefrancois,  S. Lehtola,  D. S. Levine,  
 Yi-Pei Li,  You-Sheng Lin,  Fenglai Liu,  E. Livshits,  A. Luenser,  
 P. Manohar,  E. Mansoor,  S. F. Manzer,  Shan-Ping Mao,  Yuezhi Mao,  
 N. Mardirossian,  A. V. Marenich,  L. A. Martinez-Martinez,  S. A. Maurer,  
 N. J. Mayhall,  S. C. McKenzie,  J.-M. Mewes,  A. F. Morrison,  K. Nanda,  
 T. S. Nguyen-Beck,  R. Olivares-Amaya,  J. A. Parkhill,  T. M. Perrine,  
 F. Plasser,  S. Prager,  A. Prociuk,  D. R. Rehn,  F. Rob,  M. Schneider,  
 N. Sergueev,  S. M. Sharada,  S. Sharma,  D. W. Small,  T. Stauch,  
 T. Stein,  Yu-Chuan Su,  A. J. W. Thom,  T. Tsuchimochi,  L. Vogt,  
 O. Vydrov,  M. A. Watson,  J. Wenzel,  M. de Wergifosse,  T. A. Wesolowski,  
 A. White,  J. Witte,  A. Yamada,  Jun Yang,  K. Yao,  S. Yeganeh,  
 S. R. Yost,  Zhi-Qiang You,  A. Zech,  Igor Ying Zhang,  Xing Zhang,  
 Yan Zhao,  Ying Zhu,  B. R. Brooks,  G. K. L. Chan,  C. J. Cramer,  
 M. S. Gordon,  W. J. Hehre,  A. Klamt,  M. W. Schmidt,  C. D. Sherrill,  
 D. G. Truhlar,  A. Aspuru-Guzik,  R. Baer,  A. T. Bell,  N. A. Besley,  
 Jeng-Da Chai,  A. Dreuw,  B. D. Dunietz,  T. R. Furlani,  Chao-Ping Hsu,  
 Yousung Jung,  Jing Kong,  D. S. Lambrecht,  WanZhen Liang,  C. Ochsenfeld,  
 V. A. Rassolov,  L. V. Slipchenko,  J. E. Subotnik,  T. Van Voorhis,  
 J. M. Herbert,  A. I. Krylov,  P. M. W. Gill,  M. Head-Gordon

 Contributors to earlier versions of Q-Chem not listed above: 
 R. D. Adamson,  B. Austin,  J. Baker,  G. J. O. Beran,  K. Brandhorst,  
 S. T. Brown,  E. F. C. Byrd,  A. K. Chakraborty,  C.-L. Cheng,  
 Siu Hung Chien,  D. M. Chipman,  D. L. Crittenden,  H. Dachsel,  
 R. A. DiStasio Jr.,  R. J. Doerksen,  A. D. Dutoi,  L. Fusti-Molnar,  
 W. A. Goddard III,  A. Golubeva-Zadorozhnaya,  S. R. Gwaltney,  G. Hawkins,  
 A. Heyden,  S. Hirata,  G. Kedziora,  F. J. Keil,  C. Kelley,  Jihan Kim,  
 R. A. King,  R. Z. Khaliullin,  P. P. Korambath,  W. Kurlancheek,  
 A. M. Lee,  M. S. Lee,  S. V. Levchenko,  Ching Yeh Lin,  D. Liotard,  
 R. C. Lochan,  I. Lotan,  P. E. Maslen,  N. Nair,  D. P. O'Neill,  
 D. Neuhauser,  E. Neuscamman,  C. M. Oana,  R. Olson,  B. Peters,  
 R. Peverati,  P. A. Pieniazek,  Y. M. Rhee,  J. Ritchie,  M. A. Rohrdanz,  
 E. Rosta,  N. J. Russ,  H. F. Schaefer III,  N. E. Schultz,  N. Shenvi,  
 A. C. Simmonett,  A. Sodt,  D. Stuck,  K. S. Thanthiriwatte,  V. Vanovschi,  
 Tao Wang,  A. Warshel,  C. F. Williams,  Q. Wu,  X. Xu,  W. Zhang

 Please cite Q-Chem as follows:
 Y. Shao et al., Mol. Phys. 113, 184-215 (2015)
 DOI: 10.1080/00268976.2014.952696

 Q-Chem 5.0.0 for Intel X86 EM64T Linux

 Parts of Q-Chem use Armadillo 5.200.1 (Boston Tea Smuggler).
 http://arma.sourceforge.net/

 Q-Chem begins on Wed Oct  4 18:26:27 2017  

Host: nid03059
0

     Scratch files written to /global/cscratch1/sd/junteng/scratch/18/opt_11n11o+.save//

Checking the input file for inconsistencies... 	...done.

--------------------------------------------------------------
User input:
--------------------------------------------------------------
$molecule
0  1
C    0.304  -2.425   0.241
C   -0.187  -2.670   1.539
C    0.664  -1.037  -0.131
C   -0.223  -1.586   2.547
O    1.892  -1.027  -0.706
O   -0.050  -0.071   0.073
O    1.036  -1.102   2.698
O   -1.208  -1.281   3.197
C    1.131  -0.051   3.659
C    2.346   0.277  -1.069
C    0.337  -3.468  -0.713
C   -0.078  -4.750  -0.324
C   -0.556  -4.992   0.965
C   -0.619  -3.961   1.912
H    0.496   0.792   3.371
H    1.683   0.717  -1.820
H   -0.885  -5.997   1.223
H    0.862  -0.417   4.655
H    2.169   0.291   3.685
H    3.345   0.180  -1.503
H    2.413   0.921  -0.186
H   -0.050  -5.576  -1.034
C   -1.153  -4.262   3.286
C    0.800  -3.263  -2.130
H    0.377  -2.346  -2.553
H    0.472  -4.085  -2.776
H    1.893  -3.221  -2.170
H   -2.134  -3.796   3.422
H   -0.464  -3.904   4.057
H   -1.273  -5.340   3.441
$end


$opt
CONSTRAINT
tors    2    1    3    5    135.2
tors    1    2    4    7    -52.3
ENDCONSTRAINT
$end

$rem
JOBTYPE                   OPT
METHOD                    B3LYP
DFT_D                     D3_OP
BASIS                     STO-3G
GEOM_OPT_MAX_CYCLES       500
SYMMETRY                  False
THRESH                    12
SCF_CONVERGENCE           8
MAX_SUB_FILE_NUM          128
MEM_STATIC                400
MEM_TOTAL                 4000
$end

--------------------------------------------------------------
 Adding empirical dispersion correction 
 ----------------------------------------------------------------
 Doing -D3(op) with
 s6 =   1.00000
 s8 =   0.78311
 a1 =   0.30000
 a2 =   4.25000
 n  =  10.00000
 -D3 energy without 3body term =     -0.0331083887 hartrees
 ----------------------------------------------------------------
             Standard Nuclear Orientation (Angstroms)
    I     Atom           X                Y                Z
 ----------------------------------------------------------------
    1      C       0.4125011125    -0.6355076896    -0.1241194854
    2      C      -0.9199718424    -0.1775825584    -0.0970935988
    3      C       1.4909203662     0.3367582974    -0.4177838583
    4      C      -1.2227722681     1.2652754643    -0.2345295060
    5      O       2.4794071129     0.2069212582     0.5013164054
    6      O       1.4599007613     1.1281261782    -1.3437118584
    7      O      -0.5671603921     1.9341318938     0.7477851812
    8      O      -2.0192894914     1.7300109239    -1.0316062059
    9      C      -0.7911410252     3.3435492204     0.7249274575
   10      C       3.5538033154     1.1302705963     0.3241165186
   11      C       0.6908325096    -2.0150972909     0.0112251320
   12      C      -0.3765806243    -2.9000235158     0.2224235647
   13      C      -1.6950140119    -2.4427633611     0.2572883515
   14      C      -1.9865449822    -1.0814074782     0.0977300441
   15      H      -0.4624112412     3.7697958433    -0.2274740049
   16      H       4.0453282984     0.9641147078    -0.6391930950
   17      H      -2.4970302573    -3.1634910569     0.4061222542
   18      H      -1.8474376543     3.5666794906     0.9059890877
   19      H      -0.2002982988     3.7931790170     1.5273126011
   20      H       4.2838919982     0.9582831261     1.1198280401
   21      H       3.1925407862     2.1609409489     0.4023597877
   22      H      -0.1906002296    -3.9666582263     0.3443320837
   23      C      -3.4222635693    -0.6326602424     0.1288918324
   24      C       2.0849910947    -2.5767940219    -0.0602005081
   25      H       2.6449814024    -2.1343937269    -0.8905256458
   26      H       2.0671057384    -3.6580417916    -0.2367433488
   27      H       2.6144009167    -2.3996751371     0.8812702249
   28      H      -3.7454857248    -0.3261374563    -0.8709002559
   29      H      -3.5543120453     0.1968300833     0.8302013215
   30      H      -4.0860980650    -1.4390523749     0.4598971058
 ----------------------------------------------------------------
 Molecular Point Group                 C1    NOp =  1
 Largest Abelian Subgroup              C1    NOp =  1
 Nuclear Repulsion Energy =  1141.1730988225 hartrees
 There are       59 alpha and       59 beta electrons
 Requested basis set is STO-3G
 There are 46 shells and 94 basis functions

 Total QAlloc Memory Limit   4000 MB
 Mega-Array Size       392 MB
 MEM_STATIC part       400 MB
 A cutoff of  1.0D-12 yielded    921 shell pairs
 There are      4311 function pairs
 
 -------------------------------------------------------
 OpenMP Integral Computing Module                       
 Release: version 1.0, May 2013, Q-Chem Inc. Pittsburgh 
 -------------------------------------------------------
 Integral Job Info:
 Integral job number is                      11
 Integral operator is                         1
 short-range coefficients                     0
 long-range coefficients              100000000
 Omega coefficients                           0
 if combine SR and LR in K                    0
 Integral screening is                        0
 Integral computing path is                   2
 max size of driver memory is            800000
 size of driver memory is                 45569
 size of scratch memory is               945100
 max col of scratch BK array                289
 max len of scratch array in speh3           22
 max len of scratch index in speh4            8
 max int batch size is                      520
 min int batch size is                       52
 fixed nKL is                                52
 max L of basis functions is                  1
 order of int derivative is                   0
 number of shells is                         46
 number of basis is                          94
 number of cartesian basis is                94
 number of contracted shell pairs           921
 number of primitive shell pairs           4930
 maxK2 (contraction) of shell pair            9
 max number of K2 of shell pair               1
 max number of CS2 of shell pair            151
 max number of PS2 of shell pair            660
 mem total for path MDJ                   29642
 -------------------------------------------------------
 Smallest overlap matrix eigenvalue = 1.76E-01

 Scale SEOQF with 1.000000e-01/1.000000e-01/1.000000e+00

 Standard Electronic Orientation quadrupole field applied
 Nucleus-field energy     =    -0.0000000013 hartrees
 Guess from superposition of atomic densities
 Warning:  Energy on first SCF cycle will be non-variational
 A restricted hybrid HF-DFT SCF calculation will be
 performed using Pulay DIIS extrapolation
 Exchange:     0.2000 Hartree-Fock + 0.0800 Slater + 0.7200 B88
 Correlation:  0.1900 VWN1RPA + 0.8100 LYP
 Using SG-1 standard quadrature grid
 Dispersion:   Grimme D3
 SCF converges when DIIS error is below 1.0E-08
 -------------------------------------------------------
 OpenMP Integral computing Module                
 Release: version 1.0, May 2013, Q-Chem Inc. Pittsburgh 
 -------------------------------------------------------
 -------------------------------------------------------
 OpenMP BLAS3 based DFT computing Module                
 Release: version 1.0, May 2013, Q-Chem Inc. Pittsburgh 
 -------------------------------------------------------
 ---------------------------------------
  Cycle       Energy         DIIS Error
 ---------------------------------------
    1    -756.4854003916      1.14E-01
    2    -756.5487627268      1.27E-02
    3    -755.4707920431      3.40E-02
    4    -756.7513971877      4.53E-03
    5    -756.7739817500      1.66E-03
    6    -756.7772694929      3.92E-04
    7    -756.7774746141      1.05E-04
    8    -756.7774914576      3.18E-05
    9    -756.7774924185      1.90E-05
   10    -756.7774928824      3.60E-06
   11    -756.7774928987      8.95E-07
   12    -756.7774928997      2.23E-07
   13    -756.7774928998      8.13E-08
   14    -756.7774928998      3.01E-08
   15    -756.7774928998      6.43E-09 Convergence criterion met
 ---------------------------------------
 SCF time:  CPU 86.32 s  wall 3.80 s
 SCF   energy in the final basis set = -756.7774928998
 Total energy in the final basis set = -756.7774928998
 
 --------------------------------------------------------------
 
                    Orbital Energies (a.u.)
 --------------------------------------------------------------
 
 Alpha MOs
 -- Occupied --
-18.949 -18.946 -18.868 -18.867 -10.115 -10.112 -10.075 -10.072
-10.020 -10.019 -10.017 -10.016 -10.015 -10.013 -10.004 -10.003
 -1.048  -1.042  -0.958  -0.955  -0.820  -0.752  -0.730  -0.692
 -0.683  -0.672  -0.622  -0.590  -0.562  -0.506  -0.500  -0.461
 -0.453  -0.447  -0.432  -0.425  -0.415  -0.398  -0.392  -0.385
 -0.382  -0.369  -0.357  -0.350  -0.346  -0.339  -0.326  -0.321
 -0.309  -0.293  -0.287  -0.250  -0.248  -0.197  -0.184  -0.181
 -0.180  -0.152  -0.148
 -- Virtual --
  0.062   0.077   0.130   0.142   0.242   0.288   0.309   0.353
  0.372   0.389   0.394   0.406   0.410   0.436   0.440   0.445
  0.446   0.452   0.455   0.457   0.460   0.468   0.471   0.475
  0.484   0.492   0.504   0.577   0.590   0.602   0.627   0.702
  0.709   0.786   0.800
 --------------------------------------------------------------
 
          Ground-State Mulliken Net Atomic Charges

     Atom                 Charge (a.u.)
  ----------------------------------------
      1 C                    -0.020315
      2 C                    -0.018928
      3 C                     0.235748
      4 C                     0.236538
      5 O                    -0.181275
      6 O                    -0.229574
      7 O                    -0.184253
      8 O                    -0.224009
      9 C                    -0.127614
     10 C                    -0.126341
     11 C                     0.009809
     12 C                    -0.080336
     13 C                    -0.080433
     14 C                     0.010066
     15 H                     0.096676
     16 H                     0.093049
     17 H                     0.079304
     18 H                     0.092734
     19 H                     0.094731
     20 H                     0.096134
     21 H                     0.093638
     22 H                     0.078551
     23 C                    -0.231252
     24 C                    -0.229602
     25 H                     0.082934
     26 H                     0.080995
     27 H                     0.092446
     28 H                     0.095901
     29 H                     0.084121
     30 H                     0.080559
  ----------------------------------------
  Sum of atomic charges =    -0.000000

 -----------------------------------------------------------------
                    Cartesian Multipole Moments
 -----------------------------------------------------------------
    Charge (ESU x 10^10)
                -0.0000
    Dipole Moment (Debye)
         X       1.2962      Y      -0.1010      Z       1.7364
       Tot       2.1692
    Quadrupole Moments (Debye-Ang)
        XX     -77.8750     XY       2.5850     YY     -77.1677
        XZ      -2.0609     YZ       4.6538     ZZ     -90.4602
    Octopole Moments (Debye-Ang^2)
       XXX      31.3988    XXY       6.2045    XYY       3.2220
       YYY      33.1978    XXZ       7.9534    XYZ      -0.8801
       YYZ      11.8410    XZZ       4.7944    YZZ       7.2816
       ZZZ      -1.5429
    Hexadecapole Moments (Debye-Ang^3)
      XXXX   -1962.7992   XXXY      47.3519   XXYY    -646.4083
      XYYY     -13.2508   YYYY   -1735.6892   XXXZ      -1.7022
      XXYZ      17.5216   XYYZ      -9.7525   YYYZ      13.7299
      XXZZ    -388.8525   XYZZ      -6.2694   YYZZ    -361.9148
      XZZZ       9.5993   YZZZ       1.8299   ZZZZ    -235.9432
 -----------------------------------------------------------------
 Calculating analytic gradient of the SCF energy
 Gradient of SCF Energy
            1           2           3           4           5           6
    1   0.0213257  -0.0080944   0.0219533   0.0038728  -0.0213627  -0.0049191
    2   0.0280999   0.0335195   0.0130442   0.0252676   0.0316096  -0.0513407
    3  -0.0060298  -0.0071836  -0.0015978   0.0068760  -0.0526758   0.0521430
            7           8           9          10          11          12
    1  -0.0435928   0.0411236   0.0034144  -0.0167356   0.0111495   0.0041761
    2   0.0026304  -0.0357710  -0.0228437  -0.0142570   0.0022105   0.0017290
    3  -0.0483522   0.0435054  -0.0000375   0.0032563  -0.0024467   0.0009026
           13          14          15          16          17          18
    1  -0.0031860  -0.0059502   0.0008837  -0.0064515   0.0072787   0.0118702
    2   0.0033800   0.0100336  -0.0081916  -0.0041587   0.0033181  -0.0067733
    3  -0.0007584   0.0006345   0.0113512   0.0120997  -0.0015351   0.0021588
           19          20          21          22          23          24
    1  -0.0064546  -0.0051214   0.0007536  -0.0036346   0.0171200  -0.0151163
    2  -0.0018106   0.0037889  -0.0128389   0.0064391  -0.0027253   0.0083908
    3  -0.0085387  -0.0084767   0.0036917  -0.0000443  -0.0037533   0.0048797
           25          26          27          28          29          30
    1  -0.0053769   0.0027466  -0.0067816   0.0030568   0.0020212   0.0000315
    2  -0.0049794   0.0040361  -0.0027634  -0.0060541  -0.0076737   0.0046841
    3   0.0005309  -0.0013090  -0.0034106   0.0044744  -0.0000072  -0.0003474
 Max gradient component =       5.268E-02
 RMS gradient           =       1.699E-02
 Gradient time:  CPU 17.63 s  wall 1.32 s
 Geometry Optimization Parameters
   NAtoms,    NIC,     NZ,  NCons,   NDum,   NFix, NCnnct, MaxDiis
       30     194       0       2       0       0       0       0


** CONSTRAINED OPTIMIZATION IN DELOCALIZED INTERNAL COORDINATES **
   Searching for a Minimum

   Optimization Cycle:   1

                       Coordinates (Angstroms)
     ATOM                X               Y               Z
      1  C         0.4125011125   -0.6355076896   -0.1241194854
      2  C        -0.9199718424   -0.1775825584   -0.0970935988
      3  C         1.4909203662    0.3367582974   -0.4177838583
      4  C        -1.2227722681    1.2652754643   -0.2345295060
      5  O         2.4794071129    0.2069212582    0.5013164054
      6  O         1.4599007613    1.1281261782   -1.3437118584
      7  O        -0.5671603921    1.9341318938    0.7477851812
      8  O        -2.0192894914    1.7300109239   -1.0316062059
      9  C        -0.7911410252    3.3435492204    0.7249274575
     10  C         3.5538033154    1.1302705963    0.3241165186
     11  C         0.6908325096   -2.0150972909    0.0112251320
     12  C        -0.3765806243   -2.9000235158    0.2224235647
     13  C        -1.6950140119   -2.4427633611    0.2572883515
     14  C        -1.9865449822   -1.0814074782    0.0977300441
     15  H        -0.4624112412    3.7697958433   -0.2274740049
     16  H         4.0453282984    0.9641147078   -0.6391930950
     17  H        -2.4970302573   -3.1634910569    0.4061222542
     18  H        -1.8474376543    3.5666794906    0.9059890877
     19  H        -0.2002982988    3.7931790170    1.5273126011
     20  H         4.2838919982    0.9582831261    1.1198280401
     21  H         3.1925407862    2.1609409489    0.4023597877
     22  H        -0.1906002296   -3.9666582263    0.3443320837
     23  C        -3.4222635693   -0.6326602424    0.1288918324
     24  C         2.0849910947   -2.5767940219   -0.0602005081
     25  H         2.6449814024   -2.1343937269   -0.8905256458
     26  H         2.0671057384   -3.6580417916   -0.2367433488
     27  H         2.6144009167   -2.3996751371    0.8812702249
     28  H        -3.7454857248   -0.3261374563   -0.8709002559
     29  H        -3.5543120453    0.1968300833    0.8302013215
     30  H        -4.0860980650   -1.4390523749    0.4598971058
   Point Group: c1    Number of degrees of freedom:    84


   Energy is   -756.777492900

              Constraints and their Current Values
                                        Value     Constraint
   Dihedral:        2   1   3   5      131.435      135.200
   Dihedral:        1   2   4   7      -57.239      -52.300

 Attempting to Generate Delocalized Internal Coordinates

   Using Lagrange Multiplier Algorithm


 86 Hessian modes will be used to form the next step
  Hessian Eigenvalues:
    -0.977753   -0.977753    0.045000    0.045000    0.045000    0.045000
     0.045000    0.045000    0.045000    0.045000    0.045000    0.045001
     0.045002    0.045003    0.045005    0.045012    0.045013    0.045137
     0.045284    0.093755    0.094007    0.094234    0.094419    0.113828
     0.113875    0.116854    0.116890    0.159975    0.159998    0.160000
     0.160000    0.160000    0.160000    0.160000    0.160000    0.160000
     0.160000    0.160000    0.160000    0.160000    0.160000    0.224723
     0.244737    0.248923    0.249138    0.249624    0.249908    0.249990
     0.249993    0.250000    0.250000    0.250000    0.250000    0.250000
     0.318837    0.319059    0.341608    0.341647    0.342469    0.342555
     0.342769    0.342935    0.342935    0.343290    0.343371    0.343554
     0.344100    0.344105    0.344456    0.344917    0.348625    0.349867
     0.408089    0.409183    0.413229    0.413817    0.437594    0.446154
     0.449565    0.458786    0.535065    0.537664    0.958663    0.960829
     1.022753    1.022753

 Minimum Search - Taking P-RFO Step
 Searching for Lamda that Maximizes Along the Constraint modes Only
 Value Taken    Lamda =   0.00538684
 Searching for Lamda that Minimizes Along All other modes
 Value Taken    Lamda =  -0.06134390
 Calculated Step too Large.  Step scaled by  0.834230
 Step Taken.  Stepsize is  0.300000

                             Maximum     Tolerance    Cnvgd?
         Gradient            0.096534       0.000300      NO
         Displacement        0.127768       0.001200      NO
         Energy change     *********       0.000001      NO


 New Cartesian Coordinates Obtained by Inverse Iteration

 Displacement from previous Coordinates is:  0.883810
 Adding empirical dispersion correction 
 ----------------------------------------------------------------
 Doing -D3(op) with
 s6 =   1.00000
 s8 =   0.78311
 a1 =   0.30000
 a2 =   4.25000
 n  =  10.00000
 -D3 energy without 3body term =     -0.0327914344 hartrees
 ----------------------------------------------------------------
             Standard Nuclear Orientation (Angstroms)
    I     Atom           X                Y                Z
 ----------------------------------------------------------------
    1      C       0.3799016222    -0.6735798749    -0.0916315197
    2      C      -0.9676693577    -0.2239212348    -0.0730614592
    3      C       1.4760365308     0.3614778800    -0.3690385855
    4      C      -1.2730809198     1.2741308375    -0.2003600116
    5      O       2.5327200610     0.1993963153     0.5404085795
    6      O       1.4476585502     1.2106268502    -1.2857544631
    7      O      -0.5376671931     1.9754862317     0.7714273355
    8      O      -2.0665177660     1.7935338277    -1.0128128291
    9      C      -0.7350611766     3.4250686874     0.6916159875
   10      C       3.6120460462     1.1668375956     0.3293010021
   11      C       0.6753279097    -2.0621343452     0.0167728426
   12      C      -0.3963860080    -2.9633994858     0.2010529197
   13      C      -1.7282758066    -2.5146481132     0.2395719923
   14      C      -2.0386613775    -1.1443022360     0.1017576096
   15      H      -0.4327979418     3.8248420582    -0.2965250248
   16      H       4.0776598873     1.0511073217    -0.6697308301
   17      H      -2.5361980817    -3.2445608272     0.3720591310
   18      H      -1.7887410021     3.7062464564     0.8892136963
   19      H      -0.0963823747     3.8817694732     1.4685890238
   20      H       4.3774793895     0.9695934178     1.1008643147
   21      H       3.2545547996     2.2095957797     0.4425842731
   22      H      -0.1919120840    -4.0365029463     0.3016310820
   23      C      -3.5014300534    -0.6856814181     0.1291935758
   24      C       2.1081657927    -2.6027503355    -0.0568742023
   25      H       2.6762135565    -2.1253811115    -0.8696275148
   26      H       2.1006259038    -3.6848959395    -0.2535257953
   27      H       2.6429620187    -2.4340317844     0.8915566854
   28      H      -3.8261767660    -0.3514545965    -0.8692256503
   29      H      -3.6490005528     0.1429590695     0.8387430861
   30      H      -4.1591999166    -1.5098464320     0.4409603716
 ----------------------------------------------------------------
 Molecular Point Group                 C1    NOp =  1
 Largest Abelian Subgroup              C1    NOp =  1
 Nuclear Repulsion Energy =  1120.8478192162 hartrees
 There are       59 alpha and       59 beta electrons
 Applying Cartesian multipole field
    Component          Value
    ---------          -----
     (2,0,0)        1.00000E-11
     (0,2,0)        2.00000E-11
     (0,0,2)       -3.00000E-10
 Nucleus-field energy     =     0.0000000027 hartrees
 Requested basis set is STO-3G
 There are 46 shells and 94 basis functions
 A cutoff of  1.0D-12 yielded    915 shell pairs
 There are      4293 function pairs
 Smallest overlap matrix eigenvalue = 1.82E-01
 Guess MOs from SCF MO coefficient file
 Reading MOs from coefficient file
 Reading MOs from coefficient file
 A restricted hybrid HF-DFT SCF calculation will be
 performed using Pulay DIIS extrapolation
 Exchange:     0.2000 Hartree-Fock + 0.0800 Slater + 0.7200 B88
 Correlation:  0.1900 VWN1RPA + 0.8100 LYP
 Using SG-1 standard quadrature grid
 Dispersion:   Grimme D3
 SCF converges when DIIS error is below 1.0E-08
 Geometry optimization detected.  Setting ReadMinima to 0
 Setting SaveMinima to 0
 -------------------------------------------------------
 OpenMP Integral computing Module                
 Release: version 1.0, May 2013, Q-Chem Inc. Pittsburgh 
 -------------------------------------------------------
 -------------------------------------------------------
 OpenMP BLAS3 based DFT computing Module                
 Release: version 1.0, May 2013, Q-Chem Inc. Pittsburgh 
 -------------------------------------------------------
 ---------------------------------------
  Cycle       Energy         DIIS Error
 ---------------------------------------
    1    -756.6358961536      6.45E-03
    2    -756.7976427659      2.40E-03
    3    -756.7829914535      4.19E-03
    4    -756.8046067175      6.22E-04
    5    -756.8051159254      1.68E-04
    6    -756.8051524391      5.22E-05
    7    -756.8051556459      2.45E-05
    8    -756.8051563048      1.11E-05
    9    -756.8051564729      1.82E-06
   10    -756.8051564785      4.43E-07
   11    -756.8051564788      1.36E-07
   12    -756.8051564788      5.71E-08
   13    -756.8051564788      2.17E-08
   14    -756.8051564788      5.86E-09 Convergence criterion met
 ---------------------------------------
 SCF time:  CPU 87.51 s  wall 3.73 s
 SCF   energy in the final basis set = -756.8051564788
 Total energy in the final basis set = -756.8051564788
 
 --------------------------------------------------------------
 
                    Orbital Energies (a.u.)
 --------------------------------------------------------------
 
 Alpha MOs
 -- Occupied --
-18.941 -18.938 -18.868 -18.868 -10.105 -10.103 -10.069 -10.066
-10.023 -10.022 -10.022 -10.020 -10.017 -10.016 -10.008 -10.007
 -1.020  -1.014  -0.939  -0.936  -0.815  -0.745  -0.720  -0.681
 -0.675  -0.662  -0.621  -0.585  -0.556  -0.498  -0.492  -0.450
 -0.443  -0.434  -0.416  -0.413  -0.409  -0.391  -0.383  -0.379
 -0.374  -0.368  -0.355  -0.347  -0.345  -0.335  -0.318  -0.313
 -0.307  -0.291  -0.284  -0.250  -0.248  -0.195  -0.182  -0.179
 -0.174  -0.151  -0.147
 -- Virtual --
  0.057   0.071   0.120   0.131   0.232   0.256   0.280   0.327
  0.352   0.355   0.375   0.388   0.401   0.420   0.423   0.426
  0.431   0.433   0.438   0.442   0.443   0.448   0.459   0.462
  0.469   0.480   0.485   0.552   0.564   0.578   0.605   0.658
  0.659   0.760   0.772
 --------------------------------------------------------------
 
          Ground-State Mulliken Net Atomic Charges

     Atom                 Charge (a.u.)
  ----------------------------------------
      1 C                    -0.018451
      2 C                    -0.017194
      3 C                     0.216479
      4 C                     0.216575
      5 O                    -0.170599
      6 O                    -0.216802
      7 O                    -0.173365
      8 O                    -0.211707
      9 C                    -0.125252
     10 C                    -0.124541
     11 C                     0.008967
     12 C                    -0.079132
     13 C                    -0.079083
     14 C                     0.009107
     15 H                     0.093373
     16 H                     0.089137
     17 H                     0.079466
     18 H                     0.088783
     19 H                     0.090971
     20 H                     0.092160
     21 H                     0.090217
     22 H                     0.079080
     23 C                    -0.225131
     24 C                    -0.223452
     25 H                     0.082866
     26 H                     0.079685
     27 H                     0.090995
     28 H                     0.093422
     29 H                     0.083655
     30 H                     0.079772
  ----------------------------------------
  Sum of atomic charges =     0.000000

 -----------------------------------------------------------------
                    Cartesian Multipole Moments
 -----------------------------------------------------------------
    Charge (ESU x 10^10)
                -0.0000
    Dipole Moment (Debye)
         X       1.1633      Y      -0.3106      Z       1.5298
       Tot       1.9469
    Quadrupole Moments (Debye-Ang)
        XX     -77.6057     XY       2.8777     YY     -76.8384
        XZ      -2.1010     YZ       4.4111     ZZ     -90.3374
    Octopole Moments (Debye-Ang^2)
       XXX      32.8479    XXY       6.4792    XYY       4.3956
       YYY      34.0797    XXZ       6.5192    XYZ      -0.8765
       YYZ      10.7767    XZZ       5.8926    YZZ       8.1195
       ZZZ      -5.3936
    Hexadecapole Moments (Debye-Ang^3)
      XXXX   -2016.8824   XXXY      36.5000   XXYY    -668.6763
      XYYY     -28.8443   YYYY   -1808.1528   XXXZ      -8.3971
      XXYZ      16.5857   XYYZ     -11.3463   YYYZ      14.9579
      XXZZ    -398.5740   XYZZ     -11.3631   YYZZ    -376.9966
      XZZZ       2.2719   YZZZ      -0.6139   ZZZZ    -227.5544
 -----------------------------------------------------------------
 Calculating analytic gradient of the SCF energy
 Gradient of SCF Energy
            1           2           3           4           5           6
    1   0.0041629  -0.0013675   0.0087045   0.0093589  -0.0080220  -0.0013812
    2   0.0058033   0.0057205  -0.0015804   0.0064041   0.0118493  -0.0084792
    3   0.0008947  -0.0070088   0.0103792   0.0132137  -0.0189593   0.0045754
            7           8           9          10          11          12
    1  -0.0164225   0.0048502   0.0029972  -0.0052666   0.0019036   0.0018436
    2   0.0013386  -0.0063927  -0.0084479  -0.0071447   0.0000061  -0.0010495
    3  -0.0174225   0.0036158   0.0028522   0.0036568  -0.0020766   0.0011389
           13          14          15          16          17          18
    1  -0.0022030  -0.0016621   0.0011525   0.0005643   0.0015199   0.0015078
    2  -0.0000252   0.0019853  -0.0000814  -0.0010760   0.0000530  -0.0002919
    3  -0.0000240   0.0017471   0.0018439   0.0018023  -0.0005779   0.0014856
           19          20          21          22          23          24
    1  -0.0013160   0.0006761   0.0006701  -0.0012327   0.0046363  -0.0035139
    2   0.0019541   0.0020593  -0.0012083   0.0008969   0.0002774   0.0034514
    3  -0.0015049  -0.0016105   0.0016200   0.0003947  -0.0017834   0.0019603
           25          26          27          28          29          30
    1  -0.0006211   0.0016845  -0.0010853  -0.0005165  -0.0007896  -0.0008323
    2  -0.0024747   0.0008847  -0.0017801  -0.0021174  -0.0021558   0.0016210
    3  -0.0010107  -0.0010061  -0.0001256   0.0005285   0.0010561   0.0003449
 Max gradient component =       1.896E-02
 RMS gradient           =       5.020E-03
 Gradient time:  CPU 19.60 s  wall 1.44 s
 Geometry Optimization Parameters
   NAtoms,    NIC,     NZ,  NCons,   NDum,   NFix, NCnnct, MaxDiis
       30     194       0       2       0       0       0       0

 Cartesian Hessian Update
 Hessian Updated using BFGS Update


** CONSTRAINED OPTIMIZATION IN DELOCALIZED INTERNAL COORDINATES **
   Searching for a Minimum

   Optimization Cycle:   2

                       Coordinates (Angstroms)
     ATOM                X               Y               Z
      1  C         0.3799016222   -0.6735798749   -0.0916315197
      2  C        -0.9676693577   -0.2239212348   -0.0730614592
      3  C         1.4760365308    0.3614778800   -0.3690385855
      4  C        -1.2730809198    1.2741308375   -0.2003600116
      5  O         2.5327200610    0.1993963153    0.5404085795
      6  O         1.4476585502    1.2106268502   -1.2857544631
      7  O        -0.5376671931    1.9754862317    0.7714273355
      8  O        -2.0665177660    1.7935338277   -1.0128128291
      9  C        -0.7350611766    3.4250686874    0.6916159875
     10  C         3.6120460462    1.1668375956    0.3293010021
     11  C         0.6753279097   -2.0621343452    0.0167728426
     12  C        -0.3963860080   -2.9633994858    0.2010529197
     13  C        -1.7282758066   -2.5146481132    0.2395719923
     14  C        -2.0386613775   -1.1443022360    0.1017576096
     15  H        -0.4327979418    3.8248420582   -0.2965250248
     16  H         4.0776598873    1.0511073217   -0.6697308301
     17  H        -2.5361980817   -3.2445608272    0.3720591310
     18  H        -1.7887410021    3.7062464564    0.8892136963
     19  H        -0.0963823747    3.8817694732    1.4685890238
     20  H         4.3774793895    0.9695934178    1.1008643147
     21  H         3.2545547996    2.2095957797    0.4425842731
     22  H        -0.1919120840   -4.0365029463    0.3016310820
     23  C        -3.5014300534   -0.6856814181    0.1291935758
     24  C         2.1081657927   -2.6027503355   -0.0568742023
     25  H         2.6762135565   -2.1253811115   -0.8696275148
     26  H         2.1006259038   -3.6848959395   -0.2535257953
     27  H         2.6429620187   -2.4340317844    0.8915566854
     28  H        -3.8261767660   -0.3514545965   -0.8692256503
     29  H        -3.6490005528    0.1429590695    0.8387430861
     30  H        -4.1591999166   -1.5098464320    0.4409603716
   Point Group: c1    Number of degrees of freedom:    84


   Energy is   -756.805156479

              Constraints and their Current Values
                                        Value     Constraint
   Dihedral:        2   1   3   5      134.479      135.200
   Dihedral:        1   2   4   7      -53.254      -52.300
 Hessian Updated using BFGS Update

   Using Lagrange Multiplier Algorithm


 70 Hessian modes will be used to form the next step
  Hessian Eigenvalues:
    -0.977779   -0.977546    0.044863    0.045000    0.045000    0.045000
     0.045000    0.045001    0.045001    0.045004    0.045007    0.045013
     0.045023    0.045131    0.045589    0.093617    0.093941    0.094234
     0.094415    0.113769    0.113856    0.116855    0.116890    0.158410
     0.159976    0.159999    0.162517    0.224725    0.237050    0.244890
     0.248937    0.249468    0.249636    0.249914    0.249992    0.249997
     0.250000    0.252582    0.318938    0.321787    0.341609    0.341649
     0.342500    0.342566    0.342803    0.342934    0.342963    0.343295
     0.343396    0.343576    0.344084    0.344379    0.344545    0.348588
     0.349809    0.371465    0.407856    0.408579    0.413457    0.423414
     0.438788    0.446259    0.457505    0.463540    0.520756    0.536436
     0.959693    0.987755    1.022737    1.023474

 Minimum Search - Taking P-RFO Step
 Searching for Lamda that Maximizes Along the Constraint modes Only
 Value Taken    Lamda =   0.00018711
 Searching for Lamda that Minimizes Along All other modes
 Value Taken    Lamda =  -0.00535144
 Step Taken.  Stepsize is  0.169205

                             Maximum     Tolerance    Cnvgd?
         Gradient            0.022210       0.000300      NO
         Displacement        0.064603       0.001200      NO
         Energy change     -0.027664       0.000001      NO


 New Cartesian Coordinates Obtained by Inverse Iteration

 Displacement from previous Coordinates is:  0.526825
 Adding empirical dispersion correction 
 ----------------------------------------------------------------
 Doing -D3(op) with
 s6 =   1.00000
 s8 =   0.78311
 a1 =   0.30000
 a2 =   4.25000
 n  =  10.00000
 -D3 energy without 3body term =     -0.0328712993 hartrees
 ----------------------------------------------------------------
             Standard Nuclear Orientation (Angstroms)
    I     Atom           X                Y                Z
 ----------------------------------------------------------------
    1      C       0.3721007995    -0.6903849507    -0.0728658711
    2      C      -0.9745265906    -0.2412937818    -0.0417609904
    3      C       1.4690687404     0.3660163810    -0.3258423425
    4      C      -1.2689080364     1.2683349089    -0.1711667004
    5      O       2.5485212209     0.1689952108     0.5816518836
    6      O       1.4379423613     1.2700928091    -1.1968460520
    7      O      -0.4848635223     1.9651322606     0.7958277352
    8      O      -2.0656226743     1.8200830646    -0.9669838535
    9      C      -0.6968214767     3.4177314544     0.6436943569
   10      C       3.5867337248     1.1894967251     0.3366723489
   11      C       0.6707984104    -2.0788466021     0.0135375794
   12      C      -0.4035523083    -2.9828692740     0.1752606653
   13      C      -1.7366140868    -2.5339032926     0.2248663041
   14      C      -2.0473368300    -1.1603198684     0.1132397724
   15      H      -0.4143736098     3.7656234519    -0.3717929376
   16      H       4.0083199545     1.1089903912    -0.6871011558
   17      H      -2.5507445109    -3.2618812623     0.3454271684
   18      H      -1.7530337694     3.7014608858     0.8339308763
   19      H      -0.0436859521     3.8974252455     1.3964548355
   20      H       4.3816429699     0.9950571902     1.0807460460
   21      H       3.1917579617     2.2175205091     0.4740772814
   22      H      -0.1919025274    -4.0582024275     0.2529183800
   23      C      -3.5094681485    -0.6834803193     0.1425875071
   24      C       2.1135217409    -2.6082409708    -0.0618604597
   25      H       2.6801499846    -2.1005673589    -0.8584124788
   26      H       2.1071568924    -3.6894461960    -0.2698805343
   27      H       2.6431669170    -2.4392909863     0.8910413040
   28      H      -3.8167338541    -0.3166067221    -0.8515642337
   29      H      -3.6429951254     0.1411582413     0.8615608228
   30      H      -4.1735049656    -1.5122035955     0.4317183653
 ----------------------------------------------------------------
 Molecular Point Group                 C1    NOp =  1
 Largest Abelian Subgroup              C1    NOp =  1
 Nuclear Repulsion Energy =  1120.5195692254 hartrees
 There are       59 alpha and       59 beta electrons
 Applying Cartesian multipole field
    Component          Value
    ---------          -----
     (2,0,0)        1.00000E-11
     (0,2,0)        2.00000E-11
     (0,0,2)       -3.00000E-10
 Nucleus-field energy     =     0.0000000059 hartrees
 Requested basis set is STO-3G
 There are 46 shells and 94 basis functions
 A cutoff of  1.0D-12 yielded    916 shell pairs
 There are      4294 function pairs
 Smallest overlap matrix eigenvalue = 1.83E-01
 Guess MOs from SCF MO coefficient file
 Reading MOs from coefficient file
 Reading MOs from coefficient file
 A restricted hybrid HF-DFT SCF calculation will be
 performed using Pulay DIIS extrapolation
 Exchange:     0.2000 Hartree-Fock + 0.0800 Slater + 0.7200 B88
 Correlation:  0.1900 VWN1RPA + 0.8100 LYP
 Using SG-1 standard quadrature grid
 Dispersion:   Grimme D3
 SCF converges when DIIS error is below 1.0E-08
 Geometry optimization detected.  Setting ReadMinima to 0
 Setting SaveMinima to 0
 -------------------------------------------------------
 OpenMP Integral computing Module                
 Release: version 1.0, May 2013, Q-Chem Inc. Pittsburgh 
 -------------------------------------------------------
 -------------------------------------------------------
 OpenMP BLAS3 based DFT computing Module                
 Release: version 1.0, May 2013, Q-Chem Inc. Pittsburgh 
 -------------------------------------------------------
 ---------------------------------------
  Cycle       Energy         DIIS Error
 ---------------------------------------
    1    -756.7563351931      3.47E-03
    2    -756.8067235979      9.28E-04
    3    -756.8034772997      1.88E-03
    4    -756.8077940161      2.52E-04
    5    -756.8078769537      7.51E-05
    6    -756.8078839341      2.66E-05
    7    -756.8078846640      1.52E-05
    8    -756.8078849467      4.70E-06
    9    -756.8078849767      1.20E-06
   10    -756.8078849791      2.32E-07
   11    -756.8078849792      7.31E-08
   12    -756.8078849791      3.30E-08
   13    -756.8078849791      1.31E-08
   14    -756.8078849791      3.11E-09 Convergence criterion met
 ---------------------------------------
 SCF time:  CPU 82.06 s  wall 3.52 s
 SCF   energy in the final basis set = -756.8078849791
 Total energy in the final basis set = -756.8078849791
 
 --------------------------------------------------------------
 
                    Orbital Energies (a.u.)
 --------------------------------------------------------------
 
 Alpha MOs
 -- Occupied --
-18.939 -18.935 -18.872 -18.871 -10.102 -10.100 -10.065 -10.062
-10.024 -10.023 -10.023 -10.021 -10.018 -10.017 -10.010 -10.009
 -1.015  -1.008  -0.936  -0.933  -0.815  -0.744  -0.719  -0.680
 -0.669  -0.657  -0.621  -0.584  -0.555  -0.495  -0.489  -0.448
 -0.442  -0.433  -0.412  -0.410  -0.407  -0.390  -0.381  -0.376
 -0.370  -0.368  -0.355  -0.347  -0.345  -0.336  -0.316  -0.311
 -0.307  -0.291  -0.283  -0.255  -0.253  -0.195  -0.183  -0.180
 -0.173  -0.153  -0.149
 -- Virtual --
  0.054   0.069   0.118   0.129   0.232   0.253   0.277   0.316
  0.340   0.346   0.369   0.382   0.401   0.415   0.421   0.425
  0.430   0.432   0.434   0.438   0.441   0.445   0.455   0.458
  0.464   0.476   0.481   0.547   0.559   0.574   0.602   0.650
  0.651   0.758   0.770
 --------------------------------------------------------------
 
          Ground-State Mulliken Net Atomic Charges

     Atom                 Charge (a.u.)
  ----------------------------------------
      1 C                    -0.018797
      2 C                    -0.017928
      3 C                     0.211138
      4 C                     0.211102
      5 O                    -0.165113
      6 O                    -0.213609
      7 O                    -0.168044
      8 O                    -0.208084
      9 C                    -0.127236
     10 C                    -0.126667
     11 C                     0.008664
     12 C                    -0.078870
     13 C                    -0.078796
     14 C                     0.008662
     15 H                     0.093222
     16 H                     0.088421
     17 H                     0.079607
     18 H                     0.088152
     19 H                     0.088914
     20 H                     0.090213
     21 H                     0.090094
     22 H                     0.079249
     23 C                    -0.223817
     24 C                    -0.222031
     25 H                     0.083258
     26 H                     0.079676
     27 H                     0.091403
     28 H                     0.093288
     29 H                     0.083911
     30 H                     0.080018
  ----------------------------------------
  Sum of atomic charges =     0.000000

 -----------------------------------------------------------------
                    Cartesian Multipole Moments
 -----------------------------------------------------------------
    Charge (ESU x 10^10)
                -0.0000
    Dipole Moment (Debye)
         X       1.0308      Y      -0.4472      Z       1.3075
       Tot       1.7240
    Quadrupole Moments (Debye-Ang)
        XX     -78.0856     XY       2.8945     YY     -77.3670
        XZ      -2.1315     YZ       4.0705     ZZ     -90.0483
    Octopole Moments (Debye-Ang^2)
       XXX      29.8751    XXY       6.3237    XYY       4.3648
       YYY      32.0304    XXZ       4.7142    XYZ      -0.7418
       YYZ       8.6864    XZZ       5.9183    YZZ       8.7980
       ZZZ      -9.5492
    Hexadecapole Moments (Debye-Ang^3)
      XXXX   -2021.0078   XXXY      28.9782   XXYY    -670.8776
      XYYY     -34.0398   YYYY   -1830.7398   XXXZ     -11.7624
      XXYZ      14.8970   XYYZ     -11.0745   YYYZ      13.1612
      XXZZ    -395.1618   XYZZ     -13.3236   YYZZ    -378.7671
      XZZZ      -1.7749   YZZZ      -3.3739   ZZZZ    -215.7968
 -----------------------------------------------------------------
 Calculating analytic gradient of the SCF energy
 Gradient of SCF Energy
            1           2           3           4           5           6
    1  -0.0005017   0.0006559   0.0055229   0.0048242  -0.0014610  -0.0007021
    2  -0.0006963  -0.0010740  -0.0001156   0.0049739   0.0006576   0.0018943
    3   0.0026946  -0.0022345   0.0049503   0.0065246  -0.0019458  -0.0025521
            7           8           9          10          11          12
    1  -0.0015077  -0.0018244  -0.0012034  -0.0043370  -0.0002284   0.0006502
    2  -0.0011992   0.0006096  -0.0044869  -0.0019858  -0.0002904  -0.0000135
    3  -0.0020879  -0.0031008  -0.0012455  -0.0009415  -0.0018786   0.0004335
           13          14          15          16          17          18
    1  -0.0004079  -0.0000576   0.0000974   0.0003668  -0.0001824  -0.0004863
    2   0.0003458   0.0006665   0.0003039  -0.0000386  -0.0001225   0.0002650
    3  -0.0002143   0.0014429  -0.0005520  -0.0004984  -0.0001864   0.0001951
           19          20          21          22          23          24
    1   0.0004809  -0.0000655  -0.0000659   0.0000484   0.0007358   0.0001310
    2  -0.0004901  -0.0004963   0.0006175  -0.0001647   0.0008642   0.0014326
    3   0.0003919   0.0004627   0.0001170   0.0002963  -0.0005814   0.0005849
           25          26          27          28          29          30
    1   0.0000374  -0.0001495   0.0000646  -0.0002375  -0.0001131  -0.0000841
    2  -0.0000479  -0.0004104  -0.0004129  -0.0002775   0.0001008  -0.0004093
    3  -0.0003670  -0.0003797   0.0002236  -0.0001992   0.0003023   0.0003452
 Max gradient component =       6.525E-03
 RMS gradient           =       1.702E-03
 Gradient time:  CPU 21.86 s  wall 1.43 s
 Geometry Optimization Parameters
   NAtoms,    NIC,     NZ,  NCons,   NDum,   NFix, NCnnct, MaxDiis
       30     194       0       2       0       0       0       0

 Cartesian Hessian Update
 Hessian Updated using BFGS Update


** CONSTRAINED OPTIMIZATION IN DELOCALIZED INTERNAL COORDINATES **
   Searching for a Minimum

   Optimization Cycle:   3

                       Coordinates (Angstroms)
     ATOM                X               Y               Z
      1  C         0.3721007995   -0.6903849507   -0.0728658711
      2  C        -0.9745265906   -0.2412937818   -0.0417609904
      3  C         1.4690687404    0.3660163810   -0.3258423425
      4  C        -1.2689080364    1.2683349089   -0.1711667004
      5  O         2.5485212209    0.1689952108    0.5816518836
      6  O         1.4379423613    1.2700928091   -1.1968460520
      7  O        -0.4848635223    1.9651322606    0.7958277352
      8  O        -2.0656226743    1.8200830646   -0.9669838535
      9  C        -0.6968214767    3.4177314544    0.6436943569
     10  C         3.5867337248    1.1894967251    0.3366723489
     11  C         0.6707984104   -2.0788466021    0.0135375794
     12  C        -0.4035523083   -2.9828692740    0.1752606653
     13  C        -1.7366140868   -2.5339032926    0.2248663041
     14  C        -2.0473368300   -1.1603198684    0.1132397724
     15  H        -0.4143736098    3.7656234519   -0.3717929376
     16  H         4.0083199545    1.1089903912   -0.6871011558
     17  H        -2.5507445109   -3.2618812623    0.3454271684
     18  H        -1.7530337694    3.7014608858    0.8339308763
     19  H        -0.0436859521    3.8974252455    1.3964548355
     20  H         4.3816429699    0.9950571902    1.0807460460
     21  H         3.1917579617    2.2175205091    0.4740772814
     22  H        -0.1919025274   -4.0582024275    0.2529183800
     23  C        -3.5094681485   -0.6834803193    0.1425875071
     24  C         2.1135217409   -2.6082409708   -0.0618604597
     25  H         2.6801499846   -2.1005673589   -0.8584124788
     26  H         2.1071568924   -3.6894461960   -0.2698805343
     27  H         2.6431669170   -2.4392909863    0.8910413040
     28  H        -3.8167338541   -0.3166067221   -0.8515642337
     29  H        -3.6429951254    0.1411582413    0.8615608228
     30  H        -4.1735049656   -1.5122035955    0.4317183653
   Point Group: c1    Number of degrees of freedom:    84


   Energy is   -756.807884979

              Constraints and their Current Values
                                        Value     Constraint
   Dihedral:        2   1   3   5      135.198      135.200
   Dihedral:        1   2   4   7      -52.303      -52.300
 Hessian Updated using BFGS Update

   Using Lagrange Multiplier Algorithm


 73 Hessian modes will be used to form the next step
  Hessian Eigenvalues:
    -0.977789   -0.977156    0.042559    0.045000    0.045000    0.045000
     0.045000    0.045001    0.045001    0.045004    0.045004    0.045011
     0.045021    0.045109    0.045400    0.045861    0.092195    0.093897
     0.094233    0.094405    0.112992    0.113851    0.116855    0.116890
     0.159160    0.159981    0.159999    0.161145    0.163810    0.224629
     0.235519    0.244956    0.249235    0.249635    0.249670    0.249930
     0.249992    0.250000    0.250000    0.250749    0.293650    0.318940
     0.321859    0.341625    0.341769    0.342505    0.342607    0.342801
     0.342934    0.343015    0.343275    0.343439    0.343688    0.344013
     0.344362    0.344883    0.348614    0.349827    0.376223    0.393979
     0.408298    0.413453    0.418700    0.438787    0.446330    0.457645
     0.463697    0.471840    0.536496    0.959675    1.009670    1.022761
     1.028665

 Minimum Search - Taking P-RFO Step
 Searching for Lamda that Maximizes Along the Constraint modes Only
 Value Taken    Lamda =   0.00000149
 Searching for Lamda that Minimizes Along All other modes
 Value Taken    Lamda =  -0.00060507
 Step Taken.  Stepsize is  0.064536

                             Maximum     Tolerance    Cnvgd?
         Gradient            0.007084       0.000300      NO
         Displacement        0.021356       0.001200      NO
         Energy change     -0.002729       0.000001      NO


 New Cartesian Coordinates Obtained by Inverse Iteration

 Displacement from previous Coordinates is:  0.160332
 Adding empirical dispersion correction 
 ----------------------------------------------------------------
 Doing -D3(op) with
 s6 =   1.00000
 s8 =   0.78311
 a1 =   0.30000
 a2 =   4.25000
 n  =  10.00000
 -D3 energy without 3body term =     -0.0328308299 hartrees
 ----------------------------------------------------------------
             Standard Nuclear Orientation (Angstroms)
    I     Atom           X                Y                Z
 ----------------------------------------------------------------
    1      C       0.3669761537    -0.6891764045    -0.0781441758
    2      C      -0.9822641534    -0.2431072227    -0.0384240574
    3      C       1.4664155793     0.3661004637    -0.3305780026
    4      C      -1.2850067866     1.2654576616    -0.1690268849
    5      O       2.5572019087     0.1643295263     0.5750749473
    6      O       1.4378743611     1.2760837609    -1.1935926640
    7      O      -0.4937548315     1.9755120332     0.7954031107
    8      O      -2.0930132637     1.8168829542    -0.9511609806
    9      C      -0.6979241055     3.4357644387     0.6449142164
   10      C       3.6091041808     1.1812643677     0.3350221893
   11      C       0.6683313890    -2.0772319519     0.0139780346
   12      C      -0.4039000038    -2.9842864468     0.1717909849
   13      C      -1.7374725412    -2.5401631811     0.2203849278
   14      C      -2.0519544488    -1.1675078850     0.1115239438
   15      H      -0.4161098480     3.7791176128    -0.3712987093
   16      H       4.0247237370     1.1033696439    -0.6904258975
   17      H      -2.5496430339    -3.2701852790     0.3403920717
   18      H      -1.7528744019     3.7220620851     0.8333163893
   19      H      -0.0437121212     3.9157702801     1.3958057808
   20      H       4.4050958986     0.9788222666     1.0750213803
   21      H       3.2200385318     2.2099545427     0.4766989859
   22      H      -0.1883520084    -4.0588500807     0.2468791081
   23      C      -3.5158532093    -0.6941375782     0.1408409074
   24      C       2.1124472186    -2.6050055078    -0.0563257366
   25      H       2.6798726485    -2.0968976271    -0.8515296075
   26      H       2.1104702921    -3.6870203334    -0.2566513753
   27      H       2.6378416223    -2.4258052811     0.8968585284
   28      H      -3.8179524801    -0.3194304658    -0.8518090055
   29      H      -3.6497158019     0.1279792197     0.8620927853
   30      H      -4.1806967926    -1.5240844909     0.4221044282
 ----------------------------------------------------------------
 Molecular Point Group                 C1    NOp =  1
 Largest Abelian Subgroup              C1    NOp =  1
 Nuclear Repulsion Energy =  1118.4406784498 hartrees
 There are       59 alpha and       59 beta electrons
 Applying Cartesian multipole field
    Component          Value
    ---------          -----
     (2,0,0)        1.00000E-11
     (0,2,0)        2.00000E-11
     (0,0,2)       -3.00000E-10
 Nucleus-field energy     =     0.0000000066 hartrees
 Requested basis set is STO-3G
 There are 46 shells and 94 basis functions
 A cutoff of  1.0D-12 yielded    912 shell pairs
 There are      4281 function pairs
 Smallest overlap matrix eigenvalue = 1.83E-01
 Guess MOs from SCF MO coefficient file
 Reading MOs from coefficient file
 Reading MOs from coefficient file
 A restricted hybrid HF-DFT SCF calculation will be
 performed using Pulay DIIS extrapolation
 Exchange:     0.2000 Hartree-Fock + 0.0800 Slater + 0.7200 B88
 Correlation:  0.1900 VWN1RPA + 0.8100 LYP
 Using SG-1 standard quadrature grid
 Dispersion:   Grimme D3
 SCF converges when DIIS error is below 1.0E-08
 Geometry optimization detected.  Setting ReadMinima to 0
 Setting SaveMinima to 0
 -------------------------------------------------------
 OpenMP Integral computing Module                
 Release: version 1.0, May 2013, Q-Chem Inc. Pittsburgh 
 -------------------------------------------------------
 -------------------------------------------------------
 OpenMP BLAS3 based DFT computing Module                
 Release: version 1.0, May 2013, Q-Chem Inc. Pittsburgh 
 -------------------------------------------------------
 ---------------------------------------
  Cycle       Energy         DIIS Error
 ---------------------------------------
    1    -756.8011266511      1.02E-03
    2    -756.8080477725      3.24E-04
    3    -756.8075527526      7.02E-04
    4    -756.8081830425      5.89E-05
    5    -756.8081874196      1.56E-05
    6    -756.8081877268      5.00E-06
    7    -756.8081877637      1.97E-06
    8    -756.8081877693      5.78E-07
    9    -756.8081877697      3.51E-07
   10    -756.8081877698      8.24E-08
   11    -756.8081877699      1.52E-08
   12    -756.8081877699      7.88E-09 Convergence criterion met
 ---------------------------------------
 SCF time:  CPU 78.90 s  wall 3.38 s
 SCF   energy in the final basis set = -756.8081877699
 Total energy in the final basis set = -756.8081877699
 
 --------------------------------------------------------------
 
                    Orbital Energies (a.u.)
 --------------------------------------------------------------
 
 Alpha MOs
 -- Occupied --
-18.935 -18.931 -18.873 -18.872 -10.102 -10.100 -10.064 -10.061
-10.025 -10.024 -10.024 -10.022 -10.018 -10.017 -10.010 -10.009
 -1.011  -1.004  -0.934  -0.931  -0.815  -0.745  -0.719  -0.680
 -0.668  -0.656  -0.621  -0.584  -0.556  -0.494  -0.488  -0.447
 -0.442  -0.432  -0.411  -0.409  -0.406  -0.390  -0.381  -0.376
 -0.370  -0.367  -0.355  -0.347  -0.346  -0.337  -0.316  -0.311
 -0.307  -0.291  -0.283  -0.254  -0.252  -0.195  -0.183  -0.178
 -0.171  -0.153  -0.149
 -- Virtual --
  0.053   0.069   0.117   0.129   0.231   0.248   0.273   0.315
  0.338   0.345   0.368   0.380   0.400   0.415   0.422   0.426
  0.431   0.433   0.435   0.439   0.442   0.446   0.454   0.457
  0.464   0.476   0.481   0.546   0.558   0.573   0.601   0.650
  0.651   0.757   0.769
 --------------------------------------------------------------
 
          Ground-State Mulliken Net Atomic Charges

     Atom                 Charge (a.u.)
  ----------------------------------------
      1 C                    -0.018250
      2 C                    -0.017663
      3 C                     0.210238
      4 C                     0.210127
      5 O                    -0.165168
      6 O                    -0.212635
      7 O                    -0.167997
      8 O                    -0.207464
      9 C                    -0.128745
     10 C                    -0.128227
     11 C                     0.009034
     12 C                    -0.078772
     13 C                    -0.078821
     14 C                     0.009002
     15 H                     0.092842
     16 H                     0.088238
     17 H                     0.079928
     18 H                     0.088019
     19 H                     0.089287
     20 H                     0.090545
     21 H                     0.090059
     22 H                     0.079462
     23 C                    -0.224107
     24 C                    -0.222224
     25 H                     0.083578
     26 H                     0.079820
     27 H                     0.091805
     28 H                     0.093504
     29 H                     0.084284
     30 H                     0.080305
  ----------------------------------------
  Sum of atomic charges =     0.000000

 -----------------------------------------------------------------
                    Cartesian Multipole Moments
 -----------------------------------------------------------------
    Charge (ESU x 10^10)
                -0.0000
    Dipole Moment (Debye)
         X       1.0207      Y      -0.4911      Z       1.2643
       Tot       1.6974
    Quadrupole Moments (Debye-Ang)
        XX     -78.0906     XY       2.9608     YY     -77.3139
        XZ      -2.1006     YZ       4.0042     ZZ     -89.9741
    Octopole Moments (Debye-Ang^2)
       XXX      31.1624    XXY       6.2029    XYY       4.5238
       YYY      32.3137    XXZ       4.7943    XYZ      -0.6930
       YYZ       8.6771    XZZ       6.1266    YZZ       8.9550
       ZZZ      -9.6627
    Hexadecapole Moments (Debye-Ang^3)
      XXXX   -2033.1027   XXXY      30.5071   XXYY    -674.4178
      XYYY     -34.2228   YYYY   -1834.0925   XXXZ     -11.8532
      XXYZ      14.7213   XYYZ     -10.9398   YYYZ      12.8605
      XXZZ    -397.3150   XYZZ     -13.5074   YYZZ    -379.4806
      XZZZ      -1.9185   YZZZ      -4.2791   ZZZZ    -214.2193
 -----------------------------------------------------------------
 Calculating analytic gradient of the SCF energy
 Gradient of SCF Energy
            1           2           3           4           5           6
    1  -0.0006407  -0.0005102   0.0001005   0.0010772  -0.0004732   0.0000458
    2  -0.0007152  -0.0013079  -0.0010419  -0.0004975  -0.0001446   0.0010692
    3   0.0008740  -0.0008159   0.0009342   0.0008225  -0.0004812  -0.0010400
            7           8           9          10          11          12
    1  -0.0007708  -0.0005502   0.0004032   0.0012224  -0.0003664  -0.0000998
    2  -0.0004412   0.0006658   0.0013358   0.0004049  -0.0002660   0.0002921
    3  -0.0002266  -0.0010413   0.0006672   0.0005451  -0.0008617   0.0002713
           13          14          15          16          17          18
    1   0.0002310   0.0002053  -0.0002845  -0.0001251  -0.0000988   0.0000677
    2   0.0000996  -0.0001119  -0.0000832   0.0001521  -0.0000210  -0.0000104
    3  -0.0002592   0.0008828  -0.0000308   0.0000048  -0.0000145  -0.0001326
           19          20          21          22          23          24
    1   0.0000792   0.0002209   0.0000303   0.0000808  -0.0003308   0.0004073
    2   0.0002372   0.0001168  -0.0000556  -0.0000387   0.0001379   0.0000864
    3   0.0000316   0.0000505  -0.0002361   0.0000981   0.0000121  -0.0000468
           25          26          27          28          29          30
    1  -0.0000667  -0.0001315  -0.0000265   0.0000523   0.0001869   0.0000644
    2   0.0002637  -0.0000601  -0.0000945  -0.0000488   0.0001764  -0.0000994
    3   0.0001334  -0.0001001   0.0000466  -0.0000413  -0.0001721   0.0001259
 Max gradient component =       1.336E-03
 RMS gradient           =       4.844E-04
 Gradient time:  CPU 21.44 s  wall 1.19 s
 Geometry Optimization Parameters
   NAtoms,    NIC,     NZ,  NCons,   NDum,   NFix, NCnnct, MaxDiis
       30     194       0       2       0       0       0       0

 Cartesian Hessian Update
 Hessian Updated using BFGS Update


** CONSTRAINED OPTIMIZATION IN DELOCALIZED INTERNAL COORDINATES **
   Searching for a Minimum

   Optimization Cycle:   4

                       Coordinates (Angstroms)
     ATOM                X               Y               Z
      1  C         0.3669761537   -0.6891764045   -0.0781441758
      2  C        -0.9822641534   -0.2431072227   -0.0384240574
      3  C         1.4664155793    0.3661004637   -0.3305780026
      4  C        -1.2850067866    1.2654576616   -0.1690268849
      5  O         2.5572019087    0.1643295263    0.5750749473
      6  O         1.4378743611    1.2760837609   -1.1935926640
      7  O        -0.4937548315    1.9755120332    0.7954031107
      8  O        -2.0930132637    1.8168829542   -0.9511609806
      9  C        -0.6979241055    3.4357644387    0.6449142164
     10  C         3.6091041808    1.1812643677    0.3350221893
     11  C         0.6683313890   -2.0772319519    0.0139780346
     12  C        -0.4039000038   -2.9842864468    0.1717909849
     13  C        -1.7374725412   -2.5401631811    0.2203849278
     14  C        -2.0519544488   -1.1675078850    0.1115239438
     15  H        -0.4161098480    3.7791176128   -0.3712987093
     16  H         4.0247237370    1.1033696439   -0.6904258975
     17  H        -2.5496430339   -3.2701852790    0.3403920717
     18  H        -1.7528744019    3.7220620851    0.8333163893
     19  H        -0.0437121212    3.9157702801    1.3958057808
     20  H         4.4050958986    0.9788222666    1.0750213803
     21  H         3.2200385318    2.2099545427    0.4766989859
     22  H        -0.1883520084   -4.0588500807    0.2468791081
     23  C        -3.5158532093   -0.6941375782    0.1408409074
     24  C         2.1124472186   -2.6050055078   -0.0563257366
     25  H         2.6798726485   -2.0968976271   -0.8515296075
     26  H         2.1104702921   -3.6870203334   -0.2566513753
     27  H         2.6378416223   -2.4258052811    0.8968585284
     28  H        -3.8179524801   -0.3194304658   -0.8518090055
     29  H        -3.6497158019    0.1279792197    0.8620927853
     30  H        -4.1806967926   -1.5240844909    0.4221044282
   Point Group: c1    Number of degrees of freedom:    84


   Energy is   -756.808187770

              Constraints and their Current Values
                                        Value     Constraint
   Dihedral:        2   1   3   5      135.200      135.200
   Dihedral:        1   2   4   7      -52.300      -52.300
 Hessian Updated using BFGS Update

 71 Hessian modes will be used to form the next step
  Hessian Eigenvalues:
     0.036643    0.045000    0.045000    0.045000    0.045001    0.045001
     0.045003    0.045004    0.045010    0.045019    0.045073    0.045137
     0.045404    0.045755    0.093017    0.093945    0.094234    0.094400
     0.113849    0.114739    0.116855    0.116889    0.159666    0.159982
     0.159999    0.160280    0.161178    0.164064    0.224564    0.234378
     0.244959    0.249317    0.249640    0.249663    0.249938    0.249997
     0.250000    0.250000    0.250110    0.250616    0.299606    0.318941
     0.321581    0.341621    0.341666    0.342535    0.342610    0.342892
     0.342934    0.343038    0.343298    0.343470    0.343941    0.344341
     0.344471    0.347099    0.348661    0.349832    0.370740    0.408140
     0.408891    0.413483    0.438664    0.446189    0.452352    0.459549
     0.463679    0.524289    0.536459    0.959752    0.990543

 Minimum Search - Taking Simple RFO Step
 Searching for Lamda that Minimizes Along All modes
 Value Taken    Lamda =  -0.00006002
 Step Taken.  Stepsize is  0.026362

                             Maximum     Tolerance    Cnvgd?
         Gradient           0.002561      0.000300      NO
         Displacement       0.009223      0.001200      NO
         Energy change     -0.000303      0.000001      NO


 New Cartesian Coordinates Obtained by Inverse Iteration

 Displacement from previous Coordinates is:  0.057469
 Adding empirical dispersion correction 
 ----------------------------------------------------------------
 Doing -D3(op) with
 s6 =   1.00000
 s8 =   0.78311
 a1 =   0.30000
 a2 =   4.25000
 n  =  10.00000
 -D3 energy without 3body term =     -0.0328427110 hartrees
 ----------------------------------------------------------------
             Standard Nuclear Orientation (Angstroms)
    I     Atom           X                Y                Z
 ----------------------------------------------------------------
    1      C       0.3669589509    -0.6869171023    -0.0781500812
    2      C      -0.9823714613    -0.2412765535    -0.0350499987
    3      C       1.4643289684     0.3690043741    -0.3292096972
    4      C      -1.2856600161     1.2659340616    -0.1647669779
    5      O       2.5563482703     0.1644506769     0.5747220101
    6      O       1.4351914544     1.2799880547    -1.1900035915
    7      O      -0.4909384483     1.9741035143     0.7988156207
    8      O      -2.0965199545     1.8180127118    -0.9423371010
    9      C      -0.6929352807     3.4332538564     0.6434787113
   10      C       3.6055992612     1.1819896863     0.3309124021
   11      C       0.6690405272    -2.0751414758     0.0158587107
   12      C      -0.4032197105    -2.9830398224     0.1705750919
   13      C      -1.7371534716    -2.5397925632     0.2171036511
   14      C      -2.0521704441    -1.1669791493     0.1102441660
   15      H      -0.4068054860     3.7743808225    -0.3723795200
   16      H       4.0183803539     1.1044668319    -0.6958133502
   17      H      -2.5488412958    -3.2705820598     0.3347531735
   18      H      -1.7477225407     3.7221106361     0.8295776124
   19      H      -0.0396184767     3.9130270877     1.3949825962
   20      H       4.4036642977     0.9786831579     1.0680950471
   21      H       3.2166144367     2.2103672035     0.4759223243
   22      H      -0.1877011979    -4.0576442072     0.2440601730
   23      C      -3.5169091275    -0.6958083338     0.1391832788
   24      C       2.1126783053    -2.6045877073    -0.0521977520
   25      H       2.6821720960    -2.1004402197    -0.8484474365
   26      H       2.1106933644    -3.6870870165    -0.2489894946
   27      H       2.6374838826    -2.4228599234     0.9008255945
   28      H      -3.8181861447    -0.3162807530    -0.8518873783
   29      H      -3.6545877536     0.1218926555     0.8647394249
   30      H      -4.1816196692    -1.5276473228     0.4145184131
 ----------------------------------------------------------------
 Molecular Point Group                 C1    NOp =  1
 Largest Abelian Subgroup              C1    NOp =  1
 Nuclear Repulsion Energy =  1118.8274211200 hartrees
 There are       59 alpha and       59 beta electrons
 Applying Cartesian multipole field
    Component          Value
    ---------          -----
     (2,0,0)        1.00000E-11
     (0,2,0)        2.00000E-11
     (0,0,2)       -3.00000E-10
 Nucleus-field energy     =     0.0000000069 hartrees
 Requested basis set is STO-3G
 There are 46 shells and 94 basis functions
 A cutoff of  1.0D-12 yielded    914 shell pairs
 There are      4289 function pairs
 Smallest overlap matrix eigenvalue = 1.83E-01
 Guess MOs from SCF MO coefficient file
 Reading MOs from coefficient file
 Reading MOs from coefficient file
 A restricted hybrid HF-DFT SCF calculation will be
 performed using Pulay DIIS extrapolation
 Exchange:     0.2000 Hartree-Fock + 0.0800 Slater + 0.7200 B88
 Correlation:  0.1900 VWN1RPA + 0.8100 LYP
 Using SG-1 standard quadrature grid
 Dispersion:   Grimme D3
 SCF converges when DIIS error is below 1.0E-08
 Geometry optimization detected.  Setting ReadMinima to 0
 Setting SaveMinima to 0
 -------------------------------------------------------
 OpenMP Integral computing Module                
 Release: version 1.0, May 2013, Q-Chem Inc. Pittsburgh 
 -------------------------------------------------------
 -------------------------------------------------------
 OpenMP BLAS3 based DFT computing Module                
 Release: version 1.0, May 2013, Q-Chem Inc. Pittsburgh 
 -------------------------------------------------------
 ---------------------------------------
  Cycle       Energy         DIIS Error
 ---------------------------------------
    1    -756.8092890666      2.88E-04
    2    -756.8082189884      2.42E-05
    3    -756.8082188020      3.13E-05
    4    -756.8082202988      7.96E-06
    5    -756.8082203501      5.57E-06
    6    -756.8082203833      1.93E-06
    7    -756.8082203884      3.14E-07
    8    -756.8082203885      1.66E-07
    9    -756.8082203885      7.15E-08
   10    -756.8082203885      1.83E-08
   11    -756.8082203885      4.40E-09 Convergence criterion met
 ---------------------------------------
 SCF time:  CPU 65.41 s  wall 2.79 s
 SCF   energy in the final basis set = -756.8082203885
 Total energy in the final basis set = -756.8082203885
 
 --------------------------------------------------------------
 
                    Orbital Energies (a.u.)
 --------------------------------------------------------------
 
 Alpha MOs
 -- Occupied --
-18.935 -18.931 -18.874 -18.872 -10.102 -10.100 -10.064 -10.061
-10.025 -10.024 -10.024 -10.022 -10.018 -10.017 -10.010 -10.009
 -1.012  -1.005  -0.935  -0.932  -0.815  -0.745  -0.719  -0.680
 -0.668  -0.656  -0.621  -0.585  -0.556  -0.494  -0.489  -0.447
 -0.442  -0.432  -0.411  -0.409  -0.406  -0.390  -0.381  -0.376
 -0.370  -0.367  -0.356  -0.347  -0.346  -0.337  -0.316  -0.311
 -0.307  -0.291  -0.283  -0.254  -0.252  -0.195  -0.183  -0.178
 -0.171  -0.153  -0.150
 -- Virtual --
  0.053   0.069   0.117   0.129   0.231   0.249   0.274   0.315
  0.338   0.345   0.368   0.380   0.399   0.415   0.422   0.426
  0.431   0.433   0.435   0.438   0.442   0.446   0.454   0.457
  0.464   0.476   0.481   0.546   0.559   0.573   0.601   0.651
  0.651   0.757   0.769
 --------------------------------------------------------------
 
          Ground-State Mulliken Net Atomic Charges

     Atom                 Charge (a.u.)
  ----------------------------------------
      1 C                    -0.018331
      2 C                    -0.017770
      3 C                     0.210603
      4 C                     0.210424
      5 O                    -0.165142
      6 O                    -0.212767
      7 O                    -0.167975
      8 O                    -0.207400
      9 C                    -0.128779
     10 C                    -0.128216
     11 C                     0.009113
     12 C                    -0.078735
     13 C                    -0.078830
     14 C                     0.009088
     15 H                     0.092744
     16 H                     0.088192
     17 H                     0.079944
     18 H                     0.088032
     19 H                     0.089116
     20 H                     0.090398
     21 H                     0.090009
     22 H                     0.079469
     23 C                    -0.224187
     24 C                    -0.222274
     25 H                     0.083565
     26 H                     0.079822
     27 H                     0.091815
     28 H                     0.093494
     29 H                     0.084283
     30 H                     0.080297
  ----------------------------------------
  Sum of atomic charges =     0.000000

 -----------------------------------------------------------------
                    Cartesian Multipole Moments
 -----------------------------------------------------------------
    Charge (ESU x 10^10)
                 0.0000
    Dipole Moment (Debye)
         X       1.0181      Y      -0.5015      Z       1.2478
       Tot       1.6867
    Quadrupole Moments (Debye-Ang)
        XX     -78.1382     XY       2.9671     YY     -77.3608
        XZ      -2.1037     YZ       3.9793     ZZ     -89.9498
    Octopole Moments (Debye-Ang^2)
       XXX      31.0290    XXY       6.0270    XYY       4.5902
       YYY      31.9143    XXZ       4.6213    XYZ      -0.7045
       YYZ       8.5279    XZZ       6.1115    YZZ       8.9386
       ZZZ      -9.9305
    Hexadecapole Moments (Debye-Ang^3)
      XXXX   -2032.9729   XXXY      29.8050   XXYY    -674.2666
      XYYY     -34.4430   YYYY   -1833.9617   XXXZ     -12.1656
      XXYZ      14.6362   XYYZ     -10.8217   YYYZ      12.6749
      XXZZ    -396.9434   XYZZ     -13.7594   YYZZ    -379.2120
      XZZZ      -2.0082   YZZZ      -4.4844   ZZZZ    -213.1960
 -----------------------------------------------------------------
 Calculating analytic gradient of the SCF energy
 Gradient of SCF Energy
            1           2           3           4           5           6
    1  -0.0001462  -0.0000549  -0.0001466   0.0003656  -0.0000111   0.0000341
    2  -0.0000659  -0.0002185   0.0001077  -0.0000013  -0.0003677   0.0001866
    3   0.0001160  -0.0000073   0.0001085  -0.0003164   0.0000558  -0.0002130
            7           8           9          10          11          12
    1  -0.0003213   0.0000098   0.0001062   0.0004746  -0.0001188  -0.0001190
    2  -0.0003061   0.0001572   0.0005921   0.0002674  -0.0001387   0.0000193
    3   0.0004833  -0.0003345   0.0000882   0.0000759  -0.0004158   0.0002658
           13          14          15          16          17          18
    1   0.0001073   0.0000983  -0.0001077  -0.0000063  -0.0000086  -0.0000179
    2  -0.0001145  -0.0000576  -0.0000127   0.0000064   0.0000047   0.0000052
    3  -0.0002585   0.0005506  -0.0000519  -0.0000436   0.0000309   0.0000409
           19          20          21          22          23          24
    1   0.0000192  -0.0000608  -0.0000425   0.0000040  -0.0002413   0.0001399
    2  -0.0000443  -0.0000088   0.0000134  -0.0000080  -0.0000613  -0.0001544
    3  -0.0000738  -0.0000299  -0.0000571   0.0000251   0.0000605  -0.0000944
           25          26          27          28          29          30
    1   0.0000299   0.0000339  -0.0000327  -0.0000411   0.0000380   0.0000160
    2   0.0001135   0.0000692  -0.0001139  -0.0000844   0.0001127   0.0001031
    3   0.0001475  -0.0001108   0.0000422  -0.0000301  -0.0001551   0.0001009
 Max gradient component =       5.921E-04
 RMS gradient           =       1.771E-04
 Gradient time:  CPU 21.40 s  wall 1.25 s
 Geometry Optimization Parameters
   NAtoms,    NIC,     NZ,  NCons,   NDum,   NFix, NCnnct, MaxDiis
       30     194       0       2       0       0       0       0

 Cartesian Hessian Update
 Hessian Updated using BFGS Update


** CONSTRAINED OPTIMIZATION IN DELOCALIZED INTERNAL COORDINATES **
   Searching for a Minimum

   Optimization Cycle:   5

                       Coordinates (Angstroms)
     ATOM                X               Y               Z
      1  C         0.3669589509   -0.6869171023   -0.0781500812
      2  C        -0.9823714613   -0.2412765535   -0.0350499987
      3  C         1.4643289684    0.3690043741   -0.3292096972
      4  C        -1.2856600161    1.2659340616   -0.1647669779
      5  O         2.5563482703    0.1644506769    0.5747220101
      6  O         1.4351914544    1.2799880547   -1.1900035915
      7  O        -0.4909384483    1.9741035143    0.7988156207
      8  O        -2.0965199545    1.8180127118   -0.9423371010
      9  C        -0.6929352807    3.4332538564    0.6434787113
     10  C         3.6055992612    1.1819896863    0.3309124021
     11  C         0.6690405272   -2.0751414758    0.0158587107
     12  C        -0.4032197105   -2.9830398224    0.1705750919
     13  C        -1.7371534716   -2.5397925632    0.2171036511
     14  C        -2.0521704441   -1.1669791493    0.1102441660
     15  H        -0.4068054860    3.7743808225   -0.3723795200
     16  H         4.0183803539    1.1044668319   -0.6958133502
     17  H        -2.5488412958   -3.2705820598    0.3347531735
     18  H        -1.7477225407    3.7221106361    0.8295776124
     19  H        -0.0396184767    3.9130270877    1.3949825962
     20  H         4.4036642977    0.9786831579    1.0680950471
     21  H         3.2166144367    2.2103672035    0.4759223243
     22  H        -0.1877011979   -4.0576442072    0.2440601730
     23  C        -3.5169091275   -0.6958083338    0.1391832788
     24  C         2.1126783053   -2.6045877073   -0.0521977520
     25  H         2.6821720960   -2.1004402197   -0.8484474365
     26  H         2.1106933644   -3.6870870165   -0.2489894946
     27  H         2.6374838826   -2.4228599234    0.9008255945
     28  H        -3.8181861447   -0.3162807530   -0.8518873783
     29  H        -3.6545877536    0.1218926555    0.8647394249
     30  H        -4.1816196692   -1.5276473228    0.4145184131
   Point Group: c1    Number of degrees of freedom:    84


   Energy is   -756.808220389

              Constraints and their Current Values
                                        Value     Constraint
   Dihedral:        2   1   3   5      135.200      135.200
   Dihedral:        1   2   4   7      -52.300      -52.300
 Hessian Updated using BFGS Update

 72 Hessian modes will be used to form the next step
  Hessian Eigenvalues:
     0.022084    0.044638    0.045000    0.045000    0.045001    0.045001
     0.045002    0.045004    0.045006    0.045013    0.045074    0.045100
     0.045682    0.046012    0.092279    0.093889    0.094236    0.094409
     0.113848    0.114949    0.116856    0.116893    0.159510    0.159851
     0.159985    0.159999    0.160681    0.163246    0.165129    0.224587
     0.235454    0.244946    0.248799    0.249566    0.249642    0.249682
[...]
 H         -0.005  0.005 -0.000   -0.003 -0.007  0.006    0.007 -0.073  0.016
 H         -0.004 -0.002  0.005   -0.001 -0.008 -0.001    0.184  0.114 -0.079
 H         -0.011  0.001  0.005   -0.011 -0.002 -0.004    0.133 -0.020  0.056
 H         -0.337  0.167  0.023   -0.474 -0.068  0.057    0.008 -0.001 -0.000
 C         -0.002 -0.027  0.002   -0.030  0.008  0.004    0.000 -0.004  0.001
 C          0.022  0.014 -0.003    0.023 -0.022 -0.002   -0.003 -0.001  0.001
 H          0.193 -0.047  0.099    0.050  0.002  0.027    0.017 -0.011  0.009
 H         -0.241  0.088 -0.025    0.002 -0.015  0.014   -0.008  0.008 -0.025
 H          0.149  0.061 -0.094    0.053 -0.014 -0.030    0.007  0.039 -0.006
 H          0.015 -0.179 -0.068   -0.016  0.050  0.023    0.018  0.014  0.003
 H          0.127 -0.139  0.121   -0.003  0.042 -0.041    0.005  0.008 -0.014
 H         -0.184  0.181 -0.034   -0.018 -0.007 -0.012    0.007 -0.007  0.005
 TransDip  -0.069  0.090 -0.009   -0.048 -0.001 -0.014   -0.151 -0.189  0.301

 Mode:                70                     71                     72
 Frequency:      1780.10                3036.65                3041.14
 Force Cnst:     21.8573                 5.6305                 5.6427
 Red. Mass:      11.7073                 1.0363                 1.0355
 IR Active:          YES                    YES                    YES
 IR Intens:      373.412                 25.145                 22.740
 Raman Active:       YES                    YES                    YES
               X      Y      Z        X      Y      Z        X      Y      Z
 C         -0.034 -0.025  0.014   -0.000  0.001 -0.000   -0.000  0.000 -0.000
 C          0.050 -0.075  0.014    0.000 -0.000  0.000    0.001  0.000 -0.000
 C          0.063  0.134 -0.177    0.000 -0.000  0.000    0.000  0.000  0.000
 C         -0.427  0.464 -0.403    0.000  0.000  0.000   -0.000  0.000 -0.000
 O         -0.000 -0.008  0.013   -0.000  0.000 -0.000   -0.000 -0.000 -0.000
 O         -0.030 -0.085  0.118   -0.000 -0.000  0.000   -0.000 -0.000  0.000
 O          0.032 -0.019  0.028   -0.000 -0.000 -0.000   -0.000 -0.000  0.000
 O          0.281 -0.276  0.273    0.000 -0.000  0.000    0.000 -0.000  0.000
 C         -0.001  0.029 -0.007   -0.000 -0.000  0.000    0.000 -0.000  0.000
 C          0.008  0.004 -0.004   -0.000  0.000  0.000   -0.000 -0.000  0.000
 C          0.008  0.014 -0.004   -0.001  0.000 -0.000    0.000 -0.000 -0.000
 C         -0.014  0.003  0.001   -0.001  0.001 -0.000   -0.000  0.000 -0.000
 C          0.017 -0.013 -0.002    0.000  0.000  0.000    0.002  0.000 -0.000
 C         -0.032  0.019 -0.003   -0.000 -0.000  0.000    0.000 -0.001  0.000
 H         -0.059 -0.101 -0.073    0.001  0.001 -0.004    0.002  0.001 -0.006
 H         -0.036 -0.004 -0.028    0.000 -0.000  0.000    0.002 -0.002 -0.005
 H         -0.017  0.043 -0.000    0.000 -0.000 -0.000   -0.014 -0.006  0.002
 H         -0.104 -0.087 -0.046   -0.003  0.002  0.001   -0.006  0.003  0.001
 H          0.005 -0.214  0.053    0.002  0.001  0.002    0.003  0.001  0.003
 H         -0.056 -0.034  0.025   -0.000  0.000 -0.001    0.002 -0.001  0.003
 H         -0.037  0.006 -0.018    0.000 -0.002  0.000   -0.001  0.006  0.000
 H          0.011  0.003  0.000    0.000 -0.011  0.000   -0.000  0.000  0.000
 C         -0.004 -0.009  0.004    0.000 -0.000 -0.000   -0.042  0.027  0.007
 C          0.001 -0.001 -0.000    0.045 -0.022 -0.012    0.000 -0.000 -0.000
 H         -0.013  0.006 -0.009   -0.373 -0.187  0.529   -0.004 -0.002  0.005
 H          0.010 -0.006  0.007    0.142  0.483  0.056    0.001  0.004  0.000
 H         -0.009 -0.013  0.007   -0.293 -0.047 -0.447   -0.003 -0.000 -0.004
 H          0.081  0.053 -0.001   -0.001  0.002 -0.004    0.113 -0.202  0.481
 H          0.028  0.040 -0.047    0.001  0.004  0.003   -0.048 -0.466 -0.400
 H          0.046 -0.049  0.021   -0.005 -0.004  0.002    0.422  0.356 -0.165
 TransDip  -0.314  0.341 -0.410    0.117 -0.106 -0.030   -0.143  0.033  0.043

 Mode:                73                     74                     75
 Frequency:      3050.16                3050.69                3092.79
 Force Cnst:      5.6433                 5.6440                 6.1979
 Red. Mass:       1.0295                 1.0293                 1.0997
 IR Active:          YES                    YES                    YES
 IR Intens:       24.006                 44.094                 12.075
 Raman Active:       YES                    YES                    YES
               X      Y      Z        X      Y      Z        X      Y      Z
 C         -0.000  0.000 -0.000    0.000 -0.000  0.000    0.000 -0.000  0.000
 C          0.000  0.000  0.000    0.000  0.000  0.000    0.000 -0.000 -0.000
 C          0.002 -0.001  0.002   -0.000  0.000 -0.001   -0.000 -0.000 -0.000
 C         -0.001 -0.000 -0.001   -0.002 -0.001 -0.002    0.000  0.000 -0.000
 O         -0.003 -0.001 -0.000    0.001  0.000  0.000   -0.000 -0.000  0.000
 O          0.000  0.001 -0.001   -0.000 -0.000  0.000   -0.000 -0.000  0.000
 O          0.000  0.001  0.000    0.001  0.002  0.000   -0.000  0.000  0.000
 O          0.000 -0.000  0.000    0.001 -0.000  0.001   -0.000 -0.000  0.000
 C          0.001  0.012 -0.005    0.002  0.039 -0.014   -0.000 -0.000  0.000
 C         -0.033 -0.021  0.016    0.011  0.007 -0.005    0.000  0.000  0.000
 C          0.000  0.000 -0.000    0.000 -0.000  0.000    0.000  0.001 -0.001
 C          0.000 -0.000  0.000   -0.000  0.000 -0.000    0.000 -0.001 -0.000
 C         -0.000  0.000 -0.000    0.000  0.000 -0.000   -0.000  0.000 -0.000
 C         -0.000 -0.000  0.000   -0.000  0.000 -0.000   -0.000 -0.000  0.000
 H         -0.067 -0.034  0.184   -0.210 -0.105  0.574    0.000  0.000 -0.001
 H          0.235 -0.200 -0.526   -0.075  0.064  0.169    0.000 -0.000 -0.000
 H          0.000  0.000 -0.000   -0.001 -0.000  0.000   -0.002 -0.001  0.000
 H          0.155 -0.095 -0.033    0.486 -0.297 -0.103    0.000 -0.000 -0.000
 H         -0.097 -0.029 -0.094   -0.301 -0.089 -0.294    0.000  0.000  0.000
 H          0.230 -0.129  0.327   -0.073  0.041 -0.105   -0.000  0.000 -0.000
 H         -0.055  0.595 -0.000    0.017 -0.190  0.000    0.000 -0.003  0.000
 H         -0.000  0.000  0.000   -0.000 -0.001  0.000   -0.000  0.010 -0.001
 C          0.000 -0.000 -0.000   -0.000  0.000  0.000    0.000  0.000  0.001
 C         -0.000 -0.001 -0.000    0.000  0.000  0.000    0.006  0.029 -0.086
 H         -0.001 -0.001  0.002   -0.002 -0.001  0.003   -0.401 -0.191  0.538
 H          0.001  0.006  0.001    0.000  0.001  0.000   -0.062 -0.221 -0.046
 H          0.001  0.001  0.002   -0.002 -0.000 -0.003    0.388  0.066  0.543
 H         -0.001  0.001 -0.003    0.002 -0.003  0.007   -0.001  0.003 -0.006
 H          0.000  0.002  0.002   -0.001 -0.007 -0.006   -0.000 -0.005 -0.004
 H         -0.003 -0.002  0.001    0.004  0.004 -0.002   -0.000 -0.000  0.000
 TransDip  -0.157 -0.003  0.003    0.099  0.187  0.014    0.012  0.057 -0.095

 Mode:                76                     77                     78
 Frequency:      3099.16                3109.43                3110.93
 Force Cnst:      6.2253                 6.2791                 6.2892
 Red. Mass:       1.1001                 1.1023                 1.1030
 IR Active:          YES                    YES                    YES
 IR Intens:       10.868                 16.722                 14.986
 Raman Active:       YES                    YES                    YES
               X      Y      Z        X      Y      Z        X      Y      Z
 C          0.000 -0.000 -0.000   -0.000 -0.000 -0.000    0.000 -0.000  0.000
 C          0.000 -0.000  0.000   -0.000  0.000 -0.000    0.000 -0.000  0.000
 C         -0.000 -0.000  0.000   -0.000  0.000 -0.000   -0.000 -0.000  0.000
 C          0.000  0.000  0.000   -0.000 -0.000 -0.000    0.001 -0.000  0.000
 O          0.000  0.000  0.000    0.000 -0.000  0.000   -0.000  0.000 -0.000
 O          0.000  0.000 -0.000    0.000 -0.000  0.000   -0.000  0.000 -0.000
 O          0.000  0.000 -0.000    0.000  0.000  0.000   -0.000 -0.000 -0.000
 O          0.000  0.000  0.000    0.000 -0.000  0.000   -0.000  0.000 -0.000
 C         -0.000  0.000  0.000    0.000 -0.000 -0.000   -0.000  0.000 -0.000
 C         -0.000  0.000  0.000    0.001 -0.001 -0.001   -0.000  0.000  0.000
 C          0.000  0.000 -0.000   -0.001 -0.000 -0.000    0.000  0.000 -0.000
 C         -0.000 -0.000  0.000    0.000  0.004 -0.000   -0.000 -0.000  0.000
 C          0.001  0.000 -0.000   -0.000 -0.000  0.000    0.004  0.002 -0.001
 C         -0.001 -0.000 -0.000    0.000  0.000 -0.000    0.000 -0.001  0.000
 H          0.001  0.001 -0.002   -0.001 -0.000  0.002   -0.000 -0.000  0.001
 H          0.000 -0.000 -0.001   -0.005  0.004  0.012    0.000 -0.000 -0.001
 H         -0.011 -0.004  0.001    0.007  0.004 -0.001   -0.038 -0.018  0.006
 H          0.004 -0.002 -0.001   -0.002  0.001  0.000    0.002 -0.001 -0.000
 H          0.000  0.000  0.000   -0.000 -0.000 -0.000    0.001  0.000  0.001
 H          0.000  0.000  0.000   -0.001  0.000 -0.002    0.000 -0.000  0.000
 H          0.000 -0.001  0.000   -0.001  0.005 -0.000    0.000 -0.002  0.000
 H          0.000  0.003 -0.000   -0.000 -0.038  0.001    0.000  0.008 -0.000
 C         -0.029 -0.038 -0.078   -0.000  0.000 -0.000   -0.038 -0.070  0.048
 C          0.000  0.000 -0.001   -0.050 -0.073 -0.028   -0.000 -0.000  0.000
 H         -0.004 -0.002  0.005    0.109  0.044 -0.177    0.001  0.000 -0.001
 H         -0.001 -0.005 -0.001    0.218  0.793  0.092    0.001  0.003  0.000
 H          0.002  0.000  0.003    0.281  0.027  0.424   -0.000 -0.000 -0.001
 H          0.134 -0.258  0.544    0.001 -0.002  0.004   -0.140  0.212 -0.516
 H          0.045  0.574  0.474    0.000  0.001  0.001    0.008  0.163  0.165
 H          0.169  0.137 -0.084   -0.000 -0.000 -0.000    0.577  0.472 -0.221
 TransDip  -0.039 -0.064 -0.074   -0.053 -0.116 -0.030   -0.088 -0.078  0.040

 Mode:                79                     80                     81
 Frequency:      3122.80                3126.29                3156.78
 Force Cnst:      6.3601                 6.3756                 6.4966
 Red. Mass:       1.1069                 1.1072                 1.1065
 IR Active:          YES                    YES                    YES
 IR Intens:       17.698                 13.679                 13.112
 Raman Active:       YES                    YES                    YES
               X      Y      Z        X      Y      Z        X      Y      Z
 C          0.000 -0.000 -0.000   -0.000 -0.000  0.000    0.000 -0.000 -0.000
 C          0.000  0.000  0.000    0.000 -0.000 -0.000    0.000 -0.000  0.000
 C         -0.000  0.000  0.000    0.000  0.000 -0.000   -0.000  0.000 -0.000
 C         -0.000 -0.000 -0.000    0.000  0.000  0.000   -0.000  0.001 -0.000
 O         -0.000  0.000  0.000    0.000 -0.000  0.000    0.000  0.000  0.000
 O         -0.000  0.000  0.000   -0.000 -0.000  0.000    0.000 -0.000  0.000
 O          0.000  0.000  0.000   -0.000 -0.000  0.000    0.000 -0.000  0.000
 O          0.000  0.000  0.000   -0.000  0.000  0.000    0.000 -0.000  0.000
 C          0.002 -0.001 -0.002    0.066 -0.021 -0.065   -0.067  0.003 -0.067
 C          0.027 -0.076 -0.049   -0.001  0.002  0.002   -0.000 -0.000 -0.001
 C         -0.000 -0.000  0.000    0.000  0.000  0.000   -0.000 -0.000  0.000
 C          0.000 -0.000  0.000   -0.000 -0.000  0.000    0.000  0.000  0.000
 C         -0.000  0.000 -0.000    0.000 -0.000  0.000   -0.000 -0.000  0.000
 C         -0.000 -0.000  0.000   -0.000  0.000  0.000   -0.000  0.000  0.000
 H         -0.006 -0.003  0.017   -0.219 -0.122  0.645   -0.113 -0.047  0.262
 H         -0.264  0.213  0.609    0.008 -0.007 -0.019   -0.002  0.002  0.005
 H          0.000  0.000 -0.000   -0.000 -0.000  0.000    0.002  0.001 -0.000
 H         -0.019  0.012  0.004   -0.602  0.368  0.110    0.277 -0.173 -0.074
 H         -0.002 -0.001 -0.002    0.044  0.005  0.018    0.624  0.185  0.609
 H          0.008 -0.016 -0.006   -0.002  0.001 -0.002    0.004 -0.002  0.006
 H         -0.065  0.706 -0.020    0.002 -0.019  0.000    0.000  0.002 -0.000
 H          0.000  0.001 -0.000    0.000  0.001 -0.000   -0.000 -0.000  0.000
 C         -0.000 -0.000  0.000   -0.000 -0.000 -0.000    0.000  0.000 -0.000
 C          0.001  0.001  0.000    0.000  0.000  0.000   -0.000 -0.000 -0.000
 H         -0.003 -0.001  0.005   -0.001 -0.000  0.001    0.000  0.000 -0.000
 H         -0.003 -0.010 -0.001   -0.001 -0.002 -0.000    0.000  0.000  0.000
 H         -0.003 -0.000 -0.005   -0.000  0.000 -0.001    0.000 -0.000  0.000
 H         -0.000  0.000 -0.001    0.000 -0.001  0.002    0.000 -0.000  0.001
 H          0.000  0.001  0.001    0.000  0.003  0.003    0.000 -0.001 -0.001
 H          0.001  0.001 -0.001    0.001  0.001 -0.000   -0.001 -0.001  0.001
 TransDip   0.039 -0.108 -0.071    0.074 -0.040 -0.084   -0.085 -0.020 -0.077

 Mode:                82                     83                     84
 Frequency:      3158.16                3161.21                3178.22
 Force Cnst:      6.5009                 6.4005                 6.5140
 Red. Mass:       1.1063                 1.0871                 1.0945
 IR Active:          YES                    YES                    YES
 IR Intens:       12.626                  8.099                 20.247
 Raman Active:       YES                    YES                    YES
               X      Y      Z        X      Y      Z        X      Y      Z
 C         -0.000 -0.000  0.000   -0.000  0.001 -0.000   -0.000  0.001 -0.000
 C         -0.000 -0.000  0.000   -0.001  0.000  0.000    0.001  0.000 -0.000
 C          0.001  0.001 -0.001    0.000  0.000  0.000    0.000  0.000 -0.000
 C          0.000 -0.000  0.000    0.000 -0.000  0.000   -0.000  0.000 -0.000
 O          0.000 -0.000  0.000   -0.000  0.000 -0.000   -0.000 -0.000 -0.000
 O         -0.000 -0.000  0.000   -0.000 -0.000  0.000   -0.000 -0.000  0.000
 O         -0.000  0.000  0.000    0.000  0.000  0.000   -0.000 -0.000 -0.000
 O         -0.000  0.000 -0.000   -0.000  0.000 -0.000    0.000 -0.000  0.000
 C          0.001 -0.000  0.000   -0.000 -0.000 -0.000    0.000  0.000  0.000
 C         -0.034  0.039 -0.079    0.000 -0.000  0.001    0.000 -0.000  0.000
 C         -0.000  0.000  0.000    0.002 -0.000 -0.000    0.003  0.000 -0.000
 C         -0.000 -0.001  0.000   -0.005 -0.061  0.004   -0.002 -0.061  0.003
 C          0.000  0.000 -0.000    0.050  0.029 -0.007   -0.057 -0.028  0.008
 C          0.000 -0.000 -0.000    0.001 -0.002 -0.000   -0.001  0.003 -0.000
 H          0.000 -0.000  0.000   -0.000  0.000  0.000   -0.000 -0.000  0.000
 H         -0.123  0.110  0.254    0.001 -0.001 -0.002    0.000 -0.000 -0.000
 H         -0.004 -0.002  0.001   -0.602 -0.319  0.086    0.634  0.329 -0.090
 H         -0.004  0.003  0.001    0.001 -0.000 -0.000    0.000 -0.000 -0.000
 H         -0.005 -0.001 -0.005    0.001  0.000  0.001   -0.001 -0.000 -0.001
 H          0.491 -0.277  0.700   -0.005  0.003 -0.007   -0.001  0.001 -0.002
 H          0.025 -0.302 -0.014   -0.000  0.003  0.000   -0.000 -0.000  0.000
 H          0.000  0.008 -0.000    0.044  0.718 -0.041    0.036  0.685 -0.039
 C          0.000  0.000 -0.000    0.002  0.002 -0.001   -0.002 -0.002  0.001
 C          0.000  0.000  0.000   -0.001 -0.003 -0.000   -0.001 -0.002 -0.000
 H          0.000  0.000 -0.000    0.004  0.003 -0.006    0.001  0.002 -0.002
 H         -0.000 -0.000  0.000    0.007  0.032  0.004    0.005  0.022  0.003
 H         -0.000 -0.000 -0.000    0.003  0.001  0.005    0.000  0.001  0.002
 H          0.000 -0.000  0.000    0.002 -0.003  0.007   -0.000  0.001 -0.004
 H          0.000 -0.000 -0.000   -0.001 -0.007 -0.006    0.001  0.002  0.002
 H         -0.001 -0.000  0.000   -0.028 -0.021  0.010    0.022  0.016 -0.008
 TransDip  -0.061  0.037 -0.089    0.075 -0.052 -0.005   -0.080 -0.119  0.015

 STANDARD THERMODYNAMIC QUANTITIES AT   298.15 K  AND     1.00 ATM

   This Molecule has  0 Imaginary Frequencies
   Zero point vibrational energy:      150.537 kcal/mol

   Atom    1 Element C  Has Mass   12.00000
   Atom    2 Element C  Has Mass   12.00000
   Atom    3 Element C  Has Mass   12.00000
   Atom    4 Element C  Has Mass   12.00000
   Atom    5 Element O  Has Mass   15.99491
   Atom    6 Element O  Has Mass   15.99491
   Atom    7 Element O  Has Mass   15.99491
   Atom    8 Element O  Has Mass   15.99491
   Atom    9 Element C  Has Mass   12.00000
   Atom   10 Element C  Has Mass   12.00000
   Atom   11 Element C  Has Mass   12.00000
   Atom   12 Element C  Has Mass   12.00000
   Atom   13 Element C  Has Mass   12.00000
   Atom   14 Element C  Has Mass   12.00000
   Atom   15 Element H  Has Mass    1.00783
   Atom   16 Element H  Has Mass    1.00783
   Atom   17 Element H  Has Mass    1.00783
   Atom   18 Element H  Has Mass    1.00783
   Atom   19 Element H  Has Mass    1.00783
   Atom   20 Element H  Has Mass    1.00783
   Atom   21 Element H  Has Mass    1.00783
   Atom   22 Element H  Has Mass    1.00783
   Atom   23 Element C  Has Mass   12.00000
   Atom   24 Element C  Has Mass   12.00000
   Atom   25 Element H  Has Mass    1.00783
   Atom   26 Element H  Has Mass    1.00783
   Atom   27 Element H  Has Mass    1.00783
   Atom   28 Element H  Has Mass    1.00783
   Atom   29 Element H  Has Mass    1.00783
   Atom   30 Element H  Has Mass    1.00783
   Molecular Mass:   222.089260 amu
   Principal axes and moments of inertia in amu*Bohr^2:
                             1           2           3
    Eigenvalues --     2862.21793  3195.49243  5570.89020
          X               0.99994     0.01115     0.00036
          Y              -0.01116     0.99990     0.00852
          Z              -0.00026    -0.00852     0.99996
   Rotational Symmetry Number is   1
   The Molecule is an Asymmetric Top
   Translational Enthalpy:        0.889 kcal/mol
   Rotational Enthalpy:           0.889 kcal/mol
   Vibrational Enthalpy:        159.357 kcal/mol
   gas constant (RT):             0.592 kcal/mol
   Translational Entropy:        42.096  cal/mol.K
   Rotational Entropy:           32.299  cal/mol.K
   Vibrational Entropy:          58.318  cal/mol.K

   Total Enthalpy:              161.727 kcal/mol
   Total Entropy:               132.713  cal/mol.K
Archival summary:
1\1\nid03059\FREQ\ProcedureUnspecified\BasisUnspecified\41214\junteng\WedOct421:24:192017WedOct421:24:192017\0\\#,FREQ,ProcedureUnspecified,BasisUnspecified,\\0,1\O\C,1,1.34993\O,2,1.20673,1,123.607\C,1,1.43896,2,115.862,3,-8.36707,0\H,4,1.08774,1,105.418,2,178.008,0\H,4,1.09057,1,110.622,2,58.2815,0\H,4,1.09122,1,109.784,2,-62.7177,0\C,2,1.49664,1,111.375,3,-178.75,0\C,8,1.40684,2,120.139,1,-47.3539,0\C,9,1.40497,8,120.907,2,-178.927,0\C,10,1.39589,9,117.571,8,-0.975843,0\H,11,1.08503,10,119.101,9,179.706,0\C,11,1.38873,10,121.566,9,0.156219,0\H,13,1.08492,11,119.377,10,-179.539,0\C,13,1.39579,11,121.563,10,0.916483,0\C,9,1.50031,8,119.135,2,-4.42215,0\O,16,1.20781,9,124.393,8,-55.8134,0\O,16,1.3455,9,111.866,8,125.595,0\C,18,1.43972,16,115.776,9,178.575,0\H,19,1.08758,18,105.428,16,-179.569,0\H,19,1.0909,18,110.229,16,60.9533,0\H,19,1.0911,18,110.477,16,-59.8379,0\C,15,1.51009,13,119.547,11,179.193,0\H,23,1.09163,15,110.183,13,10.492,0\H,23,1.09201,15,111.026,13,-109.901,0\H,23,1.09256,15,112,13,130.956,0\C,10,1.51082,9,122.704,8,177.859,0\H,27,1.09147,10,110.332,9,-167.689,0\H,27,1.09233,10,111.199,9,72.0429,0\H,27,1.09327,10,111.77,9,-47.8065,0\\\@

 Total job time:  8254.73s(wall), 47052.77s(cpu) 
 Wed Oct  4 21:24:19 2017

        *************************************************************
        *                                                           *
        *  Thank you very much for using Q-Chem.  Have a nice day.  *
        *                                                           *
        *************************************************************


