nid01519 10.128.5
Q-Chem Developer Version! Running on 10.128.5.*
                  Welcome to Q-Chem
     A Quantum Leap Into The Future Of Chemistry


 Q-Chem 5.0, Q-Chem, Inc., Pleasanton, CA (2017)

 Yihan Shao,  Zhengting Gan,  E. Epifanovsky,  A. T. B. Gilbert,  M. Wormit,  
 J. Kussmann,  A. W. Lange,  A. Behn,  Jia Deng,  Xintian Feng,  D. Ghosh,  
 M. Goldey,  P. R. Horn,  L. D. Jacobson,  I. Kaliman,  T. Kus,  A. Landau,  
 Jie Liu,  E. I. Proynov,  R. M. Richard,  R. P. Steele,  E. J. Sundstrom,  
 H. L. Woodcock III,  P. M. Zimmerman,  D. Zuev,  B. Albrecht,  E. Alguire,  
 S. A. Baeppler,  Z. Benda,  Y. A. Bernard,  E. J. Berquist,  K. B. Bravaya,  
 D. Casanova,  Chun-Min Chang,  Yunqing Chen,  A. Chien,  K. D. Closser,  
 M. P. Coons,  S. Dasgupta,  M. Diedenhofen,  Hainam Do,  R. G. Edgar,  
 Po-Tung Fang,  S. Fatehi,  Qingguo Feng,  Qinghui Ge,  A. Ghysels,  
 J. Gomes,  J. Gonthier,  A. Gunina,  M. W. D. Hanson-Heine,  
 P. H. P. Harbach,  A. W. Hauser,  J. E. Herr,  E. G. Hohenstein,  
 Z. C. Holden,  Kerwin Hui,  T.-C. Jagau,  Hyunjun Ji,  B. Kaduk,  
 K. Khistyaev,  Jaehoon Kim,  P. Klunzinger,  K. Koh,  D. Kosenkov,  
 T. Kowalczyk,  C. M. Krauter,  A. Kunitsa,  Ka Un Lao,  A. Laurent,  
 K. V. Lawler,  Joonho Lee,  D. Lefrancois,  S. Lehtola,  D. S. Levine,  
 Yi-Pei Li,  You-Sheng Lin,  Fenglai Liu,  E. Livshits,  A. Luenser,  
 P. Manohar,  E. Mansoor,  S. F. Manzer,  Shan-Ping Mao,  Yuezhi Mao,  
 N. Mardirossian,  A. V. Marenich,  L. A. Martinez-Martinez,  S. A. Maurer,  
 N. J. Mayhall,  S. C. McKenzie,  J.-M. Mewes,  A. F. Morrison,  K. Nanda,  
 T. S. Nguyen-Beck,  R. Olivares-Amaya,  J. A. Parkhill,  T. M. Perrine,  
 F. Plasser,  S. Prager,  A. Prociuk,  D. R. Rehn,  F. Rob,  M. Schneider,  
 N. Sergueev,  S. M. Sharada,  S. Sharma,  D. W. Small,  T. Stauch,  
 T. Stein,  Yu-Chuan Su,  A. J. W. Thom,  T. Tsuchimochi,  L. Vogt,  
 O. Vydrov,  M. A. Watson,  J. Wenzel,  M. de Wergifosse,  T. A. Wesolowski,  
 A. White,  J. Witte,  A. Yamada,  Jun Yang,  K. Yao,  S. Yeganeh,  
 S. R. Yost,  Zhi-Qiang You,  A. Zech,  Igor Ying Zhang,  Xing Zhang,  
 Yan Zhao,  Ying Zhu,  B. R. Brooks,  G. K. L. Chan,  C. J. Cramer,  
 M. S. Gordon,  W. J. Hehre,  A. Klamt,  M. W. Schmidt,  C. D. Sherrill,  
 D. G. Truhlar,  A. Aspuru-Guzik,  R. Baer,  A. T. Bell,  N. A. Besley,  
 Jeng-Da Chai,  A. Dreuw,  B. D. Dunietz,  T. R. Furlani,  Chao-Ping Hsu,  
 Yousung Jung,  Jing Kong,  D. S. Lambrecht,  WanZhen Liang,  C. Ochsenfeld,  
 V. A. Rassolov,  L. V. Slipchenko,  J. E. Subotnik,  T. Van Voorhis,  
 J. M. Herbert,  A. I. Krylov,  P. M. W. Gill,  M. Head-Gordon

 Contributors to earlier versions of Q-Chem not listed above: 
 R. D. Adamson,  B. Austin,  J. Baker,  G. J. O. Beran,  K. Brandhorst,  
 S. T. Brown,  E. F. C. Byrd,  A. K. Chakraborty,  C.-L. Cheng,  
 Siu Hung Chien,  D. M. Chipman,  D. L. Crittenden,  H. Dachsel,  
 R. A. DiStasio Jr.,  R. J. Doerksen,  A. D. Dutoi,  L. Fusti-Molnar,  
 W. A. Goddard III,  A. Golubeva-Zadorozhnaya,  S. R. Gwaltney,  G. Hawkins,  
 A. Heyden,  S. Hirata,  G. Kedziora,  F. J. Keil,  C. Kelley,  Jihan Kim,  
 R. A. King,  R. Z. Khaliullin,  P. P. Korambath,  W. Kurlancheek,  
 A. M. Lee,  M. S. Lee,  S. V. Levchenko,  Ching Yeh Lin,  D. Liotard,  
 R. C. Lochan,  I. Lotan,  P. E. Maslen,  N. Nair,  D. P. O'Neill,  
 D. Neuhauser,  E. Neuscamman,  C. M. Oana,  R. Olson,  B. Peters,  
 R. Peverati,  P. A. Pieniazek,  Y. M. Rhee,  J. Ritchie,  M. A. Rohrdanz,  
 E. Rosta,  N. J. Russ,  H. F. Schaefer III,  N. E. Schultz,  N. Shenvi,  
 A. C. Simmonett,  A. Sodt,  D. Stuck,  K. S. Thanthiriwatte,  V. Vanovschi,  
 Tao Wang,  A. Warshel,  C. F. Williams,  Q. Wu,  X. Xu,  W. Zhang

 Please cite Q-Chem as follows:
 Y. Shao et al., Mol. Phys. 113, 184-215 (2015)
 DOI: 10.1080/00268976.2014.952696

 Q-Chem 5.0.0 for Intel X86 EM64T Linux

 Parts of Q-Chem use Armadillo 5.200.1 (Boston Tea Smuggler).
 http://arma.sourceforge.net/

 Q-Chem begins on Tue Oct  3 17:56:19 2017  

Host: nid01519
0

     Scratch files written to /global/cscratch1/sd/junteng/scratch/14/opt_1101.save//

Checking the input file for inconsistencies... 	...done.

--------------------------------------------------------------
User input:
--------------------------------------------------------------
$molecule
0  1
C    0.711  -1.958   0.589
C   -0.299  -1.995   1.756
C    1.089  -0.603   0.022
C   -0.528  -0.668   2.454
O    2.255  -0.726  -0.682
O    0.458   0.435   0.138
O    0.672  -0.221   2.944
O   -1.603  -0.140   2.687
C    0.580   1.027   3.634
C    2.698   0.490  -1.286
C   -0.031  -2.720  -0.508
C   -0.144  -4.202  -0.153
C   -1.210  -4.188   0.944
C   -1.515  -2.680   1.086
O   -1.391  -2.278  -0.299
H    1.639  -2.461   0.888
H    0.068  -2.659   2.552
H   -0.050   0.928   4.523
H    1.951   0.864  -1.993
H   -0.511  -4.776  -1.011
H    0.804  -4.638   0.173
H   -2.087  -4.746   0.595
H   -0.869  -4.649   1.876
H    1.587   1.311   3.953
H    0.196   1.807   2.969
H    3.619   0.278  -1.837
H    2.918   1.240  -0.519
H    0.300  -2.531  -1.532
C   -2.908  -2.427   1.624
H   -3.642  -3.061   1.114
H   -2.968  -2.632   2.696
H   -3.235  -1.402   1.426
$end


$opt
CONSTRAINT
tors    2    1    3    5    162.3
tors    1    2    4    7    -60.0
ENDCONSTRAINT
$end

$rem
JOBTYPE                   OPT
METHOD                    B3LYP
DFT_D                     D3_OP
BASIS                     6-311++G(d,p)
GEOM_OPT_MAX_CYCLES       500
GEOM_OPT_TOL_DISPLACEMENT 1
SYMMETRY                  False
THRESH                    12
SCF_CONVERGENCE           8
MAX_SUB_FILE_NUM          128
MEM_STATIC                400
MEM_TOTAL                 4000
$end

--------------------------------------------------------------
 Adding empirical dispersion correction 
 ----------------------------------------------------------------
 Doing -D3(op) with
 s6 =   1.00000
 s8 =   0.78311
 a1 =   0.30000
 a2 =   4.25000
 n  =  10.00000
 -D3 energy without 3body term =     -0.0354339443 hartrees
 ----------------------------------------------------------------
             Standard Nuclear Orientation (Angstroms)
    I     Atom           X                Y                Z
 ----------------------------------------------------------------
    1      C      -0.1011848019     0.8054220658     0.6072204492
    2      C       0.6620154878    -0.5364971559     0.5955533906
    3      C      -1.4015644380     0.8875516009    -0.1690949129
    4      C      -0.1410572282    -1.7318799813     0.1194146361
    5      O      -2.1190916287     1.9620046977     0.2792423188
    6      O      -1.7586593461     0.1451011244    -1.0692679610
    7      O      -1.2361871469    -1.8724092621     0.9323420513
    8      O       0.1839039632    -2.5367797787    -0.7380435496
    9      C      -2.0705618232    -2.9788079980     0.5833882767
   10      C      -3.3601324547     2.1543130106    -0.4008725103
   11      C       0.8921947687     1.7507805700    -0.0666573788
   12      C       2.1006898551     1.9956119456     0.8359583888
   13      C       2.8581814059     0.6714609442     0.7228580976
   14      C       1.9353848860    -0.1568246325    -0.1989024928
   15      O       1.4677351984     0.8937269451    -1.0780214566
   16      H      -0.3158357451     1.0989107000     1.6422969653
   17      H       0.9675145382    -0.8059543627     1.6169564177
   18      H      -1.5277085504    -3.9211288805     0.7032368423
   19      H      -3.1925366947     2.3218430413    -1.4693196780
   20      H       2.7207990583     2.8058706669     0.4368664437
   21      H       1.8242280680     2.2474343817     1.8632024401
   22      H       3.8327460722     0.8578355890     0.2561866896
   23      H       3.0366664167     0.1979666648     1.6931015044
   24      H      -2.9267737949    -2.9833521908     1.2640838105
   25      H      -2.4439876414    -2.8714877839    -0.4398988433
   26      H      -3.8403685125     3.0440784321     0.0168317195
   27      H      -4.0212059080     1.2961810682    -0.2403095674
   28      H       0.4702491978     2.6594561976    -0.5026946926
   29      C       2.6945415386    -1.2278384490    -0.9542253256
   30      H       3.6222933193    -0.8229488311    -1.3739312116
   31      H       2.9531506788    -2.0694657777    -0.3064647586
   32      H       2.1281180017    -1.5881402477    -1.8179990175
 ----------------------------------------------------------------
 Molecular Point Group                 C1    NOp =  1
 Largest Abelian Subgroup              C1    NOp =  1
 Nuclear Repulsion Energy =  1248.6091517482 hartrees
 There are       61 alpha and       61 beta electrons
 Requested basis set is 6-311++G(d,p)
 There are 176 shells and 464 basis functions

 Total QAlloc Memory Limit   4000 MB
 Mega-Array Size       392 MB
 MEM_STATIC part       400 MB
 A cutoff of  1.0D-12 yielded  12863 shell pairs
 There are     90905 function pairs (     96961 Cartesian)
 
 -------------------------------------------------------
 OpenMP Integral Computing Module                       
 Release: version 1.0, May 2013, Q-Chem Inc. Pittsburgh 
 -------------------------------------------------------
 Integral Job Info:
 Integral job number is                      11
 Integral operator is                         1
 short-range coefficients                     0
 long-range coefficients              100000000
 Omega coefficients                           0
 if combine SR and LR in K                    0
 Integral screening is                        0
 Integral computing path is                   2
 max size of driver memory is            800000
 size of driver memory is                593474
 size of scratch memory is              2260544
 max col of scratch BK array               1296
 max len of scratch array in speh3          155
 max len of scratch index in speh4           18
 max int batch size is                      520
 min int batch size is                       52
 fixed nKL is                                52
 max L of basis functions is                  2
 order of int derivative is                   0
 number of shells is                        176
 number of basis is                         480
 number of cartesian basis is               480
 number of contracted shell pairs         12863
 number of primitive shell pairs          28965
 maxK2 (contraction) of shell pair           36
 max number of K2 of shell pair               1
 max number of CS2 of shell pair           2381
 max number of PS2 of shell pair           4056
 mem total for path MDJ                  161046
 -------------------------------------------------------
 Smallest overlap matrix eigenvalue = 5.96E-07
 Linear dependence detected in AO basis
 Number of orthogonalized atomic orbitals = 463
 Maximum deviation from orthogonality = 1.225E-10

 Scale SEOQF with 1.000000e-01/1.000000e-01/1.000000e-01

 Standard Electronic Orientation quadrupole field applied
 Nucleus-field energy     =     0.0000000345 hartrees
 Guess from superposition of atomic densities
 Warning:  Energy on first SCF cycle will be non-variational
 A restricted hybrid HF-DFT SCF calculation will be
 performed using Pulay DIIS extrapolation
 Exchange:     0.2000 Hartree-Fock + 0.0800 Slater + 0.7200 B88
 Correlation:  0.1900 VWN1RPA + 0.8100 LYP
 Using SG-1 standard quadrature grid
 Dispersion:   Grimme D3
 SCF converges when DIIS error is below 1.0E-08
 -------------------------------------------------------
 OpenMP Integral computing Module                
 Release: version 1.0, May 2013, Q-Chem Inc. Pittsburgh 
 -------------------------------------------------------
 -------------------------------------------------------
 OpenMP BLAS3 based DFT computing Module                
 Release: version 1.0, May 2013, Q-Chem Inc. Pittsburgh 
 -------------------------------------------------------
 ---------------------------------------
  Cycle       Energy         DIIS Error
 ---------------------------------------
    1    -808.4441899996      2.94E-02
    2    -804.8499070009      3.87E-03
    3    -804.2592673191      6.71E-03
    4    -805.1325106390      1.57E-03
    5    -805.1829708819      4.04E-04
    6    -805.1855629504      1.64E-04
    7    -805.1860827325      3.79E-05
    8    -805.1861096827      1.18E-05
    9    -805.1861127565      2.68E-06
   10    -805.1861128536      1.67E-06
   11    -805.1861129041      4.64E-07
   12    -805.1861129083      1.56E-07
   13    -805.1861129087      4.48E-08
   14    -805.1861129087      1.59E-08
   15    -805.1861129088      3.82E-09 Convergence criterion met
 ---------------------------------------
 SCF time:  CPU 1879.37 s  wall 86.43 s
 SCF   energy in the final basis set = -805.1861129088
 Total energy in the final basis set = -805.1861129088
 
 --------------------------------------------------------------
 
                    Orbital Energies (a.u.)
 --------------------------------------------------------------
 
 Alpha MOs
 -- Occupied --
-19.182 -19.170 -19.126 -19.125 -19.114 -10.314 -10.308 -10.237
-10.237 -10.232 -10.222 -10.207 -10.206 -10.177 -10.174 -10.155
 -1.116  -1.104  -1.059  -1.030  -1.020  -0.837  -0.796  -0.785
 -0.746  -0.723  -0.686  -0.651  -0.606  -0.590  -0.572  -0.553
 -0.534  -0.514  -0.504  -0.492  -0.490  -0.484  -0.479  -0.474
 -0.461  -0.436  -0.423  -0.420  -0.417  -0.405  -0.392  -0.379
 -0.373  -0.367  -0.367  -0.360  -0.357  -0.344  -0.335  -0.329
 -0.322  -0.308  -0.293  -0.276  -0.272
 -- Virtual --
 -0.024  -0.013  -0.005  -0.000   0.002   0.010   0.011   0.021
  0.026   0.029   0.035   0.037   0.044   0.046   0.048   0.057
  0.063   0.064   0.072   0.077   0.083   0.086   0.092   0.095
  0.097   0.103   0.106   0.109   0.113   0.114   0.118   0.122
  0.124   0.129   0.132   0.134   0.137   0.138   0.144   0.146
  0.147   0.149   0.153   0.155   0.157   0.160   0.163   0.167
  0.171   0.175   0.178   0.179   0.182   0.186   0.188   0.191
  0.194   0.204   0.205   0.210   0.214   0.217   0.224   0.226
  0.231   0.234   0.239   0.240   0.249   0.254   0.264   0.264
  0.270   0.275   0.280   0.281   0.285   0.295   0.297   0.301
  0.307   0.312   0.315   0.322   0.328   0.329   0.338   0.339
  0.343   0.348   0.354   0.357   0.363   0.365   0.369   0.371
  0.376   0.377   0.382   0.391   0.393   0.398   0.404   0.409
  0.416   0.419   0.428   0.441   0.443   0.461   0.471   0.482
  0.484   0.499   0.509   0.515   0.524   0.528   0.540   0.558
  0.567   0.571   0.581   0.589   0.601   0.606   0.611   0.618
  0.624   0.628   0.637   0.646   0.648   0.655   0.658   0.665
  0.671   0.675   0.680   0.688   0.694   0.703   0.708   0.717
  0.721   0.728   0.731   0.739   0.750   0.759   0.766   0.772
  0.773   0.775   0.788   0.801   0.820   0.823   0.829   0.855
  0.862   0.899   0.925   0.933   0.956   0.974   0.995   1.008
  1.020   1.037   1.045   1.062   1.067   1.072   1.119   1.125
  1.134   1.164   1.185   1.191   1.197   1.210   1.223   1.231
  1.239   1.249   1.250   1.268   1.286   1.289   1.310   1.320
  1.324   1.347   1.357   1.371   1.385   1.397   1.399   1.403
  1.437   1.449   1.452   1.464   1.471   1.484   1.506   1.517
  1.529   1.539   1.545   1.552   1.559   1.574   1.580   1.589
  1.599   1.606   1.608   1.623   1.636   1.640   1.656   1.659
  1.668   1.681   1.693   1.700   1.702   1.714   1.714   1.718
  1.729   1.734   1.754   1.770   1.788   1.791   1.803   1.810
  1.818   1.829   1.849   1.863   1.875   1.897   1.907   1.918
  1.943   1.944   1.957   1.993   2.005   2.008   2.019   2.036
  2.047   2.075   2.081   2.096   2.111   2.115   2.141   2.145
  2.165   2.167   2.180   2.194   2.222   2.230   2.239   2.258
  2.278   2.318   2.331   2.362   2.398   2.421   2.429   2.443
  2.456   2.459   2.484   2.489   2.496   2.508   2.511   2.519
  2.535   2.540   2.555   2.580   2.590   2.599   2.609   2.646
  2.655   2.666   2.694   2.697   2.699   2.721   2.744   2.762
  2.810   2.818   2.819   2.832   2.862   2.874   2.883   2.892
  2.893   2.904   2.911   2.940   2.968   2.982   2.998   3.012
  3.027   3.032   3.057   3.070   3.074   3.083   3.100   3.117
  3.129   3.134   3.163   3.167   3.198   3.227   3.234   3.250
  3.272   3.299   3.319   3.364   3.377   3.386   3.403   3.471
  3.562   3.575   3.597   3.647   3.668   3.705   3.790   3.802
  3.804   3.807   3.819   3.849   3.967   3.973   4.020   4.048
  4.053   4.089   4.117   4.134   4.145   4.173   4.201   4.274
  4.322   4.455   4.514   5.030   5.064   5.113   5.155   5.225
  5.274   5.292   5.390   5.421   5.499   5.620   5.631   5.639
  5.855   5.878  23.787  23.816  23.837  23.872  23.896  23.922
 23.936  23.945  23.972  24.001  24.052  49.900  49.915  49.981
 50.016  50.034
 --------------------------------------------------------------
 
          Ground-State Mulliken Net Atomic Charges

     Atom                 Charge (a.u.)
  ----------------------------------------
      1 C                    -0.017497
      2 C                     0.325338
      3 C                    -0.850565
      4 C                    -0.517624
      5 O                    -0.018783
      6 O                    -0.170496
      7 O                    -0.018757
      8 O                    -0.171277
      9 C                    -0.188689
     10 C                    -0.237261
     11 C                     0.451947
     12 C                    -0.445474
     13 C                    -0.482373
     14 C                    -0.168758
     15 O                    -0.063973
     16 H                     0.288991
     17 H                     0.254545
     18 H                     0.166327
     19 H                     0.184812
     20 H                     0.180583
     21 H                     0.122044
     22 H                     0.174574
     23 H                     0.144686
     24 H                     0.150955
     25 H                     0.196189
     26 H                     0.153631
     27 H                     0.171771
     28 H                     0.283705
     29 C                    -0.410905
     30 H                     0.138467
     31 H                     0.161100
     32 H                     0.212767
  ----------------------------------------
  Sum of atomic charges =     0.000000

 -----------------------------------------------------------------
                    Cartesian Multipole Moments
 -----------------------------------------------------------------
    Charge (ESU x 10^10)
                 0.0000
    Dipole Moment (Debye)
         X      -0.8765      Y       1.9389      Z       3.4922
       Tot       4.0894
    Quadrupole Moments (Debye-Ang)
        XX     -83.8699     XY      -0.4207     YY     -91.5309
        XZ       2.4226     YZ      -4.5907     ZZ    -100.2387
    Octopole Moments (Debye-Ang^2)
       XXX     -47.4380    XXY       5.6465    XYY     -30.3277
       YYY       6.0802    XXZ       0.0044    XYZ       8.5416
       YYZ       5.1590    XZZ      -3.5545    YZZ      -0.2885
       ZZZ       2.2127
    Hexadecapole Moments (Debye-Ang^3)
      XXXX   -2129.1227   XXXY     -47.6446   XXYY    -583.7168
      XYYY      28.5155   YYYY   -1716.6968   XXXZ     -13.6324
      XXYZ     -19.1307   XYYZ       6.9596   YYYZ     -65.1679
      XXZZ    -464.9402   XYZZ     -11.3091   YYZZ    -371.2379
      XZZZ       0.6593   YZZZ       1.5763   ZZZZ    -431.6444
 -----------------------------------------------------------------
 Calculating analytic gradient of the SCF energy
 Gradient of SCF Energy
            1           2           3           4           5           6
    1   0.0163080  -0.0037183   0.0062540  -0.0064889  -0.0055271  -0.0057345
    2  -0.0043693   0.0055493   0.0154941   0.0182086   0.0112755  -0.0200013
    3  -0.0153434   0.0006547   0.0078934   0.0079192   0.0064241  -0.0192864
            7           8           9          10          11          12
    1  -0.0098802   0.0146883   0.0109450   0.0122707  -0.0168627  -0.0025261
    2   0.0009571  -0.0187778   0.0076020  -0.0065886  -0.0017202  -0.0144792
    3   0.0106280  -0.0210264  -0.0010078   0.0037232   0.0094814  -0.0095199
           13          14          15          16          17          18
    1  -0.0064246  -0.0171152   0.0091434   0.0005715   0.0043261   0.0002360
    2   0.0042869  -0.0015665  -0.0013702  -0.0027551  -0.0020687  -0.0015248
    3  -0.0110514   0.0107194   0.0057362   0.0051861   0.0018635   0.0033431
           19          20          21          22          23          24
    1   0.0009861   0.0047771   0.0007736   0.0037757  -0.0001530  -0.0040957
    2   0.0037020  -0.0006203  -0.0016143   0.0065375   0.0010016  -0.0043126
    3  -0.0014783  -0.0015967   0.0006195   0.0009106   0.0010529  -0.0009330
           25          26          27          28          29          30
    1  -0.0036470  -0.0053695  -0.0025207   0.0007644   0.0004010   0.0001084
    2   0.0013089   0.0018320  -0.0006133   0.0052460   0.0002210  -0.0029464
    3  -0.0010749  -0.0023927   0.0032947   0.0013912   0.0153659  -0.0053944
           31          32
    1   0.0021456   0.0015884
    2  -0.0004364   0.0025424
    3   0.0008330  -0.0069349
 Max gradient component =       2.103E-02
 RMS gradient           =       7.909E-03
 Gradient time:  CPU 586.92 s  wall 34.63 s
 Geometry Optimization Parameters
   NAtoms,    NIC,     NZ,  NCons,   NDum,   NFix, NCnnct, MaxDiis
       32     251       0       2       0       0       0       0


** CONSTRAINED OPTIMIZATION IN DELOCALIZED INTERNAL COORDINATES **
   Searching for a Minimum

   Optimization Cycle:   1

                       Coordinates (Angstroms)
     ATOM                X               Y               Z
      1  C        -0.1011848019    0.8054220658    0.6072204492
      2  C         0.6620154878   -0.5364971559    0.5955533906
      3  C        -1.4015644380    0.8875516009   -0.1690949129
      4  C        -0.1410572282   -1.7318799813    0.1194146361
      5  O        -2.1190916287    1.9620046977    0.2792423188
      6  O        -1.7586593461    0.1451011244   -1.0692679610
      7  O        -1.2361871469   -1.8724092621    0.9323420513
      8  O         0.1839039632   -2.5367797787   -0.7380435496
      9  C        -2.0705618232   -2.9788079980    0.5833882767
     10  C        -3.3601324547    2.1543130106   -0.4008725103
     11  C         0.8921947687    1.7507805700   -0.0666573788
     12  C         2.1006898551    1.9956119456    0.8359583888
     13  C         2.8581814059    0.6714609442    0.7228580976
     14  C         1.9353848860   -0.1568246325   -0.1989024928
     15  O         1.4677351984    0.8937269451   -1.0780214566
     16  H        -0.3158357451    1.0989107000    1.6422969653
     17  H         0.9675145382   -0.8059543627    1.6169564177
     18  H        -1.5277085504   -3.9211288805    0.7032368423
     19  H        -3.1925366947    2.3218430413   -1.4693196780
     20  H         2.7207990583    2.8058706669    0.4368664437
     21  H         1.8242280680    2.2474343817    1.8632024401
     22  H         3.8327460722    0.8578355890    0.2561866896
     23  H         3.0366664167    0.1979666648    1.6931015044
     24  H        -2.9267737949   -2.9833521908    1.2640838105
     25  H        -2.4439876414   -2.8714877839   -0.4398988433
     26  H        -3.8403685125    3.0440784321    0.0168317195
     27  H        -4.0212059080    1.2961810682   -0.2403095674
     28  H         0.4702491978    2.6594561976   -0.5026946926
     29  C         2.6945415386   -1.2278384490   -0.9542253256
     30  H         3.6222933193   -0.8229488311   -1.3739312116
     31  H         2.9531506788   -2.0694657777   -0.3064647586
     32  H         2.1281180017   -1.5881402477   -1.8179990175
   Point Group: c1    Number of degrees of freedom:    90


   Energy is   -805.186112909

              Constraints and their Current Values
                                        Value     Constraint
   Dihedral:        2   1   3   5      161.506      162.300
   Dihedral:        1   2   4   7      -58.727      -60.000

 Attempting to Generate Delocalized Internal Coordinates

   Using Lagrange Multiplier Algorithm


 92 Hessian modes will be used to form the next step
  Hessian Eigenvalues:
    -0.977753   -0.977753    0.045000    0.045000    0.045000    0.045000
     0.045000    0.045010    0.045298    0.045515    0.048619    0.059359
     0.061550    0.067521    0.068252    0.070602    0.073231    0.073438
     0.076637    0.079785    0.081436    0.082111    0.083599    0.083601
     0.084460    0.085259    0.090062    0.091363    0.091986    0.097105
     0.108323    0.112588    0.113785    0.113804    0.116926    0.116971
     0.122385    0.127205    0.139525    0.143598    0.160000    0.160000
     0.160000    0.160000    0.160000    0.160000    0.160000    0.160000
     0.160000    0.167195    0.181257    0.244222    0.248535    0.249951
     0.250000    0.250000    0.250000    0.250000    0.252783    0.262190
     0.267687    0.287879    0.290216    0.306804    0.306860    0.308963
     0.329030    0.337223    0.340066    0.340731    0.341491    0.341652
     0.341740    0.342327    0.342899    0.343079    0.343239    0.343448
     0.343570    0.343585    0.343737    0.344460    0.344599    0.345095
     0.411320    0.412508    0.507662    0.514426    0.952633    0.953292
     1.022753    1.022753

 Minimum Search - Taking P-RFO Step
 Searching for Lamda that Maximizes Along the Constraint modes Only
 Value Taken    Lamda =   0.00039646
 Searching for Lamda that Minimizes Along All other modes
 Value Taken    Lamda =  -0.01252881
 Step Taken.  Stepsize is  0.257517

                             Maximum     Tolerance    Cnvgd?
         Gradient            0.026107       0.000300      NO
         Displacement        0.067136       0.000001      NO
         Energy change     *********       0.000001      NO


 New Cartesian Coordinates Obtained by Inverse Iteration

 Displacement from previous Coordinates is:  0.737049
 Adding empirical dispersion correction 
 ----------------------------------------------------------------
 Doing -D3(op) with
 s6 =   1.00000
 s8 =   0.78311
 a1 =   0.30000
 a2 =   4.25000
 n  =  10.00000
 -D3 energy without 3body term =     -0.0355191247 hartrees
 ----------------------------------------------------------------
             Standard Nuclear Orientation (Angstroms)
    I     Atom           X                Y                Z
 ----------------------------------------------------------------
    1      C      -0.0880778963     0.8110742330     0.6215460552
    2      C       0.6852431826    -0.5399082788     0.5908763153
    3      C      -1.3871828506     0.8509508308    -0.1574744656
    4      C      -0.1469721203    -1.7208351710     0.1130676963
    5      O      -2.1426634687     1.9020526333     0.2488950260
    6      O      -1.7208234122     0.1088554109    -1.0461359784
    7      O      -1.2074036075    -1.8742636075     0.9501297169
    8      O       0.1044414057    -2.5068841725    -0.7623479005
    9      C      -2.1142052133    -2.9364506033     0.6223109127
   10      C      -3.3847518187     2.0874724364    -0.4478514135
   11      C       0.9300755128     1.7597508014    -0.0564022264
   12      C       2.1225858020     2.0075612273     0.8863890712
   13      C       2.8799018308     0.6564063551     0.7541787469
   14      C       1.9670646694    -0.1444876113    -0.2193018466
   15      O       1.4911882849     0.9170886994    -1.0821948956
   16      H      -0.3104096325     1.1210799082     1.6436865415
   17      H       0.9905662930    -0.8223390134     1.6032008079
   18      H      -1.6152450272    -3.9057902970     0.6735330338
   19      H      -3.2154411172     2.2483525013    -1.5137763025
   20      H       2.7314051579     2.8316007646     0.5103509178
   21      H       1.8193756763     2.2546833439     1.9071828536
   22      H       3.8545063474     0.8155393284     0.2918508256
   23      H       3.0431976952     0.1467619201     1.7078403594
   24      H      -2.9066450175    -2.8882301239     1.3690427635
   25      H      -2.5333417742    -2.7852269691    -0.3735652854
   26      H      -3.8401964158     2.9740840662    -0.0077150648
   27      H      -4.0395967343     1.2261127539    -0.3052091068
   28      H       0.5008822962     2.6541962858    -0.5017126630
   29      C       2.7083681806    -1.1969473927    -1.0152090426
   30      H       3.6338462077    -0.7636139054    -1.4063951664
   31      H       2.9607067175    -2.0549701636    -0.3902116508
   32      H       2.1231575859    -1.5416418767    -1.8655415486
 ----------------------------------------------------------------
 Molecular Point Group                 C1    NOp =  1
 Largest Abelian Subgroup              C1    NOp =  1
 Nuclear Repulsion Energy =  1248.0031417815 hartrees
 There are       61 alpha and       61 beta electrons
 Applying Cartesian multipole field
    Component          Value
    ---------          -----
     (2,0,0)        1.00000E-11
     (0,2,0)        2.00000E-11
     (0,0,2)       -3.00000E-11
 Nucleus-field energy     =     0.0000000337 hartrees
 Requested basis set is 6-311++G(d,p)
 There are 176 shells and 464 basis functions
 A cutoff of  1.0D-12 yielded  12862 shell pairs
 There are     90941 function pairs (     96991 Cartesian)
 Smallest overlap matrix eigenvalue = 6.21E-07
 Linear dependence detected in AO basis
 Number of orthogonalized atomic orbitals = 463
 Maximum deviation from orthogonality = 1.323E-10
 Guess MOs from SCF MO coefficient file
 Reading MOs from coefficient file
 Reading MOs from coefficient file
 A restricted hybrid HF-DFT SCF calculation will be
 performed using Pulay DIIS extrapolation
 Exchange:     0.2000 Hartree-Fock + 0.0800 Slater + 0.7200 B88
 Correlation:  0.1900 VWN1RPA + 0.8100 LYP
 Using SG-1 standard quadrature grid
 Dispersion:   Grimme D3
 SCF converges when DIIS error is below 1.0E-08
 Geometry optimization detected.  Setting ReadMinima to 0
 Setting SaveMinima to 0
 -------------------------------------------------------
 OpenMP Integral computing Module                
 Release: version 1.0, May 2013, Q-Chem Inc. Pittsburgh 
 -------------------------------------------------------
 -------------------------------------------------------
 OpenMP BLAS3 based DFT computing Module                
 Release: version 1.0, May 2013, Q-Chem Inc. Pittsburgh 
 -------------------------------------------------------
 ---------------------------------------
  Cycle       Energy         DIIS Error
 ---------------------------------------
    1    -805.2017141071      1.17E-03
    2    -805.1919620950      1.97E-04
    3    -805.1914040984      2.67E-04
    4    -805.1928271392      4.77E-05
    5    -805.1928644424      1.35E-05
    6    -805.1928680938      4.33E-06
    7    -805.1928683065      2.97E-06
    8    -805.1928684720      6.64E-07
    9    -805.1928684807      2.03E-07
   10    -805.1928684814      5.99E-08
   11    -805.1928684814      2.01E-08
   12    -805.1928684815      9.67E-09 Convergence criterion met
 ---------------------------------------
 SCF time:  CPU 1548.42 s  wall 71.82 s
 SCF   energy in the final basis set = -805.1928684815
 Total energy in the final basis set = -805.1928684815
 
 --------------------------------------------------------------
 
                    Orbital Energies (a.u.)
 --------------------------------------------------------------
 
 Alpha MOs
 -- Occupied --
-19.177 -19.164 -19.129 -19.120 -19.109 -10.309 -10.303 -10.239
-10.238 -10.232 -10.221 -10.207 -10.205 -10.181 -10.177 -10.156
 -1.118  -1.106  -1.058  -1.032  -1.020  -0.833  -0.793  -0.781
 -0.747  -0.723  -0.687  -0.651  -0.604  -0.592  -0.570  -0.552
 -0.532  -0.511  -0.503  -0.491  -0.489  -0.482  -0.477  -0.470
 -0.458  -0.436  -0.424  -0.420  -0.417  -0.407  -0.394  -0.378
 -0.372  -0.368  -0.367  -0.360  -0.357  -0.349  -0.335  -0.329
 -0.320  -0.305  -0.291  -0.275  -0.272
 -- Virtual --
 -0.020  -0.011  -0.004   0.001   0.007   0.010   0.013   0.021
  0.026   0.030   0.035   0.038   0.044   0.047   0.048   0.057
  0.064   0.065   0.072   0.077   0.083   0.086   0.091   0.095
  0.097   0.102   0.105   0.109   0.112   0.115   0.119   0.123
  0.125   0.129   0.132   0.134   0.137   0.139   0.144   0.145
  0.147   0.149   0.153   0.156   0.156   0.159   0.163   0.167
  0.172   0.173   0.177   0.179   0.183   0.186   0.188   0.190
  0.195   0.203   0.205   0.209   0.213   0.215   0.221   0.226
  0.231   0.232   0.239   0.240   0.247   0.252   0.261   0.267
  0.270   0.276   0.279   0.281   0.284   0.295   0.297   0.303
  0.310   0.312   0.318   0.321   0.326   0.329   0.337   0.338
  0.345   0.347   0.354   0.357   0.364   0.365   0.369   0.371
  0.375   0.379   0.385   0.389   0.393   0.401   0.405   0.407
  0.415   0.421   0.428   0.440   0.441   0.461   0.471   0.478
  0.487   0.499   0.507   0.521   0.527   0.527   0.540   0.557
  0.566   0.572   0.581   0.590   0.600   0.606   0.612   0.618
  0.623   0.628   0.636   0.646   0.647   0.653   0.659   0.666
  0.670   0.673   0.678   0.690   0.697   0.704   0.709   0.719
  0.721   0.728   0.731   0.744   0.750   0.762   0.767   0.772
  0.774   0.777   0.791   0.801   0.818   0.825   0.829   0.853
  0.865   0.897   0.922   0.932   0.958   0.973   1.000   1.008
  1.020   1.040   1.045   1.060   1.069   1.080   1.118   1.126
  1.135   1.164   1.189   1.195   1.196   1.211   1.221   1.234
  1.240   1.249   1.255   1.273   1.288   1.291   1.315   1.323
  1.327   1.352   1.358   1.371   1.390   1.403   1.404   1.412
  1.435   1.451   1.457   1.465   1.470   1.477   1.501   1.517
  1.521   1.535   1.544   1.551   1.560   1.570   1.580   1.583
  1.590   1.597   1.604   1.623   1.626   1.638   1.657   1.659
  1.668   1.678   1.696   1.699   1.708   1.712   1.719   1.721
  1.730   1.737   1.755   1.770   1.790   1.792   1.803   1.806
  1.813   1.828   1.852   1.864   1.879   1.900   1.902   1.919
  1.935   1.942   1.955   1.990   2.000   2.003   2.017   2.030
  2.041   2.067   2.076   2.096   2.105   2.114   2.137   2.144
  2.162   2.169   2.176   2.187   2.220   2.227   2.245   2.257
  2.275   2.315   2.324   2.352   2.399   2.421   2.436   2.451
  2.461   2.465   2.487   2.496   2.502   2.513   2.515   2.526
  2.539   2.544   2.554   2.577   2.594   2.602   2.609   2.643
  2.645   2.662   2.686   2.694   2.700   2.719   2.741   2.760
  2.806   2.817   2.819   2.826   2.860   2.867   2.875   2.883
  2.889   2.902   2.906   2.940   2.971   2.972   3.009   3.015
  3.020   3.032   3.053   3.066   3.071   3.073   3.103   3.119
  3.122   3.130   3.156   3.170   3.210   3.227   3.233   3.253
  3.263   3.295   3.314   3.358   3.375   3.388   3.422   3.464
  3.580   3.596   3.610   3.658   3.680   3.728   3.777   3.797
  3.826   3.830   3.837   3.849   3.944   3.963   4.012   4.049
  4.071   4.104   4.109   4.122   4.142   4.168   4.189   4.252
  4.300   4.425   4.495   5.032   5.070   5.125   5.165   5.220
  5.285   5.305   5.384   5.422   5.493   5.619   5.634   5.642
  5.881   5.899  23.788  23.837  23.847  23.885  23.897  23.925
 23.940  23.950  23.968  23.996  24.038  49.903  49.920  49.979
 50.034  50.051
 --------------------------------------------------------------
 
          Ground-State Mulliken Net Atomic Charges

     Atom                 Charge (a.u.)
  ----------------------------------------
      1 C                    -0.008998
      2 C                     0.319933
      3 C                    -0.847156
      4 C                    -0.478407
      5 O                    -0.025613
      6 O                    -0.183468
      7 O                    -0.022200
      8 O                    -0.185485
      9 C                    -0.186379
     10 C                    -0.237611
     11 C                     0.455543
     12 C                    -0.454730
     13 C                    -0.464588
     14 C                    -0.223793
     15 O                    -0.060292
     16 H                     0.287628
     17 H                     0.253712
     18 H                     0.164780
     19 H                     0.184937
     20 H                     0.182321
     21 H                     0.123182
     22 H                     0.169939
     23 H                     0.144549
     24 H                     0.148503
     25 H                     0.192723
     26 H                     0.151123
     27 H                     0.171086
     28 H                     0.281885
     29 C                    -0.363952
     30 H                     0.137805
     31 H                     0.160129
     32 H                     0.212894
  ----------------------------------------
  Sum of atomic charges =     0.000000

 -----------------------------------------------------------------
                    Cartesian Multipole Moments
 -----------------------------------------------------------------
    Charge (ESU x 10^10)
                 0.0000
    Dipole Moment (Debye)
         X      -0.8232      Y       1.9746      Z       3.4478
       Tot       4.0576
    Quadrupole Moments (Debye-Ang)
        XX     -83.1260     XY      -0.5917     YY     -91.7260
        XZ       2.6025     YZ      -4.4742     ZZ    -100.0564
    Octopole Moments (Debye-Ang^2)
       XXX     -50.2579    XXY       4.5892    XYY     -28.6379
       YYY       6.5782    XXZ      -0.7230    XYZ       9.5016
       YYZ       6.0078    XZZ      -4.7316    YZZ       0.7612
       ZZZ       1.9861
    Hexadecapole Moments (Debye-Ang^3)
      XXXX   -2152.8832   XXXY     -62.7443   XXYY    -585.9285
      XYYY      13.0275   YYYY   -1672.9465   XXXZ     -10.4571
      XXYZ     -20.7202   XYYZ       6.1112   YYYZ     -60.8046
      XXZZ    -469.6623   XYZZ     -16.9116   YYZZ    -367.1336
      XZZZ      -0.3662   YZZZ       1.0820   ZZZZ    -445.8744
 -----------------------------------------------------------------
 Calculating analytic gradient of the SCF energy
 Gradient of SCF Energy
            1           2           3           4           5           6
    1   0.0055914  -0.0015706   0.0027494  -0.0004106  -0.0034826  -0.0011249
    2  -0.0012546   0.0011601   0.0001377   0.0081418   0.0019532  -0.0007767
    3  -0.0064828   0.0052688   0.0012953  -0.0027671  -0.0007744  -0.0001813
            7           8           9          10          11          12
    1  -0.0018081  -0.0011522   0.0035526   0.0035258  -0.0063936  -0.0011283
    2  -0.0025308  -0.0036756   0.0009789  -0.0029982   0.0010979  -0.0002949
    3  -0.0003580   0.0008212  -0.0012040   0.0001590   0.0049851  -0.0002010
           13          14          15          16          17          18
    1  -0.0000001  -0.0047667   0.0040444  -0.0003292   0.0025177  -0.0006609
    2  -0.0004852  -0.0006395  -0.0019929  -0.0013575  -0.0019341  -0.0004548
    3  -0.0037579   0.0022242  -0.0052940   0.0010084  -0.0003710   0.0011312
           19          20          21          22          23          24
    1  -0.0005994   0.0006453   0.0007303  -0.0002499   0.0010304  -0.0009608
    2   0.0013737  -0.0002321   0.0011108   0.0014243  -0.0001254  -0.0005750
    3  -0.0000394  -0.0001341   0.0007872   0.0007212   0.0007649   0.0000038
           25          26          27          28          29          30
    1  -0.0012770  -0.0010596  -0.0009368   0.0011642   0.0000419  -0.0001717
    2   0.0001427   0.0005610   0.0006577   0.0005501  -0.0021176   0.0000512
    3   0.0005210  -0.0004071   0.0007851   0.0005798   0.0052439  -0.0017874
           31          32
    1   0.0002978   0.0021918
    2   0.0005558   0.0015481
    3  -0.0001177  -0.0024230
 Max gradient component =       8.142E-03
 RMS gradient           =       2.307E-03
 Gradient time:  CPU 590.70 s  wall 33.21 s
 Geometry Optimization Parameters
   NAtoms,    NIC,     NZ,  NCons,   NDum,   NFix, NCnnct, MaxDiis
       32     251       0       2       0       0       0       0

 Cartesian Hessian Update
 Hessian Updated using BFGS Update


** CONSTRAINED OPTIMIZATION IN DELOCALIZED INTERNAL COORDINATES **
   Searching for a Minimum

   Optimization Cycle:   2

                       Coordinates (Angstroms)
     ATOM                X               Y               Z
      1  C        -0.0880778963    0.8110742330    0.6215460552
      2  C         0.6852431826   -0.5399082788    0.5908763153
      3  C        -1.3871828506    0.8509508308   -0.1574744656
      4  C        -0.1469721203   -1.7208351710    0.1130676963
      5  O        -2.1426634687    1.9020526333    0.2488950260
      6  O        -1.7208234122    0.1088554109   -1.0461359784
      7  O        -1.2074036075   -1.8742636075    0.9501297169
      8  O         0.1044414057   -2.5068841725   -0.7623479005
      9  C        -2.1142052133   -2.9364506033    0.6223109127
     10  C        -3.3847518187    2.0874724364   -0.4478514135
     11  C         0.9300755128    1.7597508014   -0.0564022264
     12  C         2.1225858020    2.0075612273    0.8863890712
     13  C         2.8799018308    0.6564063551    0.7541787469
     14  C         1.9670646694   -0.1444876113   -0.2193018466
     15  O         1.4911882849    0.9170886994   -1.0821948956
     16  H        -0.3104096325    1.1210799082    1.6436865415
     17  H         0.9905662930   -0.8223390134    1.6032008079
     18  H        -1.6152450272   -3.9057902970    0.6735330338
     19  H        -3.2154411172    2.2483525013   -1.5137763025
     20  H         2.7314051579    2.8316007646    0.5103509178
     21  H         1.8193756763    2.2546833439    1.9071828536
     22  H         3.8545063474    0.8155393284    0.2918508256
     23  H         3.0431976952    0.1467619201    1.7078403594
     24  H        -2.9066450175   -2.8882301239    1.3690427635
     25  H        -2.5333417742   -2.7852269691   -0.3735652854
     26  H        -3.8401964158    2.9740840662   -0.0077150648
     27  H        -4.0395967343    1.2261127539   -0.3052091068
     28  H         0.5008822962    2.6541962858   -0.5017126630
     29  C         2.7083681806   -1.1969473927   -1.0152090426
     30  H         3.6338462077   -0.7636139054   -1.4063951664
     31  H         2.9607067175   -2.0549701636   -0.3902116508
     32  H         2.1231575859   -1.5416418767   -1.8655415486
   Point Group: c1    Number of degrees of freedom:    90


   Energy is   -805.192868481

              Constraints and their Current Values
                                        Value     Constraint
   Dihedral:        2   1   3   5      162.293      162.300
   Dihedral:        1   2   4   7      -59.994      -60.000
 Hessian Updated using BFGS Update

   Using Lagrange Multiplier Algorithm


 80 Hessian modes will be used to form the next step
  Hessian Eigenvalues:
    -0.977828   -0.977299    0.043547    0.045004    0.045026    0.045126
     0.045526    0.048498    0.058687    0.061539    0.066201    0.068257
     0.070601    0.072537    0.073273    0.076606    0.079120    0.080476
     0.082034    0.082766    0.083626    0.084461    0.085307    0.089942
     0.090574    0.091963    0.096276    0.107354    0.110351    0.113628
     0.113795    0.116928    0.116974    0.122910    0.127313    0.139837
     0.142053    0.156560    0.161172    0.174024    0.181084    0.243254
     0.247459    0.249436    0.249957    0.251139    0.260875    0.262289
     0.277969    0.288849    0.293010    0.306826    0.307518    0.309035
     0.328636    0.336874    0.339757    0.340748    0.341394    0.341659
     0.342243    0.342759    0.342979    0.343098    0.343306    0.343465
     0.343553    0.343695    0.344316    0.344545    0.344928    0.354514
     0.411042    0.411983    0.505860    0.512108    0.951535    0.953726
     1.022736    1.025018

 Minimum Search - Taking P-RFO Step
 Searching for Lamda that Maximizes Along the Constraint modes Only
 Value Taken    Lamda =   0.00000748
 Searching for Lamda that Minimizes Along All other modes
 Value Taken    Lamda =  -0.00152047
 Step Taken.  Stepsize is  0.141765

                             Maximum     Tolerance    Cnvgd?
         Gradient            0.003155       0.000300      NO
         Displacement        0.053565       0.000001      NO
         Energy change     -0.006756       0.000001      NO


 New Cartesian Coordinates Obtained by Inverse Iteration

 Displacement from previous Coordinates is:  0.251901
 Adding empirical dispersion correction 
 ----------------------------------------------------------------
 Doing -D3(op) with
 s6 =   1.00000
 s8 =   0.78311
 a1 =   0.30000
 a2 =   4.25000
 n  =  10.00000
 -D3 energy without 3body term =     -0.0356071762 hartrees
 ----------------------------------------------------------------
             Standard Nuclear Orientation (Angstroms)
    I     Atom           X                Y                Z
 ----------------------------------------------------------------
    1      C      -0.0947078026     0.8189344181     0.6308861291
    2      C       0.6871157981    -0.5349155269     0.5993024840
    3      C      -1.3886180874     0.8516580024    -0.1555406614
    4      C      -0.1266553419    -1.7295053481     0.1254649910
    5      O      -2.1446857800     1.8964177846     0.2526810174
    6      O      -1.7111649892     0.1142095180    -1.0493028075
    7      O      -1.1814845446    -1.8911691159     0.9639664344
    8      O       0.1334148672    -2.4935448798    -0.7631434133
    9      C      -2.0976080457    -2.9426766362     0.6220464982
   10      C      -3.3811682863     2.0937901454    -0.4555880580
   11      C       0.9319897944     1.7629216523    -0.0574316485
   12      C       2.1233833051     2.0109396970     0.8886972995
   13      C       2.8785448129     0.6547986601     0.7605460905
   14      C       1.9653686586    -0.1406106332    -0.2190644157
   15      O       1.4799670395     0.9184725435    -1.0772110044
   16      H      -0.3180290916     1.1406739758     1.6473822799
   17      H       0.9841000826    -0.8061451298     1.6150098890
   18      H      -1.5969694650    -3.9116987462     0.6428459259
   19      H      -3.1932309071     2.2574721062    -1.5173993647
   20      H       2.7297149188     2.8370526789     0.5155015881
   21      H       1.8105541071     2.2559460676     1.9056451429
   22      H       3.8549943109     0.7979714165     0.2969781906
   23      H       3.0320174836     0.1404238076     1.7114795041
   24      H      -2.8800389853    -2.9003055758     1.3774153067
   25      H      -2.5118211234    -2.7679260426    -0.3715652969
   26      H      -3.8332074784     2.9748230421    -0.0050660518
   27      H      -4.0311023923     1.2260539140    -0.3354739466
   28      H       0.4954568384     2.6499049576    -0.5102806632
   29      C       2.6808642964    -1.2017515506    -1.0244458223
   30      H       3.6076031528    -0.7818183942    -1.4242517912
   31      H       2.9270865476    -2.0612534054    -0.3980578005
   32      H       2.0618730467    -1.5471090890    -1.8489889394
 ----------------------------------------------------------------
 Molecular Point Group                 C1    NOp =  1
 Largest Abelian Subgroup              C1    NOp =  1
 Nuclear Repulsion Energy =  1248.8699753884 hartrees
 There are       61 alpha and       61 beta electrons
 Applying Cartesian multipole field
    Component          Value
    ---------          -----
     (2,0,0)        1.00000E-11
     (0,2,0)        2.00000E-11
     (0,0,2)       -3.00000E-11
 Nucleus-field energy     =     0.0000000335 hartrees
 Requested basis set is 6-311++G(d,p)
 There are 176 shells and 464 basis functions
 A cutoff of  1.0D-12 yielded  12882 shell pairs
 There are     91074 function pairs (     97130 Cartesian)
 Smallest overlap matrix eigenvalue = 6.28E-07
 Linear dependence detected in AO basis
 Number of orthogonalized atomic orbitals = 463
 Maximum deviation from orthogonality = 1.940E-10
 Guess MOs from SCF MO coefficient file
 Reading MOs from coefficient file
 Reading MOs from coefficient file
 A restricted hybrid HF-DFT SCF calculation will be
 performed using Pulay DIIS extrapolation
 Exchange:     0.2000 Hartree-Fock + 0.0800 Slater + 0.7200 B88
 Correlation:  0.1900 VWN1RPA + 0.8100 LYP
 Using SG-1 standard quadrature grid
 Dispersion:   Grimme D3
 SCF converges when DIIS error is below 1.0E-08
 Geometry optimization detected.  Setting ReadMinima to 0
 Setting SaveMinima to 0
 -------------------------------------------------------
 OpenMP Integral computing Module                
 Release: version 1.0, May 2013, Q-Chem Inc. Pittsburgh 
 -------------------------------------------------------
 -------------------------------------------------------
 OpenMP BLAS3 based DFT computing Module                
 Release: version 1.0, May 2013, Q-Chem Inc. Pittsburgh 
 -------------------------------------------------------
 ---------------------------------------
  Cycle       Energy         DIIS Error
 ---------------------------------------
    1    -805.2069855525      4.50E-04
    2    -805.1936058686      5.93E-05
    3    -805.1935882341      7.04E-05
    4    -805.1936942582      1.56E-05
    5    -805.1936979721      6.61E-06
    6    -805.1936987383      2.17E-06
    7    -805.1936988123      1.03E-06
    8    -805.1936988326      2.03E-07
    9    -805.1936988335      5.97E-08
   10    -805.1936988334      1.94E-08
   11    -805.1936988335      1.03E-08
   12    -805.1936988334      3.45E-09 Convergence criterion met
 ---------------------------------------
 SCF time:  CPU 1495.22 s  wall 69.67 s
 SCF   energy in the final basis set = -805.1936988334
 Total energy in the final basis set = -805.1936988334
 
 --------------------------------------------------------------
 
                    Orbital Energies (a.u.)
 --------------------------------------------------------------
 
 Alpha MOs
 -- Occupied --
-19.177 -19.164 -19.128 -19.119 -19.110 -10.308 -10.302 -10.238
-10.237 -10.232 -10.221 -10.206 -10.203 -10.181 -10.177 -10.154
 -1.119  -1.107  -1.060  -1.032  -1.023  -0.831  -0.793  -0.780
 -0.748  -0.723  -0.686  -0.650  -0.603  -0.593  -0.569  -0.552
 -0.532  -0.510  -0.503  -0.491  -0.489  -0.482  -0.477  -0.471
 -0.458  -0.435  -0.425  -0.420  -0.417  -0.407  -0.394  -0.377
 -0.373  -0.369  -0.366  -0.359  -0.358  -0.349  -0.335  -0.328
 -0.320  -0.306  -0.290  -0.275  -0.271
 -- Virtual --
 -0.019  -0.010  -0.004   0.001   0.008   0.011   0.013   0.021
  0.026   0.030   0.035   0.038   0.044   0.047   0.048   0.057
  0.064   0.065   0.073   0.077   0.083   0.087   0.091   0.095
  0.097   0.102   0.105   0.109   0.112   0.115   0.119   0.123
  0.125   0.129   0.132   0.134   0.138   0.139   0.145   0.146
  0.147   0.150   0.154   0.155   0.156   0.159   0.164   0.167
  0.172   0.173   0.177   0.180   0.183   0.187   0.188   0.190
  0.195   0.203   0.205   0.208   0.213   0.216   0.220   0.226
  0.232   0.233   0.240   0.241   0.247   0.252   0.261   0.268
  0.271   0.277   0.279   0.281   0.284   0.295   0.297   0.304
  0.310   0.312   0.319   0.321   0.326   0.330   0.337   0.338
  0.345   0.348   0.354   0.357   0.364   0.366   0.370   0.371
  0.375   0.380   0.385   0.390   0.394   0.402   0.405   0.408
  0.415   0.422   0.428   0.439   0.440   0.462   0.470   0.475
  0.487   0.500   0.506   0.523   0.528   0.529   0.541   0.557
  0.567   0.572   0.582   0.591   0.599   0.607   0.613   0.618
  0.624   0.629   0.635   0.646   0.648   0.652   0.658   0.667
  0.670   0.675   0.677   0.691   0.698   0.704   0.710   0.720
  0.722   0.728   0.731   0.744   0.753   0.762   0.769   0.773
  0.776   0.778   0.790   0.801   0.818   0.825   0.831   0.855
  0.865   0.898   0.921   0.934   0.958   0.977   1.002   1.009
  1.020   1.042   1.045   1.061   1.071   1.083   1.117   1.128
  1.133   1.163   1.187   1.195   1.199   1.211   1.220   1.232
  1.238   1.247   1.255   1.273   1.288   1.289   1.314   1.323
  1.329   1.353   1.360   1.373   1.392   1.403   1.407   1.412
  1.432   1.450   1.459   1.464   1.470   1.479   1.506   1.515
  1.522   1.532   1.544   1.549   1.559   1.569   1.579   1.584
  1.591   1.599   1.604   1.624   1.626   1.638   1.657   1.662
  1.667   1.678   1.695   1.700   1.708   1.714   1.719   1.721
  1.730   1.740   1.756   1.770   1.792   1.795   1.806   1.806
  1.813   1.827   1.852   1.868   1.877   1.900   1.900   1.919
  1.935   1.943   1.953   1.987   1.999   2.003   2.020   2.025
  2.039   2.066   2.075   2.096   2.103   2.110   2.137   2.142
  2.163   2.169   2.174   2.187   2.223   2.229   2.248   2.258
  2.272   2.314   2.323   2.348   2.401   2.422   2.439   2.450
  2.464   2.467   2.489   2.500   2.505   2.515   2.518   2.531
  2.541   2.546   2.556   2.577   2.595   2.604   2.611   2.645
  2.645   2.663   2.686   2.694   2.700   2.719   2.742   2.760
  2.805   2.816   2.821   2.828   2.860   2.863   2.874   2.880
  2.891   2.900   2.905   2.938   2.973   2.974   3.013   3.015
  3.020   3.031   3.053   3.063   3.073   3.075   3.104   3.117
  3.126   3.132   3.155   3.175   3.213   3.228   3.236   3.252
  3.269   3.298   3.317   3.361   3.373   3.388   3.424   3.464
  3.583   3.600   3.611   3.661   3.685   3.727   3.773   3.793
  3.830   3.838   3.841   3.860   3.942   3.968   4.013   4.048
  4.070   4.105   4.111   4.121   4.139   4.168   4.189   4.254
  4.296   4.423   4.494   5.034   5.074   5.123   5.163   5.219
  5.286   5.307   5.385   5.424   5.496   5.627   5.637   5.649
  5.885   5.901  23.791  23.841  23.851  23.889  23.899  23.925
 23.940  23.952  23.971  23.997  24.037  49.905  49.920  49.981
 50.036  50.052
 --------------------------------------------------------------
 
          Ground-State Mulliken Net Atomic Charges

     Atom                 Charge (a.u.)
  ----------------------------------------
      1 C                    -0.001430
      2 C                     0.293288
      3 C                    -0.847723
      4 C                    -0.443946
      5 O                    -0.023149
      6 O                    -0.188355
      7 O                    -0.021729
      8 O                    -0.185647
      9 C                    -0.182645
     10 C                    -0.235256
     11 C                     0.452196
     12 C                    -0.454260
     13 C                    -0.456282
     14 C                    -0.249266
     15 O                    -0.055991
     16 H                     0.286445
     17 H                     0.253332
     18 H                     0.164657
     19 H                     0.185039
     20 H                     0.183198
     21 H                     0.122058
     22 H                     0.168712
     23 H                     0.144171
     24 H                     0.148585
     25 H                     0.191452
     26 H                     0.150572
     27 H                     0.171351
     28 H                     0.279710
     29 C                    -0.359590
     30 H                     0.137850
     31 H                     0.160794
     32 H                     0.211860
  ----------------------------------------
  Sum of atomic charges =     0.000000

 -----------------------------------------------------------------
                    Cartesian Multipole Moments
 -----------------------------------------------------------------
    Charge (ESU x 10^10)
                 0.0000
    Dipole Moment (Debye)
         X      -0.9056      Y       1.9307      Z       3.4215
       Tot       4.0316
    Quadrupole Moments (Debye-Ang)
        XX     -83.2840     XY      -0.5504     YY     -91.4287
        XZ       2.6346     YZ      -4.3984     ZZ    -100.0733
    Octopole Moments (Debye-Ang^2)
       XXX     -51.3535    XXY       4.6855    XYY     -29.3217
       YYY       5.9414    XXZ      -0.8642    XYZ       9.2744
       YYZ       5.5390    XZZ      -5.2683    YZZ       0.8660
       ZZZ       1.5343
    Hexadecapole Moments (Debye-Ang^3)
      XXXX   -2139.9858   XXXY     -60.2409   XXYY    -584.8261
      XYYY      15.2679   YYYY   -1673.5046   XXXZ     -11.6060
      XXYZ     -21.0813   XYYZ       5.6110   YYYZ     -58.5493
      XXZZ    -467.5405   XYZZ     -15.4748   YYZZ    -368.2640
      XZZZ      -1.6364   YZZZ       1.5841   ZZZZ    -449.2154
 -----------------------------------------------------------------
 Calculating analytic gradient of the SCF energy
 Gradient of SCF Energy
            1           2           3           4           5           6
    1   0.0016088  -0.0002091  -0.0007185   0.0001050  -0.0006234   0.0003972
    2   0.0014860  -0.0005350  -0.0011342  -0.0002988  -0.0002874   0.0019370
    3  -0.0022975   0.0042197  -0.0016484  -0.0040814  -0.0008953   0.0023967
            7           8           9          10          11          12
    1  -0.0007367   0.0009640   0.0008316   0.0006111  -0.0019658  -0.0007223
    2  -0.0008459   0.0014418   0.0003003  -0.0006635   0.0015566   0.0010729
    3   0.0001469   0.0021741  -0.0001421  -0.0000022   0.0027405   0.0011029
           13          14          15          16          17          18
    1   0.0000622  -0.0013455   0.0008591  -0.0004356   0.0009199  -0.0000656
    2  -0.0008761  -0.0000299  -0.0012002  -0.0005633  -0.0014317   0.0001924
    3   0.0002253  -0.0012202  -0.0033183  -0.0000513  -0.0011527   0.0001473
           19          20          21          22          23          24
    1  -0.0000669  -0.0001874   0.0003139  -0.0006711   0.0008266   0.0000979
    2   0.0000380  -0.0002092   0.0008822  -0.0000843  -0.0001536   0.0003703
    3   0.0002174  -0.0000680  -0.0000986   0.0000094   0.0000297   0.0001950
           25          26          27          28          29          30
    1   0.0001275   0.0002204   0.0000851   0.0003658  -0.0004596  -0.0001591
    2  -0.0000194   0.0000628   0.0002332  -0.0005025  -0.0019700   0.0002762
    3   0.0002672   0.0001647   0.0000582  -0.0001980   0.0021893  -0.0001975
           31          32
    1  -0.0003349   0.0003057
    2   0.0002511   0.0007043
    3  -0.0000535  -0.0008594
 Max gradient component =       4.220E-03
 RMS gradient           =       1.134E-03
 Gradient time:  CPU 579.64 s  wall 32.50 s
 Geometry Optimization Parameters
   NAtoms,    NIC,     NZ,  NCons,   NDum,   NFix, NCnnct, MaxDiis
       32     251       0       2       0       0       0       0

 Cartesian Hessian Update
 Hessian Updated using BFGS Update


** CONSTRAINED OPTIMIZATION IN DELOCALIZED INTERNAL COORDINATES **
   Searching for a Minimum

   Optimization Cycle:   3

                       Coordinates (Angstroms)
     ATOM                X               Y               Z
      1  C        -0.0947078026    0.8189344181    0.6308861291
      2  C         0.6871157981   -0.5349155269    0.5993024840
      3  C        -1.3886180874    0.8516580024   -0.1555406614
      4  C        -0.1266553419   -1.7295053481    0.1254649910
      5  O        -2.1446857800    1.8964177846    0.2526810174
      6  O        -1.7111649892    0.1142095180   -1.0493028075
      7  O        -1.1814845446   -1.8911691159    0.9639664344
      8  O         0.1334148672   -2.4935448798   -0.7631434133
      9  C        -2.0976080457   -2.9426766362    0.6220464982
     10  C        -3.3811682863    2.0937901454   -0.4555880580
     11  C         0.9319897944    1.7629216523   -0.0574316485
     12  C         2.1233833051    2.0109396970    0.8886972995
     13  C         2.8785448129    0.6547986601    0.7605460905
     14  C         1.9653686586   -0.1406106332   -0.2190644157
     15  O         1.4799670395    0.9184725435   -1.0772110044
     16  H        -0.3180290916    1.1406739758    1.6473822799
     17  H         0.9841000826   -0.8061451298    1.6150098890
     18  H        -1.5969694650   -3.9116987462    0.6428459259
     19  H        -3.1932309071    2.2574721062   -1.5173993647
     20  H         2.7297149188    2.8370526789    0.5155015881
     21  H         1.8105541071    2.2559460676    1.9056451429
     22  H         3.8549943109    0.7979714165    0.2969781906
     23  H         3.0320174836    0.1404238076    1.7114795041
     24  H        -2.8800389853   -2.9003055758    1.3774153067
     25  H        -2.5118211234   -2.7679260426   -0.3715652969
     26  H        -3.8332074784    2.9748230421   -0.0050660518
     27  H        -4.0311023923    1.2260539140   -0.3354739466
     28  H         0.4954568384    2.6499049576   -0.5102806632
     29  C         2.6808642964   -1.2017515506   -1.0244458223
     30  H         3.6076031528   -0.7818183942   -1.4242517912
     31  H         2.9270865476   -2.0612534054   -0.3980578005
     32  H         2.0618730467   -1.5471090890   -1.8489889394
   Point Group: c1    Number of degrees of freedom:    90


   Energy is   -805.193698833

              Constraints and their Current Values
                                        Value     Constraint
   Dihedral:        2   1   3   5      162.300      162.300
   Dihedral:        1   2   4   7      -60.000      -60.000
 Hessian Updated using BFGS Update

   Using Lagrange Multiplier Algorithm


 83 Hessian modes will be used to form the next step
  Hessian Eigenvalues:
    -0.977779   -0.975263    0.032344    0.045002    0.045004    0.045084
     0.045111    0.045523    0.048414    0.055527    0.061549    0.063359
     0.068257    0.070569    0.072850    0.073487    0.076277    0.079565
     0.080328    0.082033    0.082504    0.083841    0.084583    0.085378
     0.090018    0.091737    0.092152    0.096795    0.109834    0.111952
     0.113794    0.115818    0.116928    0.116974    0.122804    0.128100
     0.141019    0.143747    0.157353    0.160145    0.162430    0.175589
     0.187020    0.245434    0.247329    0.249855    0.249983    0.250366
     0.253379    0.262156    0.266849    0.276410    0.290224    0.300610
     0.306808    0.308586    0.324659    0.326942    0.338333    0.339384
     0.340721    0.341245    0.341620    0.342105    0.342545    0.342944
     0.343106    0.343355    0.343474    0.343682    0.344017    0.344515
     0.344846    0.346834    0.348995    0.411835    0.413237    0.506369
     0.516041    0.952522    0.968933    1.023270    1.030498

 Minimum Search - Taking P-RFO Step
 Searching for Lamda that Maximizes Along the Constraint modes Only
 Value Taken    Lamda =   0.00000281
 Searching for Lamda that Minimizes Along All other modes
 Value Taken    Lamda =  -0.00039694
 Step Taken.  Stepsize is  0.088537

                             Maximum     Tolerance    Cnvgd?
         Gradient            0.002418       0.000300      NO
         Displacement        0.036683       0.000001      NO
         Energy change     -0.000830       0.000001      NO


 New Cartesian Coordinates Obtained by Inverse Iteration

 Displacement from previous Coordinates is:  0.190589
 Adding empirical dispersion correction 
 ----------------------------------------------------------------
 Doing -D3(op) with
 s6 =   1.00000
 s8 =   0.78311
 a1 =   0.30000
 a2 =   4.25000
 n  =  10.00000
 -D3 energy without 3body term =     -0.0356343956 hartrees
 ----------------------------------------------------------------
             Standard Nuclear Orientation (Angstroms)
    I     Atom           X                Y                Z
 ----------------------------------------------------------------
    1      C      -0.0933706651     0.8155996638     0.6353966281
    2      C       0.6920318133    -0.5360875957     0.5985083854
    3      C      -1.3854267154     0.8429024488    -0.1543028843
    4      C      -0.1298773611    -1.7315662060     0.1341218278
    5      O      -2.1478290354     1.8821174281     0.2552642919
    6      O      -1.6984600769     0.1057978893    -1.0533893236
    7      O      -1.1751358861    -1.8918415602     0.9832944073
    8      O       0.1079992163    -2.4896986113    -0.7665097764
    9      C      -2.1095455455    -2.9272375888     0.6320971382
   10      C      -3.3806582656     2.0796041075    -0.4635837994
   11      C       0.9351999546     1.7611675566    -0.0559921571
   12      C       2.1255635510     2.0068229145     0.8917578018
   13      C       2.8837823982     0.6549257882     0.7614627310
   14      C       1.9728677408    -0.1375648280    -0.2218566748
   15      O       1.4807118196     0.9225098583    -1.0727305443
   16      H      -0.3138932024     1.1411788758     1.6510027481
   17      H       0.9847655665    -0.7984755122     1.6180562048
   18      H      -1.6174190387    -3.9010064558     0.6228155817
   19      H      -3.1809197438     2.2481002098    -1.5227189188
   20      H       2.7302681848     2.8377035445     0.5260458108
   21      H       1.8062229562     2.2410098289     1.9088343078
   22      H       3.8630764654     0.7989094266     0.3018101020
   23      H       3.0301716750     0.1363712907     1.7103506158
   24      H      -2.8822813568    -2.8943238358     1.3970648698
   25      H      -2.5309038755    -2.7269086291    -0.3540417816
   26      H      -3.8423543069     2.9543877482    -0.0119601927
   27      H      -4.0243592522     1.2050763429    -0.3579785334
   28      H       0.4934013483     2.6477958761    -0.5062299649
   29      C       2.6879447080    -1.1915604663    -1.0375212369
   30      H       3.6123446226    -0.7695117989    -1.4395529951
   31      H       2.9407305544    -2.0527551344    -0.4149447885
   32      H       2.0589084921    -1.5414082622    -1.8515327945
 ----------------------------------------------------------------
 Molecular Point Group                 C1    NOp =  1
 Largest Abelian Subgroup              C1    NOp =  1
 Nuclear Repulsion Energy =  1248.9975725421 hartrees
 There are       61 alpha and       61 beta electrons
 Applying Cartesian multipole field
    Component          Value
    ---------          -----
     (2,0,0)        1.00000E-11
     (0,2,0)        2.00000E-11
     (0,0,2)       -3.00000E-11
 Nucleus-field energy     =     0.0000000333 hartrees
 Requested basis set is 6-311++G(d,p)
 There are 176 shells and 464 basis functions
 A cutoff of  1.0D-12 yielded  12885 shell pairs
 There are     91105 function pairs (     97161 Cartesian)
 Smallest overlap matrix eigenvalue = 6.30E-07
 Linear dependence detected in AO basis
 Number of orthogonalized atomic orbitals = 463
 Maximum deviation from orthogonality = 1.300E-10
 Guess MOs from SCF MO coefficient file
 Reading MOs from coefficient file
 Reading MOs from coefficient file
 A restricted hybrid HF-DFT SCF calculation will be
 performed using Pulay DIIS extrapolation
 Exchange:     0.2000 Hartree-Fock + 0.0800 Slater + 0.7200 B88
 Correlation:  0.1900 VWN1RPA + 0.8100 LYP
 Using SG-1 standard quadrature grid
 Dispersion:   Grimme D3
 SCF converges when DIIS error is below 1.0E-08
 Geometry optimization detected.  Setting ReadMinima to 0
 Setting SaveMinima to 0
 -------------------------------------------------------
 OpenMP Integral computing Module                
 Release: version 1.0, May 2013, Q-Chem Inc. Pittsburgh 
 -------------------------------------------------------
 -------------------------------------------------------
 OpenMP BLAS3 based DFT computing Module                
 Release: version 1.0, May 2013, Q-Chem Inc. Pittsburgh 
 -------------------------------------------------------
 ---------------------------------------
  Cycle       Energy         DIIS Error
 ---------------------------------------
    1    -805.1881726726      3.13E-04
    2    -805.1938623365      4.60E-05
    3    -805.1938220926      6.74E-05
    4    -805.1939187973      1.11E-05
    5    -805.1939207229      4.46E-06
    6    -805.1939210448      2.05E-06
    7    -805.1939211139      8.00E-07
    8    -805.1939211265      1.73E-07
    9    -805.1939211272      4.07E-08
   10    -805.1939211272      1.88E-08
   11    -805.1939211273      8.65E-09 Convergence criterion met
 ---------------------------------------
 SCF time:  CPU 1393.09 s  wall 65.07 s
 SCF   energy in the final basis set = -805.1939211273
 Total energy in the final basis set = -805.1939211273
 
 --------------------------------------------------------------
 
                    Orbital Energies (a.u.)
 --------------------------------------------------------------
 
 Alpha MOs
 -- Occupied --
-19.177 -19.164 -19.128 -19.119 -19.109 -10.308 -10.302 -10.238
-10.237 -10.232 -10.221 -10.205 -10.203 -10.181 -10.177 -10.155
 -1.118  -1.107  -1.062  -1.031  -1.022  -0.831  -0.793  -0.780
 -0.748  -0.723  -0.686  -0.650  -0.603  -0.593  -0.569  -0.552
 -0.531  -0.510  -0.503  -0.491  -0.489  -0.482  -0.477  -0.471
 -0.458  -0.435  -0.425  -0.421  -0.416  -0.407  -0.394  -0.377
 -0.373  -0.369  -0.366  -0.359  -0.358  -0.349  -0.335  -0.328
 -0.319  -0.306  -0.290  -0.275  -0.271
 -- Virtual --
 -0.019  -0.010  -0.004   0.001   0.008   0.011   0.013   0.021
  0.026   0.030   0.035   0.038   0.044   0.047   0.048   0.057
  0.064   0.065   0.073   0.077   0.083   0.087   0.092   0.095
  0.097   0.102   0.105   0.109   0.112   0.115   0.119   0.122
  0.125   0.129   0.132   0.134   0.138   0.139   0.145   0.146
  0.147   0.150   0.154   0.155   0.156   0.159   0.164   0.167
  0.173   0.173   0.177   0.180   0.184   0.187   0.188   0.190
  0.195   0.203   0.205   0.208   0.213   0.215   0.220   0.226
  0.232   0.234   0.240   0.242   0.247   0.252   0.261   0.268
  0.271   0.277   0.279   0.282   0.284   0.294   0.297   0.304
  0.309   0.313   0.319   0.321   0.325   0.329   0.336   0.338
  0.345   0.348   0.354   0.357   0.364   0.366   0.370   0.371
  0.375   0.381   0.386   0.390   0.394   0.402   0.405   0.408
  0.415   0.422   0.428   0.439   0.439   0.461   0.471   0.474
  0.487   0.499   0.505   0.523   0.527   0.529   0.541   0.557
  0.566   0.572   0.582   0.591   0.599   0.608   0.613   0.618
  0.624   0.629   0.636   0.646   0.647   0.651   0.658   0.666
  0.671   0.675   0.677   0.690   0.698   0.704   0.710   0.721
  0.723   0.728   0.731   0.743   0.753   0.763   0.769   0.772
  0.776   0.778   0.790   0.801   0.817   0.825   0.830   0.854
  0.866   0.897   0.920   0.934   0.958   0.976   1.001   1.008
  1.021   1.041   1.045   1.061   1.072   1.085   1.117   1.128
  1.132   1.162   1.188   1.196   1.200   1.211   1.221   1.231
  1.239   1.247   1.256   1.273   1.289   1.290   1.313   1.323
  1.328   1.353   1.360   1.374   1.392   1.403   1.409   1.413
  1.432   1.450   1.460   1.463   1.470   1.478   1.504   1.515
  1.522   1.531   1.545   1.548   1.559   1.567   1.580   1.584
  1.592   1.598   1.604   1.623   1.626   1.638   1.656   1.663
  1.667   1.678   1.694   1.698   1.707   1.715   1.718   1.721
  1.728   1.740   1.755   1.771   1.792   1.795   1.805   1.807
  1.814   1.825   1.851   1.870   1.878   1.898   1.900   1.918
  1.935   1.943   1.952   1.986   1.998   2.002   2.017   2.026
  2.039   2.064   2.076   2.095   2.103   2.109   2.137   2.142
  2.162   2.168   2.172   2.186   2.224   2.229   2.250   2.259
  2.270   2.314   2.323   2.345   2.401   2.420   2.438   2.449
  2.463   2.467   2.489   2.501   2.506   2.515   2.519   2.532
  2.541   2.547   2.555   2.577   2.595   2.604   2.611   2.645
  2.646   2.663   2.687   2.693   2.698   2.718   2.742   2.761
  2.805   2.816   2.821   2.829   2.860   2.862   2.874   2.879
  2.892   2.901   2.907   2.939   2.972   2.974   3.011   3.016
  3.019   3.032   3.053   3.061   3.071   3.075   3.105   3.119
  3.129   3.135   3.153   3.176   3.212   3.227   3.237   3.252
  3.268   3.299   3.317   3.360   3.373   3.386   3.424   3.464
  3.582   3.599   3.612   3.661   3.686   3.727   3.771   3.791
  3.825   3.839   3.844   3.863   3.943   3.968   4.013   4.046
  4.067   4.105   4.111   4.120   4.138   4.166   4.189   4.257
  4.295   4.424   4.490   5.034   5.076   5.124   5.163   5.218
  5.285   5.307   5.384   5.424   5.497   5.631   5.636   5.648
  5.886   5.900  23.791  23.839  23.850  23.888  23.898  23.925
 23.939  23.952  23.973  23.997  24.036  49.905  49.921  49.981
 50.036  50.051
 --------------------------------------------------------------
 
          Ground-State Mulliken Net Atomic Charges

     Atom                 Charge (a.u.)
  ----------------------------------------
      1 C                    -0.001811
      2 C                     0.298833
      3 C                    -0.866565
      4 C                    -0.438258
      5 O                    -0.019927
      6 O                    -0.189178
      7 O                    -0.018752
      8 O                    -0.187799
      9 C                    -0.180112
     10 C                    -0.234169
     11 C                     0.459204
     12 C                    -0.451123
     13 C                    -0.464605
     14 C                    -0.262881
     15 O                    -0.051807
     16 H                     0.286842
     17 H                     0.252977
     18 H                     0.164973
     19 H                     0.185306
     20 H                     0.184019
     21 H                     0.121243
     22 H                     0.169214
     23 H                     0.144406
     24 H                     0.148847
     25 H                     0.190460
     26 H                     0.150729
     27 H                     0.171373
     28 H                     0.278771
     29 C                    -0.350931
     30 H                     0.138205
     31 H                     0.160764
     32 H                     0.211751
  ----------------------------------------
  Sum of atomic charges =     0.000000

 -----------------------------------------------------------------
                    Cartesian Multipole Moments
 -----------------------------------------------------------------
    Charge (ESU x 10^10)
                 0.0000
    Dipole Moment (Debye)
         X      -0.8886      Y       1.9498      Z       3.4008
       Tot       4.0196
    Quadrupole Moments (Debye-Ang)
        XX     -83.0186     XY      -0.6034     YY     -91.5428
        XZ       2.5957     YZ      -4.4144     ZZ    -100.1593
    Octopole Moments (Debye-Ang^2)
       XXX     -51.4136    XXY       4.5095    XYY     -29.1255
       YYY       6.3372    XXZ      -1.2818    XYZ       9.4934
       YYZ       5.3691    XZZ      -5.2669    YZZ       1.1604
       ZZZ       1.1641
    Hexadecapole Moments (Debye-Ang^3)
      XXXX   -2141.1891   XXXY     -63.2656   XXYY    -583.6156
      XYYY      10.9089   YYYY   -1662.8623   XXXZ     -11.0483
      XXYZ     -21.2241   XYYZ       5.1903   YYYZ     -57.1939
      XXZZ    -468.7287   XYZZ     -16.7639   YYZZ    -367.5806
      XZZZ      -1.1398   YZZZ       2.3110   ZZZZ    -453.4481
 -----------------------------------------------------------------
 Calculating analytic gradient of the SCF energy
 Gradient of SCF Energy
            1           2           3           4           5           6
    1   0.0004140  -0.0001018  -0.0009854  -0.0006384   0.0005272   0.0004176
    2   0.0011895   0.0004061  -0.0007970  -0.0010050  -0.0004250   0.0004831
    3  -0.0001929   0.0022718  -0.0010026  -0.0017841  -0.0001133   0.0008628
            7           8           9          10          11          12
    1   0.0005021  -0.0005331  -0.0004440  -0.0004563   0.0002139  -0.0003214
    2  -0.0002804   0.0007533   0.0002068   0.0006264   0.0005859   0.0000118
    3  -0.0003563   0.0014024   0.0005308   0.0001940   0.0011633   0.0003174
           13          14          15          16          17          18
    1  -0.0001718   0.0003893  -0.0003475  -0.0001276   0.0001923   0.0001184
    2  -0.0003237   0.0008582  -0.0002672  -0.0000726  -0.0007553   0.0000616
    3   0.0011901  -0.0015291  -0.0004547  -0.0001180  -0.0006042  -0.0001631
           19          20          21          22          23          24
    1   0.0000903  -0.0000660  -0.0000630  -0.0001125   0.0003552   0.0001197
    2  -0.0003474  -0.0001507   0.0002842  -0.0000787  -0.0000929   0.0001014
    3   0.0000286  -0.0002130  -0.0003621  -0.0003064  -0.0003249  -0.0000886
           25          26          27          28          29          30
    1   0.0002901   0.0002007   0.0002179  -0.0002110   0.0005209   0.0002468
    2  -0.0001694  -0.0001095  -0.0001070  -0.0004212  -0.0006492   0.0000952
    3  -0.0000914   0.0000416  -0.0001821  -0.0004707  -0.0001069   0.0004425
           31          32
    1  -0.0003948   0.0001583
    2  -0.0000342   0.0004231
    3  -0.0001961   0.0002152
 Max gradient component =       2.272E-03
 RMS gradient           =       5.713E-04
 Gradient time:  CPU 580.71 s  wall 33.12 s
 Geometry Optimization Parameters
   NAtoms,    NIC,     NZ,  NCons,   NDum,   NFix, NCnnct, MaxDiis
       32     251       0       2       0       0       0       0

 Cartesian Hessian Update
 Hessian Updated using BFGS Update


** CONSTRAINED OPTIMIZATION IN DELOCALIZED INTERNAL COORDINATES **
   Searching for a Minimum

   Optimization Cycle:   4

                       Coordinates (Angstroms)
     ATOM                X               Y               Z
      1  C        -0.0933706651    0.8155996638    0.6353966281
      2  C         0.6920318133   -0.5360875957    0.5985083854
      3  C        -1.3854267154    0.8429024488   -0.1543028843
      4  C        -0.1298773611   -1.7315662060    0.1341218278
      5  O        -2.1478290354    1.8821174281    0.2552642919
      6  O        -1.6984600769    0.1057978893   -1.0533893236
      7  O        -1.1751358861   -1.8918415602    0.9832944073
      8  O         0.1079992163   -2.4896986113   -0.7665097764
      9  C        -2.1095455455   -2.9272375888    0.6320971382
     10  C        -3.3806582656    2.0796041075   -0.4635837994
     11  C         0.9351999546    1.7611675566   -0.0559921571
     12  C         2.1255635510    2.0068229145    0.8917578018
     13  C         2.8837823982    0.6549257882    0.7614627310
     14  C         1.9728677408   -0.1375648280   -0.2218566748
     15  O         1.4807118196    0.9225098583   -1.0727305443
     16  H        -0.3138932024    1.1411788758    1.6510027481
     17  H         0.9847655665   -0.7984755122    1.6180562048
     18  H        -1.6174190387   -3.9010064558    0.6228155817
     19  H        -3.1809197438    2.2481002098   -1.5227189188
     20  H         2.7302681848    2.8377035445    0.5260458108
     21  H         1.8062229562    2.2410098289    1.9088343078
     22  H         3.8630764654    0.7989094266    0.3018101020
     23  H         3.0301716750    0.1363712907    1.7103506158
     24  H        -2.8822813568   -2.8943238358    1.3970648698
     25  H        -2.5309038755   -2.7269086291   -0.3540417816
     26  H        -3.8423543069    2.9543877482   -0.0119601927
     27  H        -4.0243592522    1.2050763429   -0.3579785334
     28  H         0.4934013483    2.6477958761   -0.5062299649
     29  C         2.6879447080   -1.1915604663   -1.0375212369
     30  H         3.6123446226   -0.7695117989   -1.4395529951
     31  H         2.9407305544   -2.0527551344   -0.4149447885
     32  H         2.0589084921   -1.5414082622   -1.8515327945
   Point Group: c1    Number of degrees of freedom:    90


   Energy is   -805.193921127

              Constraints and their Current Values
                                        Value     Constraint
   Dihedral:        2   1   3   5      162.300      162.300
   Dihedral:        1   2   4   7      -60.000      -60.000
 Hessian Updated using BFGS Update

 82 Hessian modes will be used to form the next step
  Hessian Eigenvalues:
     0.024456    0.045000    0.045002    0.045012    0.045075    0.045425
     0.045897    0.048424    0.054653    0.061576    0.063154    0.068283
     0.070877    0.073112    0.073676    0.077010    0.079937    0.080330
     0.082030    0.082636    0.083681    0.084626    0.085344    0.090121
     0.091635    0.092035    0.096908    0.109978    0.113235    0.113794
     0.116036    0.116928    0.116985    0.123377    0.127470    0.141006
[...]
     16 H                     0.287958
     17 H                     0.251563
     18 H                     0.165150
     19 H                     0.184836
     20 H                     0.184165
     21 H                     0.121823
     22 H                     0.174021
     23 H                     0.143017
     24 H                     0.149255
     25 H                     0.188077
     26 H                     0.150746
     27 H                     0.171000
     28 H                     0.278661
     29 C                    -0.336527
     30 H                     0.143580
     31 H                     0.158021
     32 H                     0.208724
  ----------------------------------------
  Sum of atomic charges =     0.000000

 -----------------------------------------------------------------
                    Cartesian Multipole Moments
 -----------------------------------------------------------------
    Charge (ESU x 10^10)
                 0.0000
    Dipole Moment (Debye)
         X      -0.7824      Y       1.9560      Z       3.4158
       Tot       4.0132
    Quadrupole Moments (Debye-Ang)
        XX     -82.9334     XY      -0.9628     YY     -91.6391
        XZ       2.2829     YZ      -4.4238     ZZ    -100.2124
    Octopole Moments (Debye-Ang^2)
       XXX     -49.7081    XXY       3.5468    XYY     -28.5029
       YYY      11.3984    XXZ      -0.2182    XYZ       9.8120
       YYZ       4.3859    XZZ      -4.2264    YZZ       0.7654
       ZZZ       1.8718
    Hexadecapole Moments (Debye-Ang^3)
      XXXX   -2155.4638   XXXY     -39.7108   XXYY    -574.3663
      XYYY      15.3837   YYYY   -1654.0412   XXXZ     -11.3908
      XXYZ     -20.8698   XYYZ       5.3518   YYYZ     -60.1798
      XXZZ    -471.1952   XYZZ     -10.7971   YYZZ    -364.3797
      XZZZ       0.9194   YZZZ      -0.7246   ZZZZ    -458.1057
 -----------------------------------------------------------------
 Calculating analytic gradient of the SCF energy
 Gradient of SCF Energy
            1           2           3           4           5           6
    1  -0.0000446   0.0000317   0.0000056  -0.0000543   0.0000087   0.0000191
    2  -0.0000283  -0.0000087  -0.0001141   0.0000880   0.0000424  -0.0000227
    3  -0.0000387   0.0000543   0.0000050  -0.0000585   0.0000136  -0.0000055
            7           8           9          10          11          12
    1   0.0000198   0.0000213  -0.0000078  -0.0000003   0.0000626   0.0000035
    2  -0.0000014   0.0000186  -0.0000199  -0.0000033  -0.0000398   0.0000093
    3   0.0000029  -0.0000025  -0.0000003   0.0000015   0.0000346   0.0000031
           13          14          15          16          17          18
    1   0.0000396  -0.0000910   0.0000279   0.0000016  -0.0000214  -0.0000075
    2   0.0000104   0.0000453   0.0000308  -0.0000201   0.0000086  -0.0000002
    3  -0.0000051   0.0000216  -0.0000473   0.0000032   0.0000206  -0.0000029
           19          20          21          22          23          24
    1   0.0000003   0.0000031  -0.0000045   0.0000081  -0.0000076  -0.0000034
    2   0.0000038  -0.0000015   0.0000029   0.0000040  -0.0000059  -0.0000030
    3  -0.0000052  -0.0000002  -0.0000028   0.0000147   0.0000010  -0.0000078
           25          26          27          28          29          30
    1   0.0000006  -0.0000011   0.0000029   0.0000081  -0.0000214   0.0000035
    2   0.0000056   0.0000009   0.0000024  -0.0000132   0.0000074  -0.0000006
    3  -0.0000031  -0.0000042  -0.0000094  -0.0000074   0.0000053   0.0000064
           31          32
    1   0.0000004  -0.0000035
    2  -0.0000026   0.0000047
    3   0.0000091   0.0000040
 Max gradient component =       1.141E-04
 RMS gradient           =       2.635E-05
 Gradient time:  CPU 591.84 s  wall 33.08 s
 Geometry Optimization Parameters
   NAtoms,    NIC,     NZ,  NCons,   NDum,   NFix, NCnnct, MaxDiis
       32     251       0       0       0       0       0       0

 Cartesian Hessian Update
 Hessian Updated using BFGS Update


** GEOMETRY OPTIMIZATION IN DELOCALIZED INTERNAL COORDINATES **
   Searching for a Minimum

   Optimization Cycle:   8

                       Coordinates (Angstroms)
     ATOM                X               Y               Z
      1  C        -0.0507027545    0.8171273157    0.6413540822
      2  C         0.6594081062   -0.5750353464    0.5907910115
      3  C        -1.3340767951    0.9247318445   -0.1539657786
      4  C        -0.2320024742   -1.7209696284    0.1373250896
      5  O        -2.0522132719    1.9894276841    0.2723854057
      6  O        -1.6744020406    0.2220703032   -1.0716338003
      7  O        -1.2926836715   -1.8044709396    0.9791795288
      8  O        -0.0372316161   -2.5021656658   -0.7552662139
      9  C        -2.2933653993   -2.7759775214    0.6254495412
     10  C        -3.2678821909    2.2569225649   -0.4523373404
     11  C         1.0325079138    1.7092375268   -0.0380979734
     12  C         2.2402506220    1.8629309994    0.9118643812
     13  C         2.9217125743    0.4763684363    0.7426282324
     14  C         1.9541101940   -0.2463668363   -0.2364944397
     15  O         1.5211889096    0.8554622702   -1.0690513488
     16  H        -0.2558290202    1.1441631111    1.6598254871
     17  H         0.9422542978   -0.8471530113    1.6115584574
     18  H        -1.8600340091   -3.7758755749    0.5783235714
     19  H        -3.0505690724    2.4535355244   -1.5032672160
     20  H         2.8885812390    2.6722971748    0.5732051151
     21  H         1.9365929802    2.0791684800    1.9382082669
     22  H         3.9024502014    0.5736186639    0.2740096618
     23  H         3.0489891212   -0.0639841013    1.6826446975
     24  H        -3.0443320034   -2.7198293752    1.4109012348
     25  H        -2.7281024572   -2.5215930386   -0.3425208783
     26  H        -3.7010256402    3.1349402489    0.0216906582
     27  H        -3.9479955310    1.4068668417   -0.3802614452
     28  H         0.6489379656    2.6330026366   -0.4666015618
     29  C         2.5957467858   -1.3256219363   -1.0783681662
     30  H         3.4856671496   -0.9161493781   -1.5625788294
     31  H         2.8991551086   -2.1669289077   -0.4500282544
     32  H         1.9075285013   -1.6990814279   -1.8318618422
   Point Group: c1    Number of degrees of freedom:    90


   Energy is   -805.194096988

 Hessian Updated using BFGS Update

 89 Hessian modes will be used to form the next step
  Hessian Eigenvalues:
     0.002601    0.005127    0.007032    0.007625    0.010150    0.010521
     0.013373    0.020682    0.021854    0.022824    0.026258    0.034324
     0.035913    0.037455    0.041053    0.045184    0.045666    0.048881
     0.050230    0.051478    0.055404    0.056768    0.058406    0.058565
     0.059713    0.061182    0.064291    0.065685    0.067219    0.074311
     0.085725    0.093243    0.101083    0.101314    0.102037    0.105815
     0.105976    0.106216    0.128950    0.134076    0.157695    0.159532
     0.159920    0.159970    0.159999    0.160004    0.160224    0.160550
     0.165362    0.178415    0.231149    0.245519    0.246528    0.248360
     0.249708    0.249970    0.250103    0.252224    0.256091    0.259874
     0.276526    0.285685    0.304887    0.311821    0.321098    0.338151
     0.344437    0.344715    0.344946    0.345917    0.346229    0.346452
     0.346803    0.346944    0.346945    0.347145    0.347215    0.348915
     0.350233    0.350299    0.350787    0.352039    0.364511    0.394736
     0.399280    0.535995    0.544782    1.024903    1.037891

 Minimum Search - Taking Simple RFO Step
 Searching for Lamda that Minimizes Along All modes
 Value Taken    Lamda =   0.00000000
 Step Taken.  Stepsize is  0.006665

                             Maximum     Tolerance    Cnvgd?
         Gradient           0.000099      0.000300     YES
         Displacement       0.002747      0.000001      NO
         Energy change      0.000001      0.000001     YES

 Final energy is   -805.194096988436     


 ******************************
 **  OPTIMIZATION CONVERGED  **
 ******************************

                       Coordinates (Angstroms)
     ATOM                X               Y               Z
      1  C        -0.0507027545    0.8171273157    0.6413540822
      2  C         0.6594081062   -0.5750353464    0.5907910115
      3  C        -1.3340767951    0.9247318445   -0.1539657786
      4  C        -0.2320024742   -1.7209696284    0.1373250896
      5  O        -2.0522132719    1.9894276841    0.2723854057
      6  O        -1.6744020406    0.2220703032   -1.0716338003
      7  O        -1.2926836715   -1.8044709396    0.9791795288
      8  O        -0.0372316161   -2.5021656658   -0.7552662139
      9  C        -2.2933653993   -2.7759775214    0.6254495412
     10  C        -3.2678821909    2.2569225649   -0.4523373404
     11  C         1.0325079138    1.7092375268   -0.0380979734
     12  C         2.2402506220    1.8629309994    0.9118643812
     13  C         2.9217125743    0.4763684363    0.7426282324
     14  C         1.9541101940   -0.2463668363   -0.2364944397
     15  O         1.5211889096    0.8554622702   -1.0690513488
     16  H        -0.2558290202    1.1441631111    1.6598254871
     17  H         0.9422542978   -0.8471530113    1.6115584574
     18  H        -1.8600340091   -3.7758755749    0.5783235714
     19  H        -3.0505690724    2.4535355244   -1.5032672160
     20  H         2.8885812390    2.6722971748    0.5732051151
     21  H         1.9365929802    2.0791684800    1.9382082669
     22  H         3.9024502014    0.5736186639    0.2740096618
     23  H         3.0489891212   -0.0639841013    1.6826446975
     24  H        -3.0443320034   -2.7198293752    1.4109012348
     25  H        -2.7281024572   -2.5215930386   -0.3425208783
     26  H        -3.7010256402    3.1349402489    0.0216906582
     27  H        -3.9479955310    1.4068668417   -0.3802614452
     28  H         0.6489379656    2.6330026366   -0.4666015618
     29  C         2.5957467858   -1.3256219363   -1.0783681662
     30  H         3.4856671496   -0.9161493781   -1.5625788294
     31  H         2.8991551086   -2.1669289077   -0.4500282544
     32  H         1.9075285013   -1.6990814279   -1.8318618422

Z-matrix Print:
$molecule
0 1
O 
C  1 1.424993
H  2 1.088156 1 110.158247
C  1 1.447273 2 98.194276 3 179.795728 0
C  4 1.511701 1 110.495129 2 -177.580628 0
H  5 1.086678 4 111.266086 1 -58.686373 0
H  5 1.092742 4 108.960325 1 62.406282 0
H  5 1.093007 4 110.316191 1 -178.599350 0
C  2 1.544245 1 103.678939 3 -124.370747 0
H  9 1.090915 2 110.344808 1 85.838928 0
H  9 1.091947 2 112.359884 1 -153.484798 0
C  9 1.554216 2 100.786028 1 -32.172359 0
H  12 1.091287 9 111.180045 2 114.507494 0
H  12 1.091701 9 113.511372 2 -123.483072 0
C  2 1.559122 1 102.164589 3 121.910604 0
H  15 1.089180 2 111.502398 1 158.079738 0
C  15 1.513658 2 108.626919 1 -82.925537 0
O  17 1.204852 15 126.742523 2 90.524136 0
O  17 1.353171 15 109.898203 2 -86.596675 0
C  19 1.440357 17 115.817750 15 176.596821 0
H  20 1.087764 19 105.469064 17 -179.814868 0
H  20 1.091025 19 110.488568 17 -60.138787 0
H  20 1.091029 19 110.376713 17 60.694835 0
C  15 1.563627 2 100.359922 1 38.699632 0
H  24 1.093625 15 107.987496 2 109.603720 0
C  24 1.520990 15 114.473696 2 -135.069149 0
O  26 1.202049 24 128.028707 15 125.960746 0
O  26 1.356737 24 108.636273 15 -58.337797 0
C  28 1.438859 26 115.640354 24 175.238579 0
H  29 1.088135 28 105.526004 26 178.788716 0
H  29 1.090776 28 110.687568 26 59.043096 0
H  29 1.091180 28 109.740301 26 -61.916054 0
$end

 
 --------------------------------------------------------------
 
                    Orbital Energies (a.u.)
 --------------------------------------------------------------
 
 Alpha MOs
 -- Occupied --
-19.177 -19.165 -19.128 -19.119 -19.110 -10.308 -10.303 -10.238
-10.237 -10.232 -10.222 -10.205 -10.203 -10.181 -10.177 -10.154
 -1.118  -1.107  -1.062  -1.031  -1.022  -0.831  -0.793  -0.780
 -0.748  -0.723  -0.686  -0.650  -0.603  -0.594  -0.569  -0.552
 -0.532  -0.510  -0.504  -0.491  -0.489  -0.482  -0.477  -0.471
 -0.458  -0.436  -0.425  -0.420  -0.417  -0.407  -0.394  -0.377
 -0.373  -0.369  -0.365  -0.359  -0.359  -0.349  -0.335  -0.328
 -0.319  -0.307  -0.290  -0.275  -0.271
 -- Virtual --
 -0.020  -0.010  -0.004   0.001   0.008   0.011   0.013   0.021
  0.026   0.030   0.035   0.038   0.044   0.047   0.048   0.057
  0.064   0.065   0.073   0.077   0.083   0.087   0.092   0.095
  0.097   0.102   0.105   0.108   0.112   0.115   0.120   0.122
  0.125   0.129   0.133   0.135   0.138   0.139   0.145   0.146
  0.147   0.150   0.153   0.155   0.156   0.159   0.164   0.167
  0.173   0.174   0.177   0.180   0.183   0.188   0.188   0.189
  0.195   0.203   0.205   0.207   0.212   0.215   0.220   0.225
  0.231   0.234   0.240   0.243   0.247   0.253   0.260   0.268
  0.272   0.278   0.279   0.282   0.284   0.294   0.296   0.304
  0.308   0.313   0.319   0.320   0.324   0.329   0.335   0.339
  0.345   0.348   0.353   0.358   0.363   0.365   0.370   0.372
  0.376   0.382   0.387   0.392   0.395   0.402   0.407   0.409
  0.417   0.424   0.427   0.438   0.440   0.460   0.471   0.473
  0.486   0.501   0.505   0.522   0.528   0.529   0.542   0.557
  0.568   0.574   0.580   0.587   0.598   0.608   0.612   0.619
  0.624   0.631   0.635   0.647   0.649   0.652   0.656   0.663
  0.672   0.675   0.678   0.690   0.699   0.703   0.711   0.720
  0.724   0.728   0.731   0.742   0.753   0.764   0.769   0.773
  0.775   0.778   0.790   0.801   0.817   0.823   0.829   0.855
  0.865   0.897   0.919   0.932   0.958   0.975   1.001   1.006
  1.023   1.038   1.044   1.063   1.070   1.083   1.122   1.126
  1.133   1.159   1.187   1.195   1.200   1.215   1.223   1.231
  1.239   1.246   1.255   1.271   1.290   1.293   1.312   1.322
  1.327   1.355   1.357   1.375   1.393   1.403   1.410   1.411
  1.433   1.450   1.458   1.463   1.471   1.480   1.507   1.516
  1.520   1.534   1.546   1.549   1.556   1.566   1.582   1.585
  1.594   1.599   1.604   1.623   1.627   1.636   1.657   1.663
  1.667   1.680   1.695   1.698   1.706   1.715   1.718   1.721
  1.729   1.742   1.753   1.769   1.792   1.794   1.804   1.807
  1.812   1.823   1.848   1.871   1.877   1.898   1.901   1.917
  1.935   1.942   1.953   1.986   1.999   2.006   2.011   2.024
  2.039   2.064   2.076   2.093   2.102   2.110   2.140   2.144
  2.161   2.166   2.171   2.184   2.227   2.232   2.248   2.260
  2.269   2.317   2.324   2.345   2.400   2.418   2.438   2.451
  2.462   2.467   2.491   2.501   2.504   2.516   2.518   2.531
  2.541   2.546   2.552   2.577   2.594   2.606   2.612   2.644
  2.646   2.665   2.684   2.693   2.696   2.719   2.739   2.762
  2.807   2.815   2.824   2.829   2.860   2.864   2.871   2.880
  2.891   2.903   2.905   2.939   2.969   2.977   3.008   3.014
  3.017   3.034   3.048   3.061   3.066   3.076   3.106   3.119
  3.129   3.138   3.151   3.174   3.211   3.224   3.238   3.249
  3.268   3.300   3.311   3.363   3.372   3.385   3.423   3.463
  3.585   3.598   3.611   3.660   3.683   3.725   3.773   3.792
  3.828   3.837   3.842   3.865   3.944   3.969   4.011   4.045
  4.066   4.103   4.112   4.118   4.138   4.167   4.189   4.257
  4.297   4.427   4.490   5.034   5.079   5.120   5.164   5.220
  5.281   5.307   5.384   5.422   5.496   5.631   5.638   5.648
  5.884   5.898  23.791  23.838  23.849  23.886  23.897  23.925
 23.938  23.953  23.973  23.995  24.037  49.905  49.919  49.982
 50.036  50.050
 --------------------------------------------------------------
 
          Ground-State Mulliken Net Atomic Charges

     Atom                 Charge (a.u.)
  ----------------------------------------
      1 C                     0.006229
      2 C                     0.313191
      3 C                    -0.888650
      4 C                    -0.439633
      5 O                    -0.016610
      6 O                    -0.187850
      7 O                    -0.020750
      8 O                    -0.189660
      9 C                    -0.178388
     10 C                    -0.233546
     11 C                     0.467441
     12 C                    -0.449926
     13 C                    -0.473404
     14 C                    -0.281287
     15 O                    -0.051227
     16 H                     0.287958
     17 H                     0.251563
     18 H                     0.165150
     19 H                     0.184836
     20 H                     0.184165
     21 H                     0.121823
     22 H                     0.174021
     23 H                     0.143017
     24 H                     0.149255
     25 H                     0.188077
     26 H                     0.150746
     27 H                     0.171000
     28 H                     0.278661
     29 C                    -0.336527
     30 H                     0.143580
     31 H                     0.158021
     32 H                     0.208724
  ----------------------------------------
  Sum of atomic charges =     0.000000

 -----------------------------------------------------------------
                    Cartesian Multipole Moments
 -----------------------------------------------------------------
    Charge (ESU x 10^10)
                 0.0000
    Dipole Moment (Debye)
         X      -0.7824      Y       1.9560      Z       3.4158
       Tot       4.0132
    Quadrupole Moments (Debye-Ang)
        XX     -82.9334     XY      -0.9628     YY     -91.6391
        XZ       2.2829     YZ      -4.4238     ZZ    -100.2124
    Octopole Moments (Debye-Ang^2)
       XXX     -49.7081    XXY       3.5468    XYY     -28.5029
       YYY      11.3984    XXZ      -0.2182    XYZ       9.8120
       YYZ       4.3859    XZZ      -4.2264    YZZ       0.7654
       ZZZ       1.8718
    Hexadecapole Moments (Debye-Ang^3)
      XXXX   -2155.4638   XXXY     -39.7108   XXYY    -574.3663
      XYYY      15.3837   YYYY   -1654.0412   XXXZ     -11.3908
      XXYZ     -20.8698   XYYZ       5.3518   YYYZ     -60.1798
      XXZZ    -471.1952   XYZZ     -10.7971   YYZZ    -364.3797
      XZZZ       0.9194   YZZZ      -0.7246   ZZZZ    -458.1057
 -----------------------------------------------------------------
Archival summary:
1\1\nid01519\OPT\ProcedureUnspecified\BasisUnspecified\51116\junteng\TueOct318:28:352017TueOct318:28:352017\0\\#,OPT,ProcedureUnspecified,BasisUnspecified,\\0,1\O\C,1,1.42499\H,2,1.08816,1,110.158\C,1,1.44727,2,98.1943,3,179.796,0\C,4,1.5117,1,110.495,2,-177.581,0\H,5,1.08668,4,111.266,1,-58.6864,0\H,5,1.09274,4,108.96,1,62.4063,0\H,5,1.09301,4,110.316,1,-178.599,0\C,2,1.54424,1,103.679,3,-124.371,0\H,9,1.09092,2,110.345,1,85.8389,0\H,9,1.09195,2,112.36,1,-153.485,0\C,9,1.55422,2,100.786,1,-32.1724,0\H,12,1.09129,9,111.18,2,114.507,0\H,12,1.0917,9,113.511,2,-123.483,0\C,2,1.55912,1,102.165,3,121.911,0\H,15,1.08918,2,111.502,1,158.08,0\C,15,1.51366,2,108.627,1,-82.9255,0\O,17,1.20485,15,126.743,2,90.5241,0\O,17,1.35317,15,109.898,2,-86.5967,0\C,19,1.44036,17,115.818,15,176.597,0\H,20,1.08776,19,105.469,17,-179.815,0\H,20,1.09102,19,110.489,17,-60.1388,0\H,20,1.09103,19,110.377,17,60.6948,0\C,15,1.56363,2,100.36,1,38.6996,0\H,24,1.09363,15,107.987,2,109.604,0\C,24,1.52099,15,114.474,2,-135.069,0\O,26,1.20205,24,128.029,15,125.961,0\O,26,1.35674,24,108.636,15,-58.3378,0\C,28,1.43886,26,115.64,24,175.239,0\H,29,1.08814,28,105.526,26,178.789,0\H,29,1.09078,28,110.688,26,59.0431,0\H,29,1.09118,28,109.74,26,-61.9161,0\\\@

 Total job time:  787.23s(wall), 15990.13s(cpu) 
 Tue Oct  3 18:28:35 2017

        *************************************************************
        *                                                           *
        *  Thank you very much for using Q-Chem.  Have a nice day.  *
        *                                                           *
        *************************************************************


