nid05754 10.128.22
Q-Chem Developer Version! Running on 10.128.22.*
                  Welcome to Q-Chem
     A Quantum Leap Into The Future Of Chemistry


 Q-Chem 5.0, Q-Chem, Inc., Pleasanton, CA (2017)

 Yihan Shao,  Zhengting Gan,  E. Epifanovsky,  A. T. B. Gilbert,  M. Wormit,  
 J. Kussmann,  A. W. Lange,  A. Behn,  Jia Deng,  Xintian Feng,  D. Ghosh,  
 M. Goldey,  P. R. Horn,  L. D. Jacobson,  I. Kaliman,  T. Kus,  A. Landau,  
 Jie Liu,  E. I. Proynov,  R. M. Richard,  R. P. Steele,  E. J. Sundstrom,  
 H. L. Woodcock III,  P. M. Zimmerman,  D. Zuev,  B. Albrecht,  E. Alguire,  
 S. A. Baeppler,  Z. Benda,  Y. A. Bernard,  E. J. Berquist,  K. B. Bravaya,  
 D. Casanova,  Chun-Min Chang,  Yunqing Chen,  A. Chien,  K. D. Closser,  
 M. P. Coons,  S. Dasgupta,  M. Diedenhofen,  Hainam Do,  R. G. Edgar,  
 Po-Tung Fang,  S. Fatehi,  Qingguo Feng,  Qinghui Ge,  A. Ghysels,  
 J. Gomes,  J. Gonthier,  A. Gunina,  M. W. D. Hanson-Heine,  
 P. H. P. Harbach,  A. W. Hauser,  J. E. Herr,  E. G. Hohenstein,  
 Z. C. Holden,  Kerwin Hui,  T.-C. Jagau,  Hyunjun Ji,  B. Kaduk,  
 K. Khistyaev,  Jaehoon Kim,  P. Klunzinger,  K. Koh,  D. Kosenkov,  
 T. Kowalczyk,  C. M. Krauter,  A. Kunitsa,  Ka Un Lao,  A. Laurent,  
 K. V. Lawler,  Joonho Lee,  D. Lefrancois,  S. Lehtola,  D. S. Levine,  
 Yi-Pei Li,  You-Sheng Lin,  Fenglai Liu,  E. Livshits,  A. Luenser,  
 P. Manohar,  E. Mansoor,  S. F. Manzer,  Shan-Ping Mao,  Yuezhi Mao,  
 N. Mardirossian,  A. V. Marenich,  L. A. Martinez-Martinez,  S. A. Maurer,  
 N. J. Mayhall,  S. C. McKenzie,  J.-M. Mewes,  A. F. Morrison,  K. Nanda,  
 T. S. Nguyen-Beck,  R. Olivares-Amaya,  J. A. Parkhill,  T. M. Perrine,  
 F. Plasser,  S. Prager,  A. Prociuk,  D. R. Rehn,  F. Rob,  M. Schneider,  
 N. Sergueev,  S. M. Sharada,  S. Sharma,  D. W. Small,  T. Stauch,  
 T. Stein,  Yu-Chuan Su,  A. J. W. Thom,  T. Tsuchimochi,  L. Vogt,  
 O. Vydrov,  M. A. Watson,  J. Wenzel,  M. de Wergifosse,  T. A. Wesolowski,  
 A. White,  J. Witte,  A. Yamada,  Jun Yang,  K. Yao,  S. Yeganeh,  
 S. R. Yost,  Zhi-Qiang You,  A. Zech,  Igor Ying Zhang,  Xing Zhang,  
 Yan Zhao,  Ying Zhu,  B. R. Brooks,  G. K. L. Chan,  C. J. Cramer,  
 M. S. Gordon,  W. J. Hehre,  A. Klamt,  M. W. Schmidt,  C. D. Sherrill,  
 D. G. Truhlar,  A. Aspuru-Guzik,  R. Baer,  A. T. Bell,  N. A. Besley,  
 Jeng-Da Chai,  A. Dreuw,  B. D. Dunietz,  T. R. Furlani,  Chao-Ping Hsu,  
 Yousung Jung,  Jing Kong,  D. S. Lambrecht,  WanZhen Liang,  C. Ochsenfeld,  
 V. A. Rassolov,  L. V. Slipchenko,  J. E. Subotnik,  T. Van Voorhis,  
 J. M. Herbert,  A. I. Krylov,  P. M. W. Gill,  M. Head-Gordon

 Contributors to earlier versions of Q-Chem not listed above: 
 R. D. Adamson,  B. Austin,  J. Baker,  G. J. O. Beran,  K. Brandhorst,  
 S. T. Brown,  E. F. C. Byrd,  A. K. Chakraborty,  C.-L. Cheng,  
 Siu Hung Chien,  D. M. Chipman,  D. L. Crittenden,  H. Dachsel,  
 R. A. DiStasio Jr.,  R. J. Doerksen,  A. D. Dutoi,  L. Fusti-Molnar,  
 W. A. Goddard III,  A. Golubeva-Zadorozhnaya,  S. R. Gwaltney,  G. Hawkins,  
 A. Heyden,  S. Hirata,  G. Kedziora,  F. J. Keil,  C. Kelley,  Jihan Kim,  
 R. A. King,  R. Z. Khaliullin,  P. P. Korambath,  W. Kurlancheek,  
 A. M. Lee,  M. S. Lee,  S. V. Levchenko,  Ching Yeh Lin,  D. Liotard,  
 R. C. Lochan,  I. Lotan,  P. E. Maslen,  N. Nair,  D. P. O'Neill,  
 D. Neuhauser,  E. Neuscamman,  C. M. Oana,  R. Olson,  B. Peters,  
 R. Peverati,  P. A. Pieniazek,  Y. M. Rhee,  J. Ritchie,  M. A. Rohrdanz,  
 E. Rosta,  N. J. Russ,  H. F. Schaefer III,  N. E. Schultz,  N. Shenvi,  
 A. C. Simmonett,  A. Sodt,  D. Stuck,  K. S. Thanthiriwatte,  V. Vanovschi,  
 Tao Wang,  A. Warshel,  C. F. Williams,  Q. Wu,  X. Xu,  W. Zhang

 Please cite Q-Chem as follows:
 Y. Shao et al., Mol. Phys. 113, 184-215 (2015)
 DOI: 10.1080/00268976.2014.952696

 Q-Chem 5.0.0 for Intel X86 EM64T Linux

 Parts of Q-Chem use Armadillo 5.200.1 (Boston Tea Smuggler).
 http://arma.sourceforge.net/

 Q-Chem begins on Wed Oct  4 17:37:16 2017  

Host: nid05754
0

     Scratch files written to /global/cscratch1/sd/junteng/scratch/14/opt_1101--.save//

Checking the input file for inconsistencies... 	...done.

--------------------------------------------------------------
User input:
--------------------------------------------------------------
$molecule
0  1
C    0.711  -1.958   0.589
C   -0.299  -1.995   1.756
C    1.089  -0.603   0.022
C   -0.528  -0.668   2.454
O    2.255  -0.726  -0.682
O    0.458   0.435   0.138
O    0.672  -0.221   2.944
O   -1.603  -0.140   2.687
C    0.580   1.027   3.634
C    2.698   0.490  -1.286
C   -0.031  -2.720  -0.508
C   -0.144  -4.202  -0.153
C   -1.210  -4.188   0.944
C   -1.515  -2.680   1.086
O   -1.391  -2.278  -0.299
H    1.639  -2.461   0.888
H    0.068  -2.659   2.552
H   -0.050   0.928   4.523
H    1.951   0.864  -1.993
H   -0.511  -4.776  -1.011
H    0.804  -4.638   0.173
H   -2.087  -4.746   0.595
H   -0.869  -4.649   1.876
H    1.587   1.311   3.953
H    0.196   1.807   2.969
H    3.619   0.278  -1.837
H    2.918   1.240  -0.519
H    0.300  -2.531  -1.532
C   -2.908  -2.427   1.624
H   -3.642  -3.061   1.114
H   -2.968  -2.632   2.696
H   -3.235  -1.402   1.426
$end


$opt
CONSTRAINT
tors    2    1    3    5    157.3
tors    1    2    4    7    -65.0
ENDCONSTRAINT
$end

$rem
JOBTYPE                   OPT
METHOD                    B3LYP
DFT_D                     D3_OP
BASIS                     STO-3G
GEOM_OPT_MAX_CYCLES       500
SYMMETRY                  False
THRESH                    12
SCF_CONVERGENCE           8
MAX_SUB_FILE_NUM          128
MEM_STATIC                400
MEM_TOTAL                 4000
$end

--------------------------------------------------------------
 Adding empirical dispersion correction 
 ----------------------------------------------------------------
 Doing -D3(op) with
 s6 =   1.00000
 s8 =   0.78311
 a1 =   0.30000
 a2 =   4.25000
 n  =  10.00000
 -D3 energy without 3body term =     -0.0354339443 hartrees
 ----------------------------------------------------------------
             Standard Nuclear Orientation (Angstroms)
    I     Atom           X                Y                Z
 ----------------------------------------------------------------
    1      C      -0.1011848019     0.8054220658     0.6072204492
    2      C       0.6620154878    -0.5364971559     0.5955533906
    3      C      -1.4015644380     0.8875516009    -0.1690949129
    4      C      -0.1410572282    -1.7318799813     0.1194146361
    5      O      -2.1190916287     1.9620046977     0.2792423188
    6      O      -1.7586593461     0.1451011244    -1.0692679610
    7      O      -1.2361871469    -1.8724092621     0.9323420513
    8      O       0.1839039632    -2.5367797787    -0.7380435496
    9      C      -2.0705618232    -2.9788079980     0.5833882767
   10      C      -3.3601324547     2.1543130106    -0.4008725103
   11      C       0.8921947687     1.7507805700    -0.0666573788
   12      C       2.1006898551     1.9956119456     0.8359583888
   13      C       2.8581814059     0.6714609442     0.7228580976
   14      C       1.9353848860    -0.1568246325    -0.1989024928
   15      O       1.4677351984     0.8937269451    -1.0780214566
   16      H      -0.3158357451     1.0989107000     1.6422969653
   17      H       0.9675145382    -0.8059543627     1.6169564177
   18      H      -1.5277085504    -3.9211288805     0.7032368423
   19      H      -3.1925366947     2.3218430413    -1.4693196780
   20      H       2.7207990583     2.8058706669     0.4368664437
   21      H       1.8242280680     2.2474343817     1.8632024401
   22      H       3.8327460722     0.8578355890     0.2561866896
   23      H       3.0366664167     0.1979666648     1.6931015044
   24      H      -2.9267737949    -2.9833521908     1.2640838105
   25      H      -2.4439876414    -2.8714877839    -0.4398988433
   26      H      -3.8403685125     3.0440784321     0.0168317195
   27      H      -4.0212059080     1.2961810682    -0.2403095674
   28      H       0.4702491978     2.6594561976    -0.5026946926
   29      C       2.6945415386    -1.2278384490    -0.9542253256
   30      H       3.6222933193    -0.8229488311    -1.3739312116
   31      H       2.9531506788    -2.0694657777    -0.3064647586
   32      H       2.1281180017    -1.5881402477    -1.8179990175
 ----------------------------------------------------------------
 Molecular Point Group                 C1    NOp =  1
 Largest Abelian Subgroup              C1    NOp =  1
 Nuclear Repulsion Energy =  1248.6091517482 hartrees
 There are       61 alpha and       61 beta electrons
 Requested basis set is STO-3G
 There are 48 shells and 96 basis functions

 Total QAlloc Memory Limit   4000 MB
 Mega-Array Size       392 MB
 MEM_STATIC part       400 MB
 A cutoff of  1.0D-12 yielded   1028 shell pairs
 There are      4526 function pairs
 
 -------------------------------------------------------
 OpenMP Integral Computing Module                       
 Release: version 1.0, May 2013, Q-Chem Inc. Pittsburgh 
 -------------------------------------------------------
 Integral Job Info:
 Integral job number is                      11
 Integral operator is                         1
 short-range coefficients                     0
 long-range coefficients              100000000
 Omega coefficients                           0
 if combine SR and LR in K                    0
 Integral screening is                        0
 Integral computing path is                   2
 max size of driver memory is            800000
 size of driver memory is                 45569
 size of scratch memory is               945100
 max col of scratch BK array                289
 max len of scratch array in speh3           22
 max len of scratch index in speh4            8
 max int batch size is                      520
 min int batch size is                       52
 fixed nKL is                                52
 max L of basis functions is                  1
 order of int derivative is                   0
 number of shells is                         48
 number of basis is                          96
 number of cartesian basis is                96
 number of contracted shell pairs          1028
 number of primitive shell pairs           5665
 maxK2 (contraction) of shell pair            9
 max number of K2 of shell pair               1
 max number of CS2 of shell pair            150
 max number of PS2 of shell pair            666
 mem total for path MDJ                   31466
 -------------------------------------------------------
 Smallest overlap matrix eigenvalue = 1.94E-01

 Scale SEOQF with 1.000000e-01/1.000000e-01/1.000000e-01

 Standard Electronic Orientation quadrupole field applied
 Nucleus-field energy     =     0.0000000345 hartrees
 Guess from superposition of atomic densities
 Warning:  Energy on first SCF cycle will be non-variational
 A restricted hybrid HF-DFT SCF calculation will be
 performed using Pulay DIIS extrapolation
 Exchange:     0.2000 Hartree-Fock + 0.0800 Slater + 0.7200 B88
 Correlation:  0.1900 VWN1RPA + 0.8100 LYP
 Using SG-1 standard quadrature grid
 Dispersion:   Grimme D3
 SCF converges when DIIS error is below 1.0E-08
 -------------------------------------------------------
 OpenMP Integral computing Module                
 Release: version 1.0, May 2013, Q-Chem Inc. Pittsburgh 
 -------------------------------------------------------
 -------------------------------------------------------
 OpenMP BLAS3 based DFT computing Module                
 Release: version 1.0, May 2013, Q-Chem Inc. Pittsburgh 
 -------------------------------------------------------
 ---------------------------------------
  Cycle       Energy         DIIS Error
 ---------------------------------------
    1    -793.7951598601      1.10E-01
    2    -794.2843676763      1.34E-02
    3    -793.3333321269      3.22E-02
    4    -794.5216836078      4.73E-03
    5    -794.5484650511      1.51E-03
    6    -794.5513969032      2.61E-04
    7    -794.5514890854      3.74E-05
    8    -794.5514903283      2.22E-05
    9    -794.5514908913      7.66E-06
   10    -794.5514909686      1.53E-06
   11    -794.5514909718      3.16E-07
   12    -794.5514909719      9.25E-08
   13    -794.5514909719      1.78E-08
   14    -794.5514909720      6.56E-09 Convergence criterion met
 ---------------------------------------
 SCF time:  CPU 62.80 s  wall 2.66 s
 SCF   energy in the final basis set = -794.5514909720
 Total energy in the final basis set = -794.5514909720
 
 --------------------------------------------------------------
 
                    Orbital Energies (a.u.)
 --------------------------------------------------------------
 
 Alpha MOs
 -- Occupied --
-18.943 -18.932 -18.868 -18.867 -18.860 -10.109 -10.103 -10.074
-10.066 -10.062 -10.059 -10.033 -10.031 -10.012 -10.008 -10.003
 -1.043  -1.032  -0.988  -0.952  -0.944  -0.774  -0.743  -0.732
 -0.691  -0.670  -0.644  -0.600  -0.547  -0.535  -0.503  -0.481
 -0.469  -0.452  -0.439  -0.430  -0.426  -0.421  -0.414  -0.389
 -0.380  -0.373  -0.369  -0.361  -0.345  -0.338  -0.319  -0.311
 -0.307  -0.306  -0.290  -0.285  -0.273  -0.248  -0.240  -0.217
 -0.183  -0.173  -0.152  -0.141  -0.132
 -- Virtual --
  0.113   0.128   0.246   0.275   0.297   0.311   0.337   0.354
  0.375   0.382   0.400   0.402   0.409   0.414   0.433   0.434
  0.439   0.446   0.447   0.456   0.457   0.463   0.467   0.476
  0.483   0.487   0.501   0.503   0.508   0.531   0.544   0.578
  0.585   0.705   0.710
 --------------------------------------------------------------
 
          Ground-State Mulliken Net Atomic Charges

     Atom                 Charge (a.u.)
  ----------------------------------------
      1 C                    -0.083253
      2 C                    -0.085483
      3 C                     0.238543
      4 C                     0.240385
      5 O                    -0.189915
      6 O                    -0.229133
      7 O                    -0.193361
      8 O                    -0.227914
      9 C                    -0.126235
     10 C                    -0.125671
     11 C                     0.027112
     12 C                    -0.148912
     13 C                    -0.146349
     14 C                     0.112176
     15 O                    -0.212592
     16 H                     0.088932
     17 H                     0.086216
     18 H                     0.090756
     19 H                     0.094062
     20 H                     0.077409
     21 H                     0.072391
     22 H                     0.076456
     23 H                     0.069266
     24 H                     0.092224
     25 H                     0.097060
     26 H                     0.095371
     27 H                     0.092912
     28 H                     0.086999
     29 C                    -0.230002
     30 H                     0.079447
     31 H                     0.082736
     32 H                     0.098367
  ----------------------------------------
  Sum of atomic charges =    -0.000000

 -----------------------------------------------------------------
                    Cartesian Multipole Moments
 -----------------------------------------------------------------
    Charge (ESU x 10^10)
                 0.0000
    Dipole Moment (Debye)
         X      -0.9000      Y       1.0167      Z       2.2398
       Tot       2.6192
    Quadrupole Moments (Debye-Ang)
        XX     -78.1689     XY      -0.4924     YY     -83.5528
        XZ       1.8518     YZ      -3.7325     ZZ     -89.8619
    Octopole Moments (Debye-Ang^2)
       XXX     -39.6060    XXY       2.0281    XYY     -24.2189
       YYY      -4.1508    XXZ      -2.1840    XYZ       5.6095
       YYZ       2.6959    XZZ      -4.9119    YZZ      -1.2831
       ZZZ      -3.9507
    Hexadecapole Moments (Debye-Ang^3)
      XXXX   -1973.1049   XXXY     -37.3837   XXYY    -550.3213
      XYYY      13.0527   YYYY   -1542.9943   XXXZ     -20.5358
      XXYZ     -15.3485   XYYZ       3.7340   YYYZ     -48.0150
      XXZZ    -415.8538   XYZZ      -7.7171   YYZZ    -326.9796
      XZZZ      -2.4473   YZZZ       1.8990   ZZZZ    -354.7750
 -----------------------------------------------------------------
 Calculating analytic gradient of the SCF energy
 Gradient of SCF Energy
            1           2           3           4           5           6
    1   0.0105824  -0.0047585  -0.0132229  -0.0145618  -0.0080439   0.0193486
    2  -0.0094286   0.0006148   0.0177705  -0.0098726  -0.0439694   0.0387808
    3  -0.0409748  -0.0271339  -0.0065933   0.0069328  -0.0438092   0.0463905
            7           8           9          10          11          12
    1   0.0251284  -0.0101926   0.0105892   0.0172321  -0.0122285  -0.0111337
    2  -0.0315334   0.0398761   0.0145324  -0.0014748  -0.0114503  -0.0268783
    3  -0.0462533   0.0454110   0.0056542   0.0108542   0.0065478  -0.0228126
           13          14          15          16          17          18
    1  -0.0225272  -0.0132804   0.0045446   0.0009547   0.0009502  -0.0038117
    2   0.0054772  -0.0016595  -0.0046165  -0.0044751  -0.0029562   0.0135603
    3  -0.0246370   0.0052221   0.0629161  -0.0049379  -0.0071049   0.0038572
           19          20          21          22          23          24
    1   0.0029927   0.0007724   0.0019036  -0.0026177  -0.0008809   0.0067039
    2   0.0017931  -0.0059840  -0.0021286   0.0055801   0.0031867  -0.0023497
    3   0.0137962   0.0006951  -0.0064503   0.0039902  -0.0052610  -0.0078703
           25          26          27          28          29          30
    1   0.0031110   0.0020007   0.0092035   0.0069460  -0.0095853  -0.0048298
    2   0.0045157  -0.0084361   0.0092190  -0.0070614   0.0139670  -0.0048305
    3   0.0126380  -0.0059197   0.0042661   0.0054435   0.0229604  -0.0035494
           31          32
    1   0.0008812   0.0078296
    2   0.0043954   0.0058359
    3  -0.0032957  -0.0009721
 Max gradient component =       6.292E-02
 RMS gradient           =       1.745E-02
 Gradient time:  CPU 16.83 s  wall 0.72 s
 Geometry Optimization Parameters
   NAtoms,    NIC,     NZ,  NCons,   NDum,   NFix, NCnnct, MaxDiis
       32     251       0       2       0       0       0       0


** CONSTRAINED OPTIMIZATION IN DELOCALIZED INTERNAL COORDINATES **
   Searching for a Minimum

   Optimization Cycle:   1

                       Coordinates (Angstroms)
     ATOM                X               Y               Z
      1  C        -0.1011848019    0.8054220658    0.6072204492
      2  C         0.6620154878   -0.5364971559    0.5955533906
      3  C        -1.4015644380    0.8875516009   -0.1690949129
      4  C        -0.1410572282   -1.7318799813    0.1194146361
      5  O        -2.1190916287    1.9620046977    0.2792423188
      6  O        -1.7586593461    0.1451011244   -1.0692679610
      7  O        -1.2361871469   -1.8724092621    0.9323420513
      8  O         0.1839039632   -2.5367797787   -0.7380435496
      9  C        -2.0705618232   -2.9788079980    0.5833882767
     10  C        -3.3601324547    2.1543130106   -0.4008725103
     11  C         0.8921947687    1.7507805700   -0.0666573788
     12  C         2.1006898551    1.9956119456    0.8359583888
     13  C         2.8581814059    0.6714609442    0.7228580976
     14  C         1.9353848860   -0.1568246325   -0.1989024928
     15  O         1.4677351984    0.8937269451   -1.0780214566
     16  H        -0.3158357451    1.0989107000    1.6422969653
     17  H         0.9675145382   -0.8059543627    1.6169564177
     18  H        -1.5277085504   -3.9211288805    0.7032368423
     19  H        -3.1925366947    2.3218430413   -1.4693196780
     20  H         2.7207990583    2.8058706669    0.4368664437
     21  H         1.8242280680    2.2474343817    1.8632024401
     22  H         3.8327460722    0.8578355890    0.2561866896
     23  H         3.0366664167    0.1979666648    1.6931015044
     24  H        -2.9267737949   -2.9833521908    1.2640838105
     25  H        -2.4439876414   -2.8714877839   -0.4398988433
     26  H        -3.8403685125    3.0440784321    0.0168317195
     27  H        -4.0212059080    1.2961810682   -0.2403095674
     28  H         0.4702491978    2.6594561976   -0.5026946926
     29  C         2.6945415386   -1.2278384490   -0.9542253256
     30  H         3.6222933193   -0.8229488311   -1.3739312116
     31  H         2.9531506788   -2.0694657777   -0.3064647586
     32  H         2.1281180017   -1.5881402477   -1.8179990175
   Point Group: c1    Number of degrees of freedom:    90


   Energy is   -794.551490972

              Constraints and their Current Values
                                        Value     Constraint
   Dihedral:        2   1   3   5      161.506      157.300
   Dihedral:        1   2   4   7      -58.727      -65.000

 Attempting to Generate Delocalized Internal Coordinates

   Using Lagrange Multiplier Algorithm


 92 Hessian modes will be used to form the next step
  Hessian Eigenvalues:
    -0.977753   -0.977753    0.045000    0.045000    0.045000    0.045000
     0.045000    0.045010    0.045298    0.045515    0.048619    0.059359
     0.061550    0.067521    0.068252    0.070602    0.073231    0.073438
     0.076637    0.079785    0.081436    0.082111    0.083599    0.083601
     0.084460    0.085259    0.090062    0.091363    0.091986    0.097105
     0.108323    0.112588    0.113785    0.113804    0.116926    0.116971
     0.122385    0.127205    0.139525    0.143598    0.160000    0.160000
     0.160000    0.160000    0.160000    0.160000    0.160000    0.160000
     0.160000    0.167195    0.181257    0.244222    0.248535    0.249951
     0.250000    0.250000    0.250000    0.250000    0.252783    0.262190
     0.267687    0.287879    0.290216    0.306804    0.306860    0.308963
     0.329030    0.337223    0.340066    0.340731    0.341491    0.341652
     0.341740    0.342327    0.342899    0.343079    0.343239    0.343448
     0.343570    0.343585    0.343737    0.344460    0.344599    0.345095
     0.411320    0.412508    0.507662    0.514426    0.952633    0.953292
     1.022753    1.022753

 Minimum Search - Taking P-RFO Step
 Searching for Lamda that Maximizes Along the Constraint modes Only
 Value Taken    Lamda =   0.01004719
 Searching for Lamda that Minimizes Along All other modes
 Value Taken    Lamda =  -0.07242066
 Calculated Step too Large.  Step scaled by  0.692463
 Step Taken.  Stepsize is  0.300000

                             Maximum     Tolerance    Cnvgd?
         Gradient            0.109482       0.000300      NO
         Displacement        0.090392       0.001200      NO
         Energy change     *********       0.000001      NO


 New Cartesian Coordinates Obtained by Inverse Iteration

 Displacement from previous Coordinates is:  0.828174
 Adding empirical dispersion correction 
 ----------------------------------------------------------------
 Doing -D3(op) with
 s6 =   1.00000
 s8 =   0.78311
 a1 =   0.30000
 a2 =   4.25000
 n  =  10.00000
 -D3 energy without 3body term =     -0.0351512936 hartrees
 ----------------------------------------------------------------
             Standard Nuclear Orientation (Angstroms)
    I     Atom           X                Y                Z
 ----------------------------------------------------------------
    1      C      -0.0710397520     0.8575134817     0.6095507573
    2      C       0.6717306994    -0.5165097893     0.6125804581
    3      C      -1.4009177420     0.8981375881    -0.1853363490
    4      C      -0.1752446606    -1.7116775373     0.0954056441
    5      O      -2.1692641167     1.9710784916     0.2835908327
    6      O      -1.7552987334     0.1154660201    -1.0835578882
    7      O      -1.2632967030    -1.8686875127     0.9688091672
    8      O       0.1130111359    -2.5212675993    -0.8011222032
    9      C      -2.1208064440    -2.9850328459     0.5939936175
   10      C      -3.4426419588     2.0934315874    -0.4138402664
   11      C       0.9650667623     1.8032626931    -0.0756841519
   12      C       2.1799986773     2.0391674233     0.8755049176
   13      C       2.9232081860     0.6725099343     0.7607808088
   14      C       1.9778080205    -0.1414820936    -0.2065332960
   15      O       1.5314594835     0.9320882216    -1.1140002006
   16      H      -0.2898589434     1.1637217113     1.6457709895
   17      H       0.9792184318    -0.7976289815     1.6356596242
   18      H      -1.5819764412    -3.9487538695     0.6525404944
   19      H      -3.2995993439     2.2569340634    -1.4979332077
   20      H       2.8137969877     2.8509631633     0.4909715546
   21      H       1.8868680894     2.2931368371     1.9041907841
   22      H       3.9103465181     0.8272227061     0.3026201887
   23      H       3.0767379727     0.1802042011     1.7320901597
   24      H      -2.9572365212    -3.0054228319     1.3123539051
   25      H      -2.5331462998    -2.8544060643    -0.4234048006
   26      H      -3.9600876932     2.9707697089     0.0088267335
   27      H      -4.0766203444     1.2009688416    -0.2575473170
   28      H       0.5498795392     2.7203458619    -0.5241363923
   29      C       2.7083599653    -1.2487103536    -0.9842950483
   30      H       3.6502506954    -0.8594088439    -1.3976678947
   31      H       2.9398850849    -2.1035569617    -0.3359771432
   32      H       2.1129661880    -1.5923429374    -1.8411673921
 ----------------------------------------------------------------
 Molecular Point Group                 C1    NOp =  1
 Largest Abelian Subgroup              C1    NOp =  1
 Nuclear Repulsion Energy =  1229.2306713627 hartrees
 There are       61 alpha and       61 beta electrons
 Applying Cartesian multipole field
    Component          Value
    ---------          -----
     (2,0,0)        1.00000E-11
     (0,2,0)        2.00000E-11
     (0,0,2)       -3.00000E-11
 Nucleus-field energy     =     0.0000000348 hartrees
 Requested basis set is STO-3G
 There are 48 shells and 96 basis functions
 A cutoff of  1.0D-12 yielded   1024 shell pairs
 There are      4516 function pairs
 Smallest overlap matrix eigenvalue = 2.07E-01
 Guess MOs from SCF MO coefficient file
 Reading MOs from coefficient file
 Reading MOs from coefficient file
 A restricted hybrid HF-DFT SCF calculation will be
 performed using Pulay DIIS extrapolation
 Exchange:     0.2000 Hartree-Fock + 0.0800 Slater + 0.7200 B88
 Correlation:  0.1900 VWN1RPA + 0.8100 LYP
 Using SG-1 standard quadrature grid
 Dispersion:   Grimme D3
 SCF converges when DIIS error is below 1.0E-08
 Geometry optimization detected.  Setting ReadMinima to 0
 Setting SaveMinima to 0
 -------------------------------------------------------
 OpenMP Integral computing Module                
 Release: version 1.0, May 2013, Q-Chem Inc. Pittsburgh 
 -------------------------------------------------------
 -------------------------------------------------------
 OpenMP BLAS3 based DFT computing Module                
 Release: version 1.0, May 2013, Q-Chem Inc. Pittsburgh 
 -------------------------------------------------------
 ---------------------------------------
  Cycle       Energy         DIIS Error
 ---------------------------------------
    1    -794.4237430346      5.31E-03
    2    -794.5766637120      1.85E-03
    3    -794.5713448921      2.78E-03
    4    -794.5807525183      6.23E-04
    5    -794.5812796343      1.02E-04
    6    -794.5812943877      2.26E-05
    7    -794.5812947358      1.80E-05
    8    -794.5812951410      4.91E-06
    9    -794.5812951760      7.85E-07
   10    -794.5812951768      3.19E-07
   11    -794.5812951770      6.45E-08
   12    -794.5812951770      2.24E-08
   13    -794.5812951771      4.13E-09 Convergence criterion met
 ---------------------------------------
 SCF time:  CPU 59.41 s  wall 2.50 s
 SCF   energy in the final basis set = -794.5812951771
 Total energy in the final basis set = -794.5812951771
 
 --------------------------------------------------------------
 
                    Orbital Energies (a.u.)
 --------------------------------------------------------------
 
 Alpha MOs
 -- Occupied --
-18.941 -18.927 -18.873 -18.871 -18.861 -10.103 -10.096 -10.070
-10.062 -10.060 -10.058 -10.035 -10.031 -10.014 -10.010 -10.005
 -1.024  -1.013  -0.971  -0.942  -0.932  -0.764  -0.731  -0.722
 -0.680  -0.662  -0.638  -0.594  -0.542  -0.529  -0.496  -0.474
 -0.458  -0.443  -0.431  -0.420  -0.417  -0.411  -0.406  -0.382
 -0.378  -0.366  -0.365  -0.354  -0.343  -0.336  -0.312  -0.308
 -0.304  -0.301  -0.288  -0.281  -0.269  -0.251  -0.242  -0.222
 -0.181  -0.170  -0.153  -0.141  -0.135
 -- Virtual --
  0.103   0.120   0.237   0.261   0.279   0.295   0.319   0.338
  0.356   0.359   0.378   0.383   0.395   0.402   0.413   0.424
  0.426   0.432   0.434   0.439   0.440   0.444   0.448   0.451
  0.455   0.471   0.485   0.487   0.493   0.516   0.522   0.557
  0.562   0.667   0.672
 --------------------------------------------------------------
 
          Ground-State Mulliken Net Atomic Charges

     Atom                 Charge (a.u.)
  ----------------------------------------
      1 C                    -0.079506
      2 C                    -0.082034
      3 C                     0.222578
      4 C                     0.224360
      5 O                    -0.178144
      6 O                    -0.217441
      7 O                    -0.184605
      8 O                    -0.218428
      9 C                    -0.125137
     10 C                    -0.124980
     11 C                     0.025262
     12 C                    -0.146236
     13 C                    -0.145161
     14 C                     0.107758
     15 O                    -0.200927
     16 H                     0.087323
     17 H                     0.084231
     18 H                     0.087707
     19 H                     0.091232
     20 H                     0.076580
     21 H                     0.072443
     22 H                     0.075215
     23 H                     0.069091
     24 H                     0.088805
     25 H                     0.093419
     26 H                     0.092490
     27 H                     0.090329
     28 H                     0.084026
     29 C                    -0.227688
     30 H                     0.078493
     31 H                     0.081116
     32 H                     0.097830
  ----------------------------------------
  Sum of atomic charges =    -0.000000

 -----------------------------------------------------------------
                    Cartesian Multipole Moments
 -----------------------------------------------------------------
    Charge (ESU x 10^10)
                 0.0000
    Dipole Moment (Debye)
         X      -0.8073      Y       1.0218      Z       2.1910
       Tot       2.5488
    Quadrupole Moments (Debye-Ang)
        XX     -77.6961     XY      -0.4406     YY     -83.6217
        XZ       2.2457     YZ      -3.4684     ZZ     -89.8819
    Octopole Moments (Debye-Ang^2)
       XXX     -42.1272    XXY       1.0109    XYY     -22.8126
       YYY      -7.4249    XXZ      -2.3648    XYZ       6.3942
       YYZ       2.9583    XZZ      -5.3199    YZZ      -1.1755
       ZZZ      -3.0690
    Hexadecapole Moments (Debye-Ang^3)
      XXXX   -2045.2626   XXXY     -55.4296   XXYY    -565.1263
      XYYY       0.5238   YYYY   -1547.0899   XXXZ     -19.5116
      XXYZ     -16.9412   XYYZ       2.7329   YYYZ     -50.0066
      XXZZ    -432.0248   XYZZ     -13.8677   YYZZ    -332.0104
      XZZZ      -4.5845   YZZZ      -2.7365   ZZZZ    -371.7354
 -----------------------------------------------------------------
 Calculating analytic gradient of the SCF energy
 Gradient of SCF Energy
            1           2           3           4           5           6
    1   0.0103242  -0.0078711  -0.0049909  -0.0141871  -0.0034545   0.0051993
    2  -0.0080358  -0.0002466   0.0166104   0.0042614  -0.0204680   0.0104566
    3  -0.0228739  -0.0040143   0.0018366   0.0090754  -0.0186109   0.0125560
            7           8           9          10          11          12
    1   0.0127345   0.0002908   0.0054524   0.0098453  -0.0089847  -0.0049174
    2  -0.0149914   0.0081515   0.0080958   0.0000951  -0.0013290  -0.0069272
    3  -0.0220329   0.0146800   0.0041628   0.0069600   0.0042946  -0.0071163
           13          14          15          16          17          18
    1  -0.0058643  -0.0076365   0.0030659   0.0007503   0.0027506  -0.0014207
    2   0.0016762  -0.0035700   0.0000743  -0.0039761  -0.0030522   0.0033084
    3  -0.0110265   0.0024272   0.0208156  -0.0008276  -0.0026732   0.0023478
           19          20          21          22          23          24
    1   0.0005914   0.0005256   0.0021571  -0.0009947   0.0012986   0.0011127
    2   0.0017236  -0.0023581   0.0007434   0.0033199   0.0012436  -0.0016665
    3   0.0037009   0.0006902  -0.0017603   0.0028111  -0.0016022  -0.0029633
           25          26          27          28          29          30
    1  -0.0001046  -0.0005372   0.0016221   0.0037976  -0.0047660  -0.0019437
    2   0.0015198  -0.0024384   0.0031646  -0.0022858   0.0045815  -0.0020059
    3   0.0038372  -0.0025411   0.0019457   0.0011345   0.0119305  -0.0028489
           31          32
    1   0.0010600   0.0050949
    2   0.0014883   0.0028366
    3  -0.0014913  -0.0028237
 Max gradient component =       2.287E-02
 RMS gradient           =       7.367E-03
 Gradient time:  CPU 15.82 s  wall 0.66 s
 Geometry Optimization Parameters
   NAtoms,    NIC,     NZ,  NCons,   NDum,   NFix, NCnnct, MaxDiis
       32     251       0       2       0       0       0       0

 Cartesian Hessian Update
 Hessian Updated using BFGS Update


** CONSTRAINED OPTIMIZATION IN DELOCALIZED INTERNAL COORDINATES **
   Searching for a Minimum

   Optimization Cycle:   2

                       Coordinates (Angstroms)
     ATOM                X               Y               Z
      1  C        -0.0710397520    0.8575134817    0.6095507573
      2  C         0.6717306994   -0.5165097893    0.6125804581
      3  C        -1.4009177420    0.8981375881   -0.1853363490
      4  C        -0.1752446606   -1.7116775373    0.0954056441
      5  O        -2.1692641167    1.9710784916    0.2835908327
      6  O        -1.7552987334    0.1154660201   -1.0835578882
      7  O        -1.2632967030   -1.8686875127    0.9688091672
      8  O         0.1130111359   -2.5212675993   -0.8011222032
      9  C        -2.1208064440   -2.9850328459    0.5939936175
     10  C        -3.4426419588    2.0934315874   -0.4138402664
     11  C         0.9650667623    1.8032626931   -0.0756841519
     12  C         2.1799986773    2.0391674233    0.8755049176
     13  C         2.9232081860    0.6725099343    0.7607808088
     14  C         1.9778080205   -0.1414820936   -0.2065332960
     15  O         1.5314594835    0.9320882216   -1.1140002006
     16  H        -0.2898589434    1.1637217113    1.6457709895
     17  H         0.9792184318   -0.7976289815    1.6356596242
     18  H        -1.5819764412   -3.9487538695    0.6525404944
     19  H        -3.2995993439    2.2569340634   -1.4979332077
     20  H         2.8137969877    2.8509631633    0.4909715546
     21  H         1.8868680894    2.2931368371    1.9041907841
     22  H         3.9103465181    0.8272227061    0.3026201887
     23  H         3.0767379727    0.1802042011    1.7320901597
     24  H        -2.9572365212   -3.0054228319    1.3123539051
     25  H        -2.5331462998   -2.8544060643   -0.4234048006
     26  H        -3.9600876932    2.9707697089    0.0088267335
     27  H        -4.0766203444    1.2009688416   -0.2575473170
     28  H         0.5498795392    2.7203458619   -0.5241363923
     29  C         2.7083599653   -1.2487103536   -0.9842950483
     30  H         3.6502506954   -0.8594088439   -1.3976678947
     31  H         2.9398850849   -2.1035569617   -0.3359771432
     32  H         2.1129661880   -1.5923429374   -1.8411673921
   Point Group: c1    Number of degrees of freedom:    90


   Energy is   -794.581295177

              Constraints and their Current Values
                                        Value     Constraint
   Dihedral:        2   1   3   5      158.699      157.300
   Dihedral:        1   2   4   7      -62.915      -65.000
 Hessian Updated using BFGS Update

   Using Lagrange Multiplier Algorithm


 80 Hessian modes will be used to form the next step
  Hessian Eigenvalues:
    -0.977910   -0.977440    0.044964    0.045001    0.045015    0.045126
     0.045510    0.048616    0.059343    0.061252    0.067444    0.068273
     0.070608    0.073212    0.073404    0.076554    0.079812    0.081313
     0.082183    0.083290    0.083609    0.084452    0.085331    0.090056
     0.091309    0.091938    0.097024    0.107636    0.112367    0.113732
     0.113796    0.116926    0.116971    0.122411    0.127809    0.139446
     0.143089    0.158888    0.161539    0.166865    0.181738    0.240784
     0.246163    0.248693    0.249951    0.250133    0.252989    0.262501
     0.268983    0.289242    0.295190    0.306808    0.308571    0.318297
     0.329008    0.337223    0.340073    0.340682    0.341490    0.341724
     0.342222    0.342727    0.342999    0.343224    0.343346    0.343537
     0.343583    0.343707    0.344435    0.344584    0.345029    0.377014
     0.411899    0.417538    0.497498    0.513174    0.952899    0.974533
     1.022671    1.023798

 Minimum Search - Taking P-RFO Step
 Searching for Lamda that Maximizes Along the Constraint modes Only
 Value Taken    Lamda =   0.00081565
 Searching for Lamda that Minimizes Along All other modes
 Value Taken    Lamda =  -0.01505946
 Step Taken.  Stepsize is  0.296856

                             Maximum     Tolerance    Cnvgd?
         Gradient            0.036384       0.000300      NO
         Displacement        0.109231       0.001200      NO
         Energy change     -0.029804       0.000001      NO


 New Cartesian Coordinates Obtained by Inverse Iteration

 Displacement from previous Coordinates is:  1.183245
 Adding empirical dispersion correction 
 ----------------------------------------------------------------
 Doing -D3(op) with
 s6 =   1.00000
 s8 =   0.78311
 a1 =   0.30000
 a2 =   4.25000
 n  =  10.00000
 -D3 energy without 3body term =     -0.0354113164 hartrees
 ----------------------------------------------------------------
             Standard Nuclear Orientation (Angstroms)
    I     Atom           X                Y                Z
 ----------------------------------------------------------------
    1      C      -0.0365163403     0.9206553098     0.6437592609
    2      C       0.6983372942    -0.4707251296     0.6475660370
    3      C      -1.3878214845     0.8834400591    -0.1428618151
    4      C      -0.1870800939    -1.6426582275     0.0895270235
    5      O      -2.2135265363     1.9461985337     0.3229041190
    6      O      -1.7300052366     0.0486616475    -1.0116381580
    7      O      -1.2800888517    -1.7982730657     0.9989748996
    8      O       0.0405011529    -2.4183259120    -0.8645710730
    9      C      -2.1619061799    -2.8837976313     0.5318921793
   10      C      -3.4979905361     1.9344240127    -0.4056384006
   11      C       1.0264519946     1.8366976086    -0.0859034861
   12      C       2.2522361512     2.0616405627     0.8787509847
   13      C       2.9732809649     0.6663162917     0.7791007138
   14      C       2.0093156789    -0.1301193694    -0.2012019675
   15      O       1.5683658524     0.9399337409    -1.1335382678
   16      H      -0.2508121830     1.2644125106     1.6722903057
   17      H       1.0055026316    -0.7480370405     1.6724137538
   18      H      -1.6356448282    -3.8608105591     0.5109123356
   19      H      -3.3530377349     2.0572352372    -1.4989100368
   20      H       2.8975597403     2.8667186007     0.4916086328
   21      H       1.9445744131     2.3234083906     1.9041361420
   22      H       3.9675116268     0.7733141992     0.3159276650
   23      H       3.0986049371     0.1697671879     1.7549586912
   24      H      -2.9966868021    -2.9315428329     1.2561696670
   25      H      -2.5629081664    -2.6772807564    -0.4819103685
   26      H      -4.0794067897     2.7892300949    -0.0123869839
   27      H      -4.0587990174     0.9932884843    -0.2283190473
   28      H       0.6070859278     2.7510298117    -0.5497871958
   29      C       2.6847801662    -1.2844669588    -0.9832953679
   30      H       3.6370443629    -0.9333513375    -1.4114531331
   31      H       2.8854121863    -2.1354542383    -0.3152990141
   32      H       2.0292224398    -1.6194949108    -1.8011410096
 ----------------------------------------------------------------
 Molecular Point Group                 C1    NOp =  1
 Largest Abelian Subgroup              C1    NOp =  1
 Nuclear Repulsion Energy =  1227.7286072898 hartrees
 There are       61 alpha and       61 beta electrons
 Applying Cartesian multipole field
    Component          Value
    ---------          -----
     (2,0,0)        1.00000E-11
     (0,2,0)        2.00000E-11
     (0,0,2)       -3.00000E-11
 Nucleus-field energy     =     0.0000000339 hartrees
 Requested basis set is STO-3G
 There are 48 shells and 96 basis functions
 A cutoff of  1.0D-12 yielded   1023 shell pairs
 There are      4515 function pairs
 Smallest overlap matrix eigenvalue = 2.13E-01
 Guess MOs from SCF MO coefficient file
 Reading MOs from coefficient file
 Reading MOs from coefficient file
 A restricted hybrid HF-DFT SCF calculation will be
 performed using Pulay DIIS extrapolation
 Exchange:     0.2000 Hartree-Fock + 0.0800 Slater + 0.7200 B88
 Correlation:  0.1900 VWN1RPA + 0.8100 LYP
 Using SG-1 standard quadrature grid
 Dispersion:   Grimme D3
 SCF converges when DIIS error is below 1.0E-08
 Geometry optimization detected.  Setting ReadMinima to 0
 Setting SaveMinima to 0
 -------------------------------------------------------
 OpenMP Integral computing Module                
 Release: version 1.0, May 2013, Q-Chem Inc. Pittsburgh 
 -------------------------------------------------------
 -------------------------------------------------------
 OpenMP BLAS3 based DFT computing Module                
 Release: version 1.0, May 2013, Q-Chem Inc. Pittsburgh 
 -------------------------------------------------------
 ---------------------------------------
  Cycle       Energy         DIIS Error
 ---------------------------------------
    1    -794.4855500361      4.99E-03
    2    -794.5863704128      1.30E-03
    3    -794.5817286508      2.33E-03
    4    -794.5885067697      4.17E-04
    5    -794.5887389135      1.02E-04
    6    -794.5887532213      2.47E-05
    7    -794.5887535290      2.13E-05
    8    -794.5887541187      4.48E-06
    9    -794.5887541483      7.53E-07
   10    -794.5887541491      3.54E-07
   11    -794.5887541493      5.71E-08
   12    -794.5887541494      2.46E-08
   13    -794.5887541494      4.94E-09 Convergence criterion met
 ---------------------------------------
 SCF time:  CPU 58.08 s  wall 2.44 s
 SCF   energy in the final basis set = -794.5887541494
 Total energy in the final basis set = -794.5887541494
 
 --------------------------------------------------------------
 
                    Orbital Energies (a.u.)
 --------------------------------------------------------------
 
 Alpha MOs
 -- Occupied --
-18.941 -18.921 -18.878 -18.877 -18.862 -10.101 -10.091 -10.067
-10.058 -10.058 -10.056 -10.036 -10.029 -10.017 -10.012 -10.004
 -1.017  -1.001  -0.964  -0.939  -0.925  -0.761  -0.725  -0.717
 -0.673  -0.655  -0.635  -0.590  -0.541  -0.525  -0.491  -0.470
 -0.453  -0.439  -0.429  -0.415  -0.414  -0.404  -0.401  -0.380
 -0.376  -0.366  -0.357  -0.351  -0.340  -0.334  -0.311  -0.306
 -0.306  -0.294  -0.289  -0.276  -0.268  -0.255  -0.245  -0.226
 -0.182  -0.166  -0.155  -0.140  -0.138
 -- Virtual --
  0.095   0.118   0.236   0.255   0.274   0.287   0.309   0.327
  0.344   0.345   0.362   0.374   0.386   0.394   0.407   0.419
  0.422   0.425   0.427   0.430   0.432   0.436   0.439   0.441
  0.449   0.464   0.476   0.480   0.491   0.505   0.514   0.548
  0.554   0.647   0.658
 --------------------------------------------------------------
 
          Ground-State Mulliken Net Atomic Charges

     Atom                 Charge (a.u.)
  ----------------------------------------
      1 C                    -0.078452
      2 C                    -0.081873
      3 C                     0.215679
      4 C                     0.216454
      5 O                    -0.168827
      6 O                    -0.210358
      7 O                    -0.179575
      8 O                    -0.214481
      9 C                    -0.127612
     10 C                    -0.127164
     11 C                     0.024426
     12 C                    -0.144425
     13 C                    -0.144517
     14 C                     0.104983
     15 O                    -0.194969
     16 H                     0.086828
     17 H                     0.082852
     18 H                     0.085878
     19 H                     0.090507
     20 H                     0.076945
     21 H                     0.072860
     22 H                     0.074343
     23 H                     0.069836
     24 H                     0.085562
     25 H                     0.092034
     26 H                     0.090895
     27 H                     0.089832
     28 H                     0.082038
     29 C                    -0.227306
     30 H                     0.077979
     31 H                     0.079409
     32 H                     0.100216
  ----------------------------------------
  Sum of atomic charges =    -0.000000

 -----------------------------------------------------------------
                    Cartesian Multipole Moments
 -----------------------------------------------------------------
    Charge (ESU x 10^10)
                -0.0000
    Dipole Moment (Debye)
         X      -0.6929      Y       1.0659      Z       2.0672
       Tot       2.4269
    Quadrupole Moments (Debye-Ang)
        XX     -77.6916     XY      -0.4457     YY     -84.2282
        XZ       2.7454     YZ      -3.0131     ZZ     -89.8780
    Octopole Moments (Debye-Ang^2)
       XXX     -43.7141    XXY      -0.5209    XYY     -19.2024
       YYY     -10.9918    XXZ      -3.5931    XYZ       6.2037
       YYZ       1.6158    XZZ      -5.9647    YZZ      -1.1205
       ZZZ      -4.6448
    Hexadecapole Moments (Debye-Ang^3)
      XXXX   -2096.3062   XXXY     -71.5737   XXYY    -571.2266
      XYYY     -16.4742   YYYY   -1482.0852   XXXZ     -19.2604
      XXYZ     -20.6339   XYYZ       2.0538   YYYZ     -56.1197
      XXZZ    -441.3096   XYZZ     -20.3767   YYZZ    -322.5568
      XZZZ      -4.4105   YZZZ     -15.8222   ZZZZ    -374.1537
 -----------------------------------------------------------------
 Calculating analytic gradient of the SCF energy
 Gradient of SCF Energy
            1           2           3           4           5           6
    1   0.0049403  -0.0056072  -0.0025603  -0.0074325  -0.0008879   0.0000544
    2  -0.0018824   0.0014430   0.0059636   0.0040436  -0.0023800  -0.0021041
    3  -0.0078619   0.0040319  -0.0013922   0.0030746   0.0003547   0.0008122
            7           8           9          10          11          12
    1   0.0026816   0.0024767   0.0032509   0.0043497  -0.0025961  -0.0023161
    2  -0.0005553  -0.0029055   0.0024288  -0.0015458   0.0018238  -0.0005559
    3  -0.0027808  -0.0003183  -0.0004183   0.0011751   0.0052956  -0.0001218
           13          14          15          16          17          18
    1  -0.0017585  -0.0024878   0.0032599  -0.0007685   0.0032773   0.0001454
    2  -0.0010500  -0.0024785  -0.0002875  -0.0020105   0.0000199  -0.0002874
    3  -0.0011921  -0.0001555   0.0000005   0.0011902  -0.0007371   0.0003001
           19          20          21          22          23          24
    1  -0.0001279   0.0005818   0.0007387   0.0002323   0.0013692  -0.0001344
    2   0.0001910  -0.0002086   0.0011206   0.0003634  -0.0000309   0.0003088
    3  -0.0003490  -0.0002610   0.0001053  -0.0000613   0.0003109   0.0003057
           25          26          27          28          29          30
    1  -0.0003491  -0.0000141  -0.0002923   0.0001299  -0.0016572   0.0002351
    2  -0.0002785   0.0003224  -0.0001386  -0.0004723  -0.0003985   0.0002123
    3  -0.0001089   0.0001956   0.0002162  -0.0014502   0.0025288  -0.0007054
           31          32
    1   0.0000497   0.0012170
    2  -0.0000495   0.0013786
    3   0.0000306  -0.0020142
 Max gradient component =       7.862E-03
 RMS gradient           =       2.190E-03
 Gradient time:  CPU 16.19 s  wall 0.68 s
 Geometry Optimization Parameters
   NAtoms,    NIC,     NZ,  NCons,   NDum,   NFix, NCnnct, MaxDiis
       32     251       0       2       0       0       0       0

 Cartesian Hessian Update
 Hessian Updated using BFGS Update


** CONSTRAINED OPTIMIZATION IN DELOCALIZED INTERNAL COORDINATES **
   Searching for a Minimum

   Optimization Cycle:   3

                       Coordinates (Angstroms)
     ATOM                X               Y               Z
      1  C        -0.0365163403    0.9206553098    0.6437592609
      2  C         0.6983372942   -0.4707251296    0.6475660370
      3  C        -1.3878214845    0.8834400591   -0.1428618151
      4  C        -0.1870800939   -1.6426582275    0.0895270235
      5  O        -2.2135265363    1.9461985337    0.3229041190
      6  O        -1.7300052366    0.0486616475   -1.0116381580
      7  O        -1.2800888517   -1.7982730657    0.9989748996
      8  O         0.0405011529   -2.4183259120   -0.8645710730
      9  C        -2.1619061799   -2.8837976313    0.5318921793
     10  C        -3.4979905361    1.9344240127   -0.4056384006
     11  C         1.0264519946    1.8366976086   -0.0859034861
     12  C         2.2522361512    2.0616405627    0.8787509847
     13  C         2.9732809649    0.6663162917    0.7791007138
     14  C         2.0093156789   -0.1301193694   -0.2012019675
     15  O         1.5683658524    0.9399337409   -1.1335382678
     16  H        -0.2508121830    1.2644125106    1.6722903057
     17  H         1.0055026316   -0.7480370405    1.6724137538
     18  H        -1.6356448282   -3.8608105591    0.5109123356
     19  H        -3.3530377349    2.0572352372   -1.4989100368
     20  H         2.8975597403    2.8667186007    0.4916086328
     21  H         1.9445744131    2.3234083906    1.9041361420
     22  H         3.9675116268    0.7733141992    0.3159276650
     23  H         3.0986049371    0.1697671879    1.7549586912
     24  H        -2.9966868021   -2.9315428329    1.2561696670
     25  H        -2.5629081664   -2.6772807564   -0.4819103685
     26  H        -4.0794067897    2.7892300949   -0.0123869839
     27  H        -4.0587990174    0.9932884843   -0.2283190473
     28  H         0.6070859278    2.7510298117   -0.5497871958
     29  C         2.6847801662   -1.2844669588   -0.9832953679
     30  H         3.6370443629   -0.9333513375   -1.4114531331
     31  H         2.8854121863   -2.1354542383   -0.3152990141
     32  H         2.0292224398   -1.6194949108   -1.8011410096
   Point Group: c1    Number of degrees of freedom:    90


   Energy is   -794.588754149

              Constraints and their Current Values
                                        Value     Constraint
   Dihedral:        2   1   3   5      157.309      157.300
   Dihedral:        1   2   4   7      -64.981      -65.000
 Hessian Updated using BFGS Update

   Using Lagrange Multiplier Algorithm


 83 Hessian modes will be used to form the next step
  Hessian Eigenvalues:
    -0.977655   -0.976058    0.042602    0.045000    0.045001    0.045012
     0.045337    0.045509    0.048563    0.059414    0.059946    0.066461
     0.068310    0.070718    0.072959    0.073514    0.076199    0.079721
     0.080906    0.082137    0.083011    0.083660    0.084466    0.085507
     0.090111    0.091282    0.092209    0.096959    0.107975    0.113298
     0.113739    0.113797    0.116927    0.116978    0.123132    0.128461
     0.140106    0.144089    0.159250    0.160542    0.161672    0.171945
     0.182159    0.241260    0.246619    0.249257    0.249984    0.250112
     0.251465    0.262477    0.266438    0.270293    0.289390    0.295224
     0.306611    0.308605    0.316745    0.330150    0.337138    0.340087
     0.340788    0.341317    0.341793    0.341866    0.342555    0.342970
     0.343218    0.343329    0.343528    0.343588    0.343703    0.344433
     0.344599    0.345089    0.382938    0.398882    0.412069    0.480418
     0.513303    0.952620    0.984507    1.022952    1.033058

 Minimum Search - Taking P-RFO Step
 Searching for Lamda that Maximizes Along the Constraint modes Only
 Value Taken    Lamda =   0.00004544
 Searching for Lamda that Minimizes Along All other modes
 Value Taken    Lamda =  -0.00153880
 Step Taken.  Stepsize is  0.149678

                             Maximum     Tolerance    Cnvgd?
         Gradient            0.008815       0.000300      NO
         Displacement        0.059521       0.001200      NO
         Energy change     -0.007459       0.000001      NO


 New Cartesian Coordinates Obtained by Inverse Iteration

 Displacement from previous Coordinates is:  0.274265
 Adding empirical dispersion correction 
 ----------------------------------------------------------------
 Doing -D3(op) with
 s6 =   1.00000
 s8 =   0.78311
 a1 =   0.30000
 a2 =   4.25000
 n  =  10.00000
 -D3 energy without 3body term =     -0.0354549013 hartrees
 ----------------------------------------------------------------
             Standard Nuclear Orientation (Angstroms)
    I     Atom           X                Y                Z
 ----------------------------------------------------------------
    1      C      -0.0306797474     0.9208718862     0.6608799604
    2      C       0.7157816319    -0.4756027127     0.6580761907
    3      C      -1.3837162418     0.8756203915    -0.1282149848
    4      C      -0.1703724037    -1.6524524561     0.0948981993
    5      O      -2.2277547736     1.9329834035     0.3372758707
    6      O      -1.7169376367     0.0517793558    -1.0112833141
    7      O      -1.2692219989    -1.8196175142     1.0106450811
    8      O       0.0323818157    -2.4012173029    -0.8848730567
    9      C      -2.1814174694    -2.8778616643     0.5196931019
   10      C      -3.5132880597     1.9269977443    -0.4048022784
   11      C       1.0293568929     1.8329245760    -0.0905877286
   12      C       2.2615338151     2.0704078082     0.8671793459
   13      C       2.9895577400     0.6798444045     0.7731078702
   14      C       2.0230632746    -0.1272932657    -0.1989727189
   15      O       1.5589223926     0.9300020495    -1.1381531002
   16      H      -0.2389442710     1.2778544980     1.6851817954
   17      H       1.0138618824    -0.7509654101     1.6856879409
   18      H      -1.6736626649    -3.8625853033     0.4575520178
   19      H      -3.3571237996     2.0613720631    -1.4948166110
   20      H       2.8971558540     2.8811840080     0.4766092377
   21      H       1.9495310344     2.3284640422     1.8920932326
   22      H       3.9825420311     0.7844745571     0.3072524783
   23      H       3.1113915343     0.1874861261     1.7508189368
   24      H      -3.0100646635    -2.9352360736     1.2498804085
   25      H      -2.5849151600    -2.6278360206    -0.4831799328
   26      H      -4.1020267401     2.7741035462    -0.0068789752
   27      H      -4.0697182303     0.9803031110    -0.2457475005
   28      H       0.5994925983     2.7450122109    -0.5496794274
   29      C       2.6947600325    -1.2921214167    -0.9735588558
   30      H       3.6408074438    -0.9482832622    -1.4189166102
   31      H       2.9045995278    -2.1287196743    -0.2902112421
   32      H       2.0186610990    -1.6498593914    -1.7639182455
 ----------------------------------------------------------------
 Molecular Point Group                 C1    NOp =  1
 Largest Abelian Subgroup              C1    NOp =  1
 Nuclear Repulsion Energy =  1225.5070084823 hartrees
 There are       61 alpha and       61 beta electrons
 Applying Cartesian multipole field
    Component          Value
    ---------          -----
     (2,0,0)        1.00000E-11
     (0,2,0)        2.00000E-11
     (0,0,2)       -3.00000E-11
 Nucleus-field energy     =     0.0000000340 hartrees
 Requested basis set is STO-3G
 There are 48 shells and 96 basis functions
 A cutoff of  1.0D-12 yielded   1021 shell pairs
 There are      4507 function pairs
 Smallest overlap matrix eigenvalue = 2.14E-01
 Guess MOs from SCF MO coefficient file
 Reading MOs from coefficient file
 Reading MOs from coefficient file
 A restricted hybrid HF-DFT SCF calculation will be
 performed using Pulay DIIS extrapolation
 Exchange:     0.2000 Hartree-Fock + 0.0800 Slater + 0.7200 B88
 Correlation:  0.1900 VWN1RPA + 0.8100 LYP
 Using SG-1 standard quadrature grid
 Dispersion:   Grimme D3
 SCF converges when DIIS error is below 1.0E-08
 Geometry optimization detected.  Setting ReadMinima to 0
 Setting SaveMinima to 0
 -------------------------------------------------------
 OpenMP Integral computing Module                
 Release: version 1.0, May 2013, Q-Chem Inc. Pittsburgh 
 -------------------------------------------------------
 -------------------------------------------------------
 OpenMP BLAS3 based DFT computing Module                
 Release: version 1.0, May 2013, Q-Chem Inc. Pittsburgh 
 -------------------------------------------------------
 ---------------------------------------
  Cycle       Energy         DIIS Error
 ---------------------------------------
    1    -794.5715935029      1.85E-03
    2    -794.5894200005      3.90E-04
    3    -794.5886909395      8.51E-04
    4    -794.5896318608      7.24E-05
    5    -794.5896385148      2.75E-05
    6    -794.5896393275      1.30E-05
    7    -794.5896394953      6.59E-06
    8    -794.5896395539      1.01E-06
    9    -794.5896395554      1.70E-07
   10    -794.5896395555      7.99E-08
   11    -794.5896395554      1.60E-08
   12    -794.5896395554      4.74E-09 Convergence criterion met
 ---------------------------------------
 SCF time:  CPU 53.12 s  wall 2.24 s
 SCF   energy in the final basis set = -794.5896395554
 Total energy in the final basis set = -794.5896395554
 
 --------------------------------------------------------------
 
                    Orbital Energies (a.u.)
 --------------------------------------------------------------
 
 Alpha MOs
 -- Occupied --
-18.937 -18.918 -18.879 -18.877 -18.865 -10.100 -10.091 -10.066
-10.059 -10.058 -10.055 -10.036 -10.030 -10.018 -10.013 -10.005
 -1.013  -0.997  -0.964  -0.936  -0.924  -0.760  -0.725  -0.717
 -0.671  -0.654  -0.635  -0.591  -0.541  -0.524  -0.489  -0.469
 -0.452  -0.438  -0.429  -0.414  -0.413  -0.403  -0.401  -0.381
 -0.376  -0.366  -0.357  -0.350  -0.340  -0.335  -0.312  -0.306
 -0.306  -0.293  -0.289  -0.276  -0.267  -0.254  -0.245  -0.227
 -0.180  -0.165  -0.154  -0.141  -0.139
 -- Virtual --
  0.095   0.117   0.233   0.251   0.270   0.286   0.307   0.325
  0.341   0.343   0.357   0.373   0.384   0.392   0.404   0.419
  0.422   0.423   0.426   0.429   0.432   0.434   0.439   0.440
  0.449   0.463   0.474   0.479   0.492   0.502   0.512   0.546
  0.553   0.645   0.657
 --------------------------------------------------------------
 
          Ground-State Mulliken Net Atomic Charges

     Atom                 Charge (a.u.)
  ----------------------------------------
      1 C                    -0.077993
      2 C                    -0.081156
      3 C                     0.213376
      4 C                     0.214900
      5 O                    -0.168848
      6 O                    -0.210367
      7 O                    -0.178691
      8 O                    -0.212405
      9 C                    -0.129085
     10 C                    -0.128384
     11 C                     0.024693
     12 C                    -0.144444
     13 C                    -0.144838
     14 C                     0.104926
     15 O                    -0.193613
     16 H                     0.086969
     17 H                     0.082694
     18 H                     0.085834
     19 H                     0.090303
     20 H                     0.077211
     21 H                     0.073094
     22 H                     0.074869
     23 H                     0.070621
     24 H                     0.085909
     25 H                     0.091866
     26 H                     0.091053
     27 H                     0.089620
     28 H                     0.081830
     29 C                    -0.228551
     30 H                     0.078401
     31 H                     0.078788
     32 H                     0.101418
  ----------------------------------------
  Sum of atomic charges =    -0.000000

 -----------------------------------------------------------------
                    Cartesian Multipole Moments
 -----------------------------------------------------------------
    Charge (ESU x 10^10)
                -0.0000
    Dipole Moment (Debye)
         X      -0.6187      Y       1.0496      Z       2.0672
       Tot       2.3995
    Quadrupole Moments (Debye-Ang)
        XX     -77.5018     XY      -0.3580     YY     -84.1120
        XZ       2.8064     YZ      -2.9290     ZZ     -90.0289
    Octopole Moments (Debye-Ang^2)
       XXX     -44.6123    XXY      -0.5480    XYY     -19.2006
       YYY     -10.9488    XXZ      -3.9125    XYZ       6.1700
       YYZ       1.1406    XZZ      -6.0694    YZZ      -0.6847
       ZZZ      -4.7334
    Hexadecapole Moments (Debye-Ang^3)
      XXXX   -2107.8709   XXXY     -72.5880   XXYY    -573.0657
      XYYY     -17.6444   YYYY   -1478.4013   XXXZ     -19.1740
      XXYZ     -21.5392   XYYZ       1.8973   YYYZ     -55.9002
      XXZZ    -444.0726   XYZZ     -20.9020   YYZZ    -322.9806
      XZZZ      -4.1765   YZZZ     -17.0449   ZZZZ    -375.0515
 -----------------------------------------------------------------
 Calculating analytic gradient of the SCF energy
 Gradient of SCF Energy
            1           2           3           4           5           6
    1   0.0023692  -0.0013924   0.0019058  -0.0001327  -0.0003104  -0.0008590
    2   0.0010662  -0.0003007   0.0029303   0.0018549  -0.0012198  -0.0019859
    3  -0.0020154   0.0030431  -0.0005280   0.0005008   0.0011673  -0.0004731
            7           8           9          10          11          12
    1  -0.0002054   0.0007499  -0.0013252  -0.0014475  -0.0006614  -0.0004467
    2   0.0001631  -0.0020036  -0.0005829   0.0009660   0.0016966  -0.0000726
    3  -0.0001894  -0.0005696   0.0006991  -0.0000364   0.0028967   0.0006038
           13          14          15          16          17          18
    1   0.0001716  -0.0007816   0.0012443  -0.0008820   0.0017397   0.0000189
    2  -0.0003455  -0.0008766  -0.0000636  -0.0010240   0.0003643  -0.0001856
    3   0.0005666  -0.0001934  -0.0023800   0.0003061  -0.0006627  -0.0000993
           19          20          21          22          23          24
    1  -0.0001478   0.0003161   0.0001849   0.0000512   0.0006629  -0.0003824
    2  -0.0001886  -0.0001709   0.0005144   0.0002254   0.0000695  -0.0002017
    3  -0.0001723  -0.0003079   0.0000749  -0.0002156   0.0000219  -0.0000057
           25          26          27          28          29          30
    1   0.0001094  -0.0003984  -0.0001427  -0.0003344  -0.0000552   0.0004137
    2  -0.0001996   0.0001275  -0.0001599  -0.0002849  -0.0007876   0.0000935
    3  -0.0001735  -0.0001620  -0.0001707  -0.0007453  -0.0002909   0.0004138
           31          32
    1  -0.0005674   0.0005353
    2  -0.0002336   0.0008161
    3  -0.0002239  -0.0006789
 Max gradient component =       3.043E-03
 RMS gradient           =       9.633E-04
 Gradient time:  CPU 16.12 s  wall 0.68 s
 Geometry Optimization Parameters
   NAtoms,    NIC,     NZ,  NCons,   NDum,   NFix, NCnnct, MaxDiis
       32     251       0       2       0       0       0       0

 Cartesian Hessian Update
 Hessian Updated using BFGS Update


** CONSTRAINED OPTIMIZATION IN DELOCALIZED INTERNAL COORDINATES **
   Searching for a Minimum

   Optimization Cycle:   4

                       Coordinates (Angstroms)
     ATOM                X               Y               Z
      1  C        -0.0306797474    0.9208718862    0.6608799604
      2  C         0.7157816319   -0.4756027127    0.6580761907
      3  C        -1.3837162418    0.8756203915   -0.1282149848
      4  C        -0.1703724037   -1.6524524561    0.0948981993
      5  O        -2.2277547736    1.9329834035    0.3372758707
      6  O        -1.7169376367    0.0517793558   -1.0112833141
      7  O        -1.2692219989   -1.8196175142    1.0106450811
      8  O         0.0323818157   -2.4012173029   -0.8848730567
      9  C        -2.1814174694   -2.8778616643    0.5196931019
     10  C        -3.5132880597    1.9269977443   -0.4048022784
     11  C         1.0293568929    1.8329245760   -0.0905877286
     12  C         2.2615338151    2.0704078082    0.8671793459
     13  C         2.9895577400    0.6798444045    0.7731078702
     14  C         2.0230632746   -0.1272932657   -0.1989727189
     15  O         1.5589223926    0.9300020495   -1.1381531002
     16  H        -0.2389442710    1.2778544980    1.6851817954
     17  H         1.0138618824   -0.7509654101    1.6856879409
     18  H        -1.6736626649   -3.8625853033    0.4575520178
     19  H        -3.3571237996    2.0613720631   -1.4948166110
     20  H         2.8971558540    2.8811840080    0.4766092377
     21  H         1.9495310344    2.3284640422    1.8920932326
     22  H         3.9825420311    0.7844745571    0.3072524783
     23  H         3.1113915343    0.1874861261    1.7508189368
     24  H        -3.0100646635   -2.9352360736    1.2498804085
     25  H        -2.5849151600   -2.6278360206   -0.4831799328
     26  H        -4.1020267401    2.7741035462   -0.0068789752
     27  H        -4.0697182303    0.9803031110   -0.2457475005
     28  H         0.5994925983    2.7450122109   -0.5496794274
     29  C         2.6947600325   -1.2921214167   -0.9735588558
     30  H         3.6408074438   -0.9482832622   -1.4189166102
     31  H         2.9045995278   -2.1287196743   -0.2902112421
     32  H         2.0186610990   -1.6498593914   -1.7639182455
   Point Group: c1    Number of degrees of freedom:    90


   Energy is   -794.589639555

              Constraints and their Current Values
                                        Value     Constraint
   Dihedral:        2   1   3   5      157.300      157.300
   Dihedral:        1   2   4   7      -64.999      -65.000
 Hessian Updated using BFGS Update

   Using Lagrange Multiplier Algorithm


 86 Hessian modes will be used to form the next step
  Hessian Eigenvalues:
    -0.977153   -0.974060    0.025930    0.045000    0.045001    0.045005
     0.045152    0.045434    0.045953    0.048508    0.057763    0.059418
     0.065492    0.068303    0.070824    0.072672    0.073528    0.075951
     0.079679    0.081033    0.082097    0.083061    0.083660    0.084478
     0.085519    0.090081    0.091267    0.092207    0.097021    0.107914
     0.113606    0.113797    0.114493    0.116927    0.116981    0.123103
     0.128804    0.140015    0.144164    0.159340    0.160116    0.160911
     0.162112    0.170737    0.182235    0.240907    0.246146    0.249156
     0.249998    0.250047    0.250283    0.251325    0.262505    0.268252
     0.287171    0.290513    0.295683    0.307402    0.309052    0.322454
     0.328879    0.337520    0.340264    0.340757    0.341520    0.341768
     0.342427    0.342948    0.343162    0.343322    0.343508    0.343532
     0.343699    0.344373    0.344504    0.344984    0.346557    0.382131
     0.412040    0.449195    0.512786    0.541210    0.953242    0.979960
     1.025236    1.037835

 Minimum Search - Taking P-RFO Step
 Searching for Lamda that Maximizes Along the Constraint modes Only
 Value Taken    Lamda =   0.00000196
 Searching for Lamda that Minimizes Along All other modes
 Value Taken    Lamda =  -0.00054129
 Step Taken.  Stepsize is  0.127878

                             Maximum     Tolerance    Cnvgd?
         Gradient            0.004110       0.000300      NO
         Displacement        0.046101       0.001200      NO
         Energy change     -0.000885       0.000001      NO


 New Cartesian Coordinates Obtained by Inverse Iteration

 Displacement from previous Coordinates is:  0.274686
 Adding empirical dispersion correction 
 ----------------------------------------------------------------
 Doing -D3(op) with
 s6 =   1.00000
 s8 =   0.78311
 a1 =   0.30000
 a2 =   4.25000
 n  =  10.00000
 -D3 energy without 3body term =     -0.0355630877 hartrees
 ----------------------------------------------------------------
             Standard Nuclear Orientation (Angstroms)
    I     Atom           X                Y                Z
 ----------------------------------------------------------------
    1      C      -0.0298228121     0.9147673060     0.6729040154
    2      C       0.7234155227    -0.4806170800     0.6668922684
    3      C      -1.3832884196     0.8648673205    -0.1133529584
    4      C      -0.1615900348    -1.6558740436     0.0994701437
    5      O      -2.2278527620     1.9203855515     0.3586929773
    6      O      -1.7125159555     0.0547321288    -1.0096019801
    7      O      -1.2601672794    -1.8249090907     1.0178830697
    8      O       0.0234971304    -2.3826768320    -0.8989397205
    9      C      -2.1841421056    -2.8586209183     0.4976252442
   10      C      -3.5060019165     1.9138616244    -0.3956287868
   11      C       1.0224419134     1.8241576844    -0.0983396072
   12      C       2.2587194702     2.0777626038     0.8509879672
   13      C       2.9932786104     0.6915474112     0.7649880982
   14      C       2.0260765000    -0.1284675649    -0.1949989899
   15      O       1.5426342178     0.9144103133    -1.1407912126
   16      H      -0.2294235457     1.2826596785     1.6946643813
   17      H       1.0119233123    -0.7547414731     1.6980970956
   18      H      -1.6877386450    -3.8466387016     0.4048966851
   19      H      -3.3393329190     2.0581898741    -1.4828080189
   20      H       2.8843944594     2.8935112608     0.4555496580
   21      H       1.9450467385     2.3355380394     1.8753210492
   22      H       3.9853178037     0.7932761196     0.2972298636
   23      H       3.1133180452     0.2061731819     1.7462027837
   24      H      -3.0098025480    -2.9265072062     1.2297268961
   25      H      -2.5874934334    -2.5727566543    -0.4958150828
   26      H      -4.0990158028     2.7558395844     0.0058011344
   27      H      -4.0596100509     0.9636862967    -0.2485547746
   28      H       0.5849288411     2.7338446633    -0.5547844968
   29      C       2.6960467179    -1.3025736401    -0.9571560553
   30      H       3.6322018928    -0.9640931005    -1.4255330485
   31      H       2.9230993724    -2.1204201836    -0.2563658692
   32      H       2.0050144221    -1.6882798397    -1.7212256436
 ----------------------------------------------------------------
 Molecular Point Group                 C1    NOp =  1
 Largest Abelian Subgroup              C1    NOp =  1
 Nuclear Repulsion Energy =  1226.9786223951 hartrees
 There are       61 alpha and       61 beta electrons
 Applying Cartesian multipole field
    Component          Value
    ---------          -----
     (2,0,0)        1.00000E-11
     (0,2,0)        2.00000E-11
     (0,0,2)       -3.00000E-11
 Nucleus-field energy     =     0.0000000338 hartrees
 Requested basis set is STO-3G
 There are 48 shells and 96 basis functions
 A cutoff of  1.0D-12 yielded   1022 shell pairs
 There are      4508 function pairs
 Smallest overlap matrix eigenvalue = 2.14E-01
 Guess MOs from SCF MO coefficient file
 Reading MOs from coefficient file
 Reading MOs from coefficient file
 A restricted hybrid HF-DFT SCF calculation will be
 performed using Pulay DIIS extrapolation
 Exchange:     0.2000 Hartree-Fock + 0.0800 Slater + 0.7200 B88
 Correlation:  0.1900 VWN1RPA + 0.8100 LYP
 Using SG-1 standard quadrature grid
 Dispersion:   Grimme D3
 SCF converges when DIIS error is below 1.0E-08
 Geometry optimization detected.  Setting ReadMinima to 0
 Setting SaveMinima to 0
 -------------------------------------------------------
 OpenMP Integral computing Module                
 Release: version 1.0, May 2013, Q-Chem Inc. Pittsburgh 
 -------------------------------------------------------
 -------------------------------------------------------
 OpenMP BLAS3 based DFT computing Module                
 Release: version 1.0, May 2013, Q-Chem Inc. Pittsburgh 
 -------------------------------------------------------
 ---------------------------------------
  Cycle       Energy         DIIS Error
 ---------------------------------------
    1    -794.5875281227      1.40E-03
    2    -794.5899481156      1.37E-04
    3    -794.5898966225      2.61E-04
    4    -794.5899819964      4.76E-05
    5    -794.5899846343      1.86E-05
    6    -794.5899850782      6.47E-06
    7    -794.5899851257      2.72E-06
    8    -794.5899851351      7.30E-07
    9    -794.5899851358      1.16E-07
   10    -794.5899851359      5.09E-08
   11    -794.5899851358      1.09E-08
   12    -794.5899851358      3.06E-09 Convergence criterion met
 ---------------------------------------
 SCF time:  CPU 52.92 s  wall 2.23 s
 SCF   energy in the final basis set = -794.5899851358
 Total energy in the final basis set = -794.5899851358
 
 --------------------------------------------------------------
 
                    Orbital Energies (a.u.)
 --------------------------------------------------------------
 
 Alpha MOs
 -- Occupied --
-18.937 -18.919 -18.880 -18.877 -18.867 -10.099 -10.091 -10.065
-10.059 -10.058 -10.055 -10.036 -10.030 -10.018 -10.013 -10.004
 -1.013  -0.998  -0.965  -0.936  -0.925  -0.760  -0.725  -0.717
 -0.671  -0.653  -0.635  -0.591  -0.540  -0.525  -0.489  -0.469
 -0.452  -0.438  -0.429  -0.414  -0.413  -0.403  -0.401  -0.381
 -0.376  -0.366  -0.357  -0.349  -0.339  -0.335  -0.312  -0.307
 -0.306  -0.293  -0.289  -0.276  -0.267  -0.254  -0.246  -0.228
 -0.179  -0.166  -0.154  -0.142  -0.139
 -- Virtual --
  0.095   0.116   0.234   0.252   0.270   0.287   0.307   0.326
  0.340   0.343   0.356   0.373   0.384   0.392   0.403   0.418
  0.422   0.423   0.426   0.429   0.432   0.433   0.439   0.440
  0.449   0.462   0.473   0.478   0.493   0.502   0.512   0.545
  0.553   0.646   0.658
 --------------------------------------------------------------
 
          Ground-State Mulliken Net Atomic Charges

     Atom                 Charge (a.u.)
  ----------------------------------------
      1 C                    -0.078162
      2 C                    -0.081132
      3 C                     0.213051
      4 C                     0.215123
      5 O                    -0.168763
      6 O                    -0.210919
      7 O                    -0.177979
      8 O                    -0.211333
      9 C                    -0.129557
     10 C                    -0.128701
     11 C                     0.025190
     12 C                    -0.144550
     13 C                    -0.145026
     14 C                     0.105123
     15 O                    -0.193379
     16 H                     0.086826
     17 H                     0.082376
     18 H                     0.086077
     19 H                     0.090226
     20 H                     0.077263
     21 H                     0.073122
     22 H                     0.075239
     23 H                     0.070970
     24 H                     0.085757
     25 H                     0.092101
     26 H                     0.090715
     27 H                     0.089493
     28 H                     0.081584
     29 C                    -0.229577
     30 H                     0.078519
     31 H                     0.078034
     32 H                     0.102288
  ----------------------------------------
  Sum of atomic charges =    -0.000000

 -----------------------------------------------------------------
                    Cartesian Multipole Moments
 -----------------------------------------------------------------
    Charge (ESU x 10^10)
                -0.0000
    Dipole Moment (Debye)
         X      -0.5785      Y       1.0278      Z       2.0694
       Tot       2.3819
    Quadrupole Moments (Debye-Ang)
        XX     -77.5973     XY      -0.2994     YY     -84.0529
        XZ       2.8071     YZ      -2.8746     ZZ     -90.1708
    Octopole Moments (Debye-Ang^2)
       XXX     -44.1480    XXY      -0.6364    XYY     -18.7443
       YYY     -10.6906    XXZ      -4.0914    XYZ       5.9533
       YYZ       0.6379    XZZ      -5.9409    YZZ      -0.3749
       ZZZ      -4.8835
    Hexadecapole Moments (Debye-Ang^3)
      XXXX   -2106.6695   XXXY     -71.2769   XXYY    -572.3864
      XYYY     -18.2154   YYYY   -1468.6866   XXXZ     -19.3638
      XXYZ     -22.0395   XYYZ       1.9537   YYYZ     -56.4662
      XXZZ    -443.3749   XYZZ     -20.9289   YYZZ    -321.5360
      XZZZ      -3.6676   YZZZ     -19.1559   ZZZZ    -373.5503
 -----------------------------------------------------------------
 Calculating analytic gradient of the SCF energy
 Gradient of SCF Energy
            1           2           3           4           5           6
    1   0.0007117  -0.0005968   0.0012043   0.0015762  -0.0001506  -0.0006596
    2   0.0018036  -0.0009568   0.0007633  -0.0015830   0.0004419  -0.0013400
    3   0.0006910   0.0008667  -0.0015351  -0.0007484   0.0021646  -0.0005735
            7           8           9          10          11          12
    1  -0.0017060  -0.0000502  -0.0004851  -0.0011115   0.0004406   0.0004715
    2   0.0012164  -0.0003692  -0.0005744  -0.0000725   0.0004898   0.0003217
    3   0.0019171  -0.0001052  -0.0003567  -0.0007790   0.0006275   0.0005180
           13          14          15          16          17          18
    1   0.0008434  -0.0000311  -0.0005054  -0.0006867   0.0005456   0.0000603
    2   0.0001941   0.0002764  -0.0000137  -0.0003900   0.0005451  -0.0002297
    3   0.0005761  -0.0002500  -0.0016824   0.0000458   0.0000884  -0.0000789
           19          20          21          22          23          24
    1   0.0000545  -0.0000195  -0.0001017  -0.0001337   0.0000825   0.0000991
    2  -0.0001424  -0.0000435   0.0000685   0.0000989   0.0000090   0.0001832
    3  -0.0002123  -0.0001481   0.0000241  -0.0001757  -0.0000491   0.0000789
           25          26          27          28          29          30
    1   0.0000921   0.0002427  -0.0000385  -0.0002339   0.0003099   0.0004259
    2  -0.0000185   0.0000247  -0.0002340   0.0000381  -0.0001971  -0.0001378
    3  -0.0002700   0.0001333  -0.0000655   0.0000392  -0.0011016   0.0008829
           31          32
    1  -0.0008920   0.0002419
    2  -0.0004488   0.0002769
    3  -0.0002288  -0.0002934
 Max gradient component =       2.165E-03
 RMS gradient           =       6.887E-04
 Gradient time:  CPU 16.51 s  wall 0.70 s
 Geometry Optimization Parameters
   NAtoms,    NIC,     NZ,  NCons,   NDum,   NFix, NCnnct, MaxDiis
       32     251       0       2       0       0       0       0

 Cartesian Hessian Update
 Hessian Updated using BFGS Update


** CONSTRAINED OPTIMIZATION IN DELOCALIZED INTERNAL COORDINATES **
   Searching for a Minimum

   Optimization Cycle:   5

                       Coordinates (Angstroms)
[...]
 TransDip   0.134  0.218  0.163   -0.141  0.406  0.416   -0.129  0.039  0.040

 Mode:                76                     77                     78
 Frequency:      3048.70                3049.83                3055.01
 Force Cnst:      5.6373                 5.6426                 5.8781
 Red. Mass:       1.0294                 1.0296                 1.0690
 IR Active:          YES                    YES                    YES
 IR Intens:       34.151                 36.976                 11.856
 Raman Active:       YES                    YES                    YES
               X      Y      Z        X      Y      Z        X      Y      Z
 C          0.000 -0.000 -0.001   -0.000  0.000  0.001   -0.001  0.002  0.007
 C          0.001 -0.001  0.005   -0.000  0.000 -0.001   -0.014  0.012 -0.049
 C         -0.000  0.000  0.000    0.001 -0.002 -0.001    0.000 -0.000  0.000
 C          0.002 -0.000 -0.002    0.000 -0.000 -0.000    0.000 -0.000 -0.002
 O          0.000 -0.000  0.000   -0.002  0.001 -0.001    0.000  0.000 -0.000
 O          0.000 -0.000 -0.000    0.000  0.001  0.001   -0.000 -0.000 -0.000
 O         -0.002 -0.001  0.000   -0.000 -0.000  0.000   -0.000 -0.000  0.000
 O         -0.000  0.001  0.001   -0.000  0.000  0.000   -0.000  0.000  0.000
 C         -0.023 -0.032 -0.018   -0.003 -0.004 -0.002   -0.001 -0.002 -0.001
 C          0.004  0.000  0.003   -0.034 -0.002 -0.028    0.000  0.000  0.000
 C          0.000 -0.000  0.000   -0.000  0.000 -0.000   -0.001  0.002 -0.001
 C          0.000  0.000  0.000   -0.000 -0.001 -0.000   -0.008 -0.024 -0.018
 C         -0.002  0.001 -0.001   -0.000  0.000 -0.000    0.031 -0.016  0.023
 C          0.000  0.000 -0.000    0.000  0.000  0.000   -0.001 -0.000 -0.000
 O         -0.000 -0.000  0.000   -0.000  0.000  0.000    0.000 -0.000  0.000
 H         -0.001  0.002  0.007    0.002 -0.003 -0.009    0.016 -0.028 -0.087
 H         -0.015  0.013 -0.056    0.002 -0.001  0.007    0.164 -0.142  0.598
 H         -0.251  0.580 -0.017   -0.028  0.065 -0.002   -0.015  0.035 -0.001
 H          0.015  0.015 -0.066   -0.135 -0.134  0.594    0.002  0.002 -0.008
 H         -0.002 -0.002  0.001    0.004  0.005 -0.002    0.181  0.214 -0.106
 H          0.001 -0.001 -0.004   -0.002  0.001  0.005   -0.099  0.065  0.318
 H          0.016  0.002 -0.008    0.005  0.000 -0.002   -0.323 -0.036  0.165
 H          0.002 -0.011  0.021    0.000 -0.002  0.004   -0.036  0.231 -0.426
 H          0.323 -0.048 -0.312    0.036 -0.005 -0.035    0.019 -0.003 -0.019
 H          0.217 -0.132  0.559    0.025 -0.015  0.063    0.013 -0.007  0.033
 H         -0.020  0.039  0.023    0.180 -0.347 -0.203   -0.002  0.004  0.003
 H         -0.042 -0.057  0.005    0.377  0.508 -0.040   -0.005 -0.007  0.000
 H         -0.001  0.002 -0.001    0.001 -0.002  0.001    0.008 -0.022  0.009
 C          0.001 -0.001 -0.000    0.001 -0.001 -0.000    0.003 -0.002 -0.001
 H         -0.018 -0.008  0.010   -0.009 -0.004  0.005   -0.032 -0.015  0.017
 H         -0.006  0.017 -0.013   -0.003  0.008 -0.007   -0.009  0.029 -0.022
 H          0.007  0.003  0.007    0.003  0.002  0.004    0.011  0.006  0.013
 TransDip  -0.119 -0.144  0.014   -0.179  0.047 -0.061    0.065 -0.081 -0.036

 Mode:                79                     80                     81
 Frequency:      3059.78                3067.36                3094.02
 Force Cnst:      5.9050                 5.8869                 6.2459
 Red. Mass:       1.0705                 1.0620                 1.1074
 IR Active:          YES                    YES                    YES
 IR Intens:       23.484                 37.855                  0.622
 Raman Active:       YES                    YES                    YES
               X      Y      Z        X      Y      Z        X      Y      Z
 C         -0.001  0.001  0.003   -0.001  0.002  0.007   -0.002  0.003  0.009
 C         -0.014  0.013 -0.054   -0.005  0.005 -0.021    0.002 -0.002  0.007
 C          0.000 -0.000  0.000    0.000  0.000  0.000   -0.000  0.000  0.000
 C          0.000 -0.000 -0.002    0.000  0.000 -0.000   -0.000  0.000  0.000
 O         -0.000  0.000 -0.000   -0.000  0.000 -0.000    0.000 -0.000 -0.000
 O         -0.000 -0.000 -0.000   -0.000 -0.000 -0.000    0.000 -0.000 -0.000
 O         -0.000 -0.000  0.000   -0.000 -0.000  0.000   -0.000 -0.000 -0.000
 O         -0.000  0.000  0.000   -0.000  0.000  0.000    0.000 -0.000 -0.000
 C         -0.001 -0.001 -0.001    0.000 -0.000  0.000    0.000  0.000 -0.000
 C          0.000 -0.000  0.000    0.000  0.000  0.000    0.000 -0.000 -0.000
 C          0.001 -0.003  0.001   -0.001  0.004 -0.002    0.003 -0.006  0.002
 C          0.012  0.036  0.025   -0.008 -0.032 -0.024    0.038  0.025 -0.052
 C         -0.017  0.003 -0.003   -0.044  0.018 -0.019   -0.032 -0.021  0.049
 C         -0.001 -0.000 -0.000    0.000  0.001  0.000   -0.001 -0.000  0.000
 O          0.000 -0.000  0.000    0.000 -0.000  0.000   -0.000  0.000 -0.000
 H          0.009 -0.012 -0.041    0.014 -0.025 -0.077    0.018 -0.036 -0.105
 H          0.177 -0.154  0.647    0.069 -0.061  0.255   -0.021  0.020 -0.082
 H         -0.009  0.021 -0.001   -0.000  0.000 -0.000    0.001 -0.001  0.000
 H          0.001  0.001 -0.002    0.002  0.002 -0.008   -0.000 -0.000  0.000
 H         -0.273 -0.324  0.160    0.230  0.273 -0.136   -0.326 -0.395  0.175
 H          0.143 -0.094 -0.454   -0.132  0.088  0.418   -0.130  0.105  0.446
 H          0.194  0.019 -0.093    0.471  0.050 -0.234    0.422  0.038 -0.195
 H          0.009 -0.066  0.127    0.037 -0.251  0.462   -0.046  0.212 -0.389
 H          0.011 -0.002 -0.011    0.000 -0.000 -0.000   -0.001  0.000  0.001
 H          0.008 -0.004  0.019   -0.000  0.000 -0.001   -0.000 -0.000 -0.000
 H         -0.001  0.001  0.001   -0.002  0.004  0.002   -0.000  0.000  0.000
 H         -0.001 -0.002  0.000   -0.004 -0.006  0.000   -0.000 -0.000  0.000
 H         -0.011  0.031 -0.012    0.020 -0.053  0.024   -0.029  0.070 -0.034
 C         -0.004  0.003  0.001   -0.004  0.003  0.001    0.005  0.012 -0.009
 H          0.052  0.023 -0.028    0.048  0.022 -0.026   -0.091 -0.040  0.045
 H          0.015 -0.045  0.034    0.014 -0.043  0.032    0.035 -0.097  0.075
 H         -0.021 -0.011 -0.022   -0.020 -0.011 -0.023   -0.004 -0.000 -0.010
 TransDip  -0.030  0.152  0.013   -0.157 -0.009 -0.118    0.024  0.009  0.001

 Mode:                82                     83                     84
 Frequency:      3102.66                3110.23                3116.50
 Force Cnst:      6.2500                 6.2457                 6.2747
 Red. Mass:       1.1019                 1.0958                 1.0965
 IR Active:          YES                    YES                    YES
 IR Intens:       12.681                 16.648                 38.229
 Raman Active:       YES                    YES                    YES
               X      Y      Z        X      Y      Z        X      Y      Z
 C         -0.001  0.002  0.007    0.010 -0.019 -0.056    0.010 -0.018 -0.053
 C          0.001 -0.000  0.000   -0.001  0.001 -0.002   -0.003  0.003 -0.009
 C         -0.000  0.000  0.000    0.001 -0.001 -0.001    0.001 -0.001 -0.001
 C          0.000 -0.000 -0.000    0.000  0.000 -0.000    0.000  0.000 -0.000
 O         -0.000 -0.000 -0.000   -0.000  0.000  0.000   -0.000  0.000  0.000
 O         -0.000 -0.000 -0.000    0.000  0.000  0.000    0.000  0.000  0.000
 O         -0.000 -0.000  0.000   -0.000 -0.000  0.000   -0.000 -0.000  0.000
 O         -0.000  0.000  0.000   -0.000 -0.000 -0.000   -0.000  0.000  0.000
 C         -0.000  0.000  0.000   -0.000  0.000  0.000    0.000 -0.000  0.000
 C          0.000  0.000 -0.000   -0.000  0.000  0.000   -0.001 -0.001  0.001
 C          0.001 -0.002  0.001   -0.004  0.009 -0.004    0.001 -0.002 -0.001
 C          0.013  0.008 -0.018   -0.018 -0.013  0.023    0.027  0.015 -0.040
 C          0.002  0.002 -0.004   -0.029 -0.018  0.042    0.023  0.016 -0.036
 C         -0.001 -0.001  0.001   -0.001 -0.001  0.001    0.000  0.001 -0.001
 O         -0.000  0.000 -0.000   -0.000  0.000  0.000   -0.000  0.000  0.001
 H          0.016 -0.029 -0.088   -0.122  0.220  0.662   -0.118  0.209  0.630
 H         -0.002  0.002 -0.011    0.011 -0.008  0.030    0.030 -0.029  0.111
 H          0.001 -0.003  0.000    0.001 -0.002  0.000   -0.002  0.004  0.000
 H         -0.000 -0.000  0.001   -0.000 -0.001  0.003    0.002  0.001 -0.005
 H         -0.110 -0.134  0.059    0.165  0.203 -0.089   -0.216 -0.265  0.117
 H         -0.044  0.035  0.149    0.056 -0.046 -0.186   -0.107  0.086  0.362
 H         -0.031 -0.002  0.017    0.386  0.033 -0.178   -0.317 -0.026  0.147
 H          0.003 -0.015  0.024   -0.040  0.180 -0.327    0.035 -0.160  0.290
 H          0.001 -0.000 -0.001    0.001 -0.000 -0.001    0.001 -0.000 -0.001
 H          0.000 -0.000  0.000   -0.000  0.000 -0.000   -0.001  0.001 -0.003
 H         -0.000  0.000  0.000    0.001 -0.003 -0.002    0.001 -0.003 -0.002
 H         -0.001 -0.002  0.000    0.002  0.003 -0.000    0.008  0.011 -0.001
 H         -0.013  0.031 -0.015    0.044 -0.103  0.049   -0.005  0.014 -0.007
 C         -0.028 -0.063  0.056   -0.005 -0.012  0.011    0.003  0.006 -0.006
 H          0.541  0.234 -0.273    0.110  0.047 -0.056   -0.054 -0.023  0.028
 H         -0.194  0.540 -0.411   -0.037  0.102 -0.077    0.018 -0.050  0.037
 H         -0.008 -0.016  0.013   -0.008 -0.006 -0.006    0.004  0.003  0.004
 TransDip  -0.047 -0.073  0.073   -0.088 -0.081  0.053    0.103  0.024 -0.167

 Mode:                85                     86                     87
 Frequency:      3122.49                3123.63                3128.17
 Force Cnst:      6.3594                 6.3654                 6.2850
 Red. Mass:       1.1070                 1.1073                 1.0901
 IR Active:          YES                    YES                    YES
 IR Intens:       19.207                 15.212                 23.817
 Raman Active:       YES                    YES                    YES
               X      Y      Z        X      Y      Z        X      Y      Z
 C          0.000 -0.000 -0.001   -0.000  0.000  0.000    0.001 -0.002 -0.007
 C         -0.000  0.000 -0.000    0.000 -0.000  0.000   -0.000  0.001 -0.002
 C         -0.000 -0.000  0.000    0.000  0.000  0.000    0.000 -0.001  0.000
 C          0.000  0.000 -0.000   -0.000 -0.000 -0.000    0.000  0.000  0.000
 O         -0.000 -0.000  0.000   -0.000 -0.000  0.000   -0.000  0.000 -0.000
 O         -0.000 -0.000  0.000   -0.000 -0.000 -0.000   -0.000  0.000 -0.000
 O         -0.000 -0.000  0.000   -0.000  0.000 -0.000   -0.000 -0.000  0.000
 O         -0.000 -0.000  0.000   -0.000  0.000 -0.000   -0.000 -0.000 -0.000
 C         -0.003  0.005 -0.003    0.046 -0.066  0.051    0.000 -0.000  0.000
 C          0.046  0.059 -0.058    0.003  0.004 -0.004   -0.001 -0.001  0.001
 C          0.001 -0.001  0.001   -0.000  0.000 -0.000    0.030 -0.072  0.035
 C          0.000 -0.000 -0.000   -0.000 -0.000  0.000   -0.008 -0.008  0.005
 C          0.000  0.000 -0.000   -0.000 -0.000  0.000   -0.003  0.000  0.001
 C         -0.000  0.000 -0.000    0.000 -0.000  0.000   -0.001  0.001 -0.000
 O          0.000 -0.000  0.000   -0.000  0.000 -0.000    0.000 -0.000 -0.000
 H         -0.002  0.004  0.011    0.000 -0.001 -0.003   -0.016  0.024  0.078
 H          0.001 -0.001  0.003   -0.000  0.001 -0.001    0.005 -0.004  0.017
 H          0.020 -0.045  0.000   -0.282  0.647 -0.004   -0.000  0.001  0.000
 H         -0.148 -0.133  0.674   -0.010 -0.009  0.047    0.002  0.002 -0.011
 H         -0.001 -0.001  0.000    0.000  0.001 -0.000    0.087  0.102 -0.044
 H         -0.001  0.001  0.004    0.000 -0.000 -0.001    0.008 -0.007 -0.020
 H         -0.003 -0.000  0.001    0.002  0.000 -0.001    0.033  0.003 -0.016
 H          0.001 -0.002  0.004   -0.000  0.001 -0.003   -0.001  0.001 -0.001
 H          0.004  0.000 -0.005   -0.023 -0.008  0.040    0.001 -0.000 -0.001
 H          0.016 -0.009  0.043   -0.235  0.136 -0.642   -0.001  0.001 -0.003
 H          0.015 -0.001 -0.018    0.000  0.001 -0.000    0.000 -0.002 -0.001
 H         -0.412 -0.567  0.027   -0.028 -0.038  0.002    0.009  0.012 -0.001
 H         -0.007  0.016 -0.008    0.001 -0.001  0.001   -0.341  0.826 -0.406
 C          0.000  0.000 -0.000   -0.000 -0.000  0.000   -0.000 -0.000  0.000
 H         -0.002 -0.001  0.001    0.002  0.001 -0.001    0.003  0.001 -0.002
 H          0.001 -0.002  0.001   -0.001  0.002 -0.002   -0.000  0.001 -0.001
 H          0.000  0.000 -0.000   -0.000 -0.000  0.000   -0.002 -0.001 -0.002
 TransDip   0.064  0.090 -0.086    0.056 -0.094  0.059    0.032 -0.148  0.037

 Mode:                88                     89                     90
 Frequency:      3152.56                3157.20                3164.35
 Force Cnst:      6.4787                 6.4975                 6.4728
 Red. Mass:       1.1064                 1.1063                 1.0972
 IR Active:          YES                    YES                    YES
 IR Intens:       14.474                 14.495                  2.862
 Raman Active:       YES                    YES                    YES
               X      Y      Z        X      Y      Z        X      Y      Z
 C         -0.000  0.000  0.000    0.000  0.000 -0.000    0.000 -0.000 -0.000
 C          0.000 -0.000 -0.000   -0.000  0.000 -0.000    0.000 -0.000 -0.000
 C         -0.000  0.000  0.000   -0.001 -0.000 -0.001   -0.000 -0.000 -0.000
 C          0.000  0.001  0.001   -0.000  0.000 -0.000    0.000 -0.000 -0.000
 O          0.000 -0.000 -0.000   -0.000  0.000  0.000   -0.000  0.000 -0.000
 O          0.000 -0.000 -0.000    0.000  0.000  0.000    0.000  0.000  0.000
 O          0.000 -0.000 -0.000    0.000 -0.000  0.000   -0.000  0.000  0.000
 O         -0.000 -0.000 -0.000    0.000 -0.000  0.000   -0.001 -0.000  0.000
 C         -0.052  0.023  0.076    0.000  0.000 -0.000    0.000 -0.000 -0.000
 C         -0.000 -0.000 -0.000    0.022 -0.072 -0.057    0.000 -0.000 -0.000
 C         -0.000  0.000 -0.000    0.000 -0.000  0.000    0.000 -0.000  0.000
 C          0.000  0.000  0.000   -0.000 -0.000 -0.000   -0.000  0.000 -0.000
 C          0.000 -0.000  0.000   -0.000  0.000 -0.000   -0.001  0.000  0.001
 C          0.000  0.000  0.000   -0.000  0.000  0.000   -0.001  0.000 -0.001
 O          0.000 -0.000 -0.000    0.000  0.000  0.000    0.000 -0.000  0.000
 H          0.000 -0.001 -0.002    0.000  0.000  0.002   -0.000  0.000  0.001
 H         -0.000 -0.000 -0.001    0.000 -0.000  0.000    0.000 -0.001  0.003
 H          0.108 -0.263  0.024    0.000 -0.001 -0.000   -0.001  0.001 -0.000
 H          0.000  0.000 -0.001   -0.069 -0.082  0.295   -0.000 -0.000  0.000
 H         -0.000 -0.000  0.000    0.000  0.000 -0.000    0.001  0.000 -0.000
 H          0.000 -0.000 -0.001   -0.000  0.000  0.001    0.000  0.000  0.001
 H         -0.000 -0.000  0.000    0.000  0.000 -0.000    0.011  0.002 -0.004
 H          0.000  0.000 -0.000    0.000 -0.000  0.000   -0.001  0.002 -0.005
 H          0.634 -0.093 -0.617   -0.002  0.000  0.002   -0.003  0.000  0.003
 H         -0.132  0.082 -0.307    0.001 -0.000  0.002    0.001 -0.000  0.001
 H         -0.001  0.002  0.001   -0.367  0.706  0.414   -0.001  0.001  0.001
 H          0.002  0.003 -0.000    0.182  0.231 -0.031    0.000  0.000 -0.000
 H          0.001 -0.002  0.001   -0.000  0.001 -0.000   -0.001  0.001 -0.001
 C         -0.000  0.000 -0.000    0.000  0.000  0.000   -0.067 -0.021 -0.057
 H         -0.000 -0.000  0.000   -0.000 -0.000  0.000    0.180  0.085 -0.106
 H          0.001 -0.002  0.001   -0.000  0.000 -0.000    0.043 -0.166  0.115
 H          0.003  0.002  0.003   -0.001 -0.001 -0.001    0.591  0.329  0.664
 TransDip  -0.083  0.016  0.088    0.047 -0.096 -0.059   -0.034 -0.007 -0.041

 STANDARD THERMODYNAMIC QUANTITIES AT   298.15 K  AND     1.00 ATM

   This Molecule has  0 Imaginary Frequencies
   Zero point vibrational energy:      166.288 kcal/mol

   Atom    1 Element C  Has Mass   12.00000
   Atom    2 Element C  Has Mass   12.00000
   Atom    3 Element C  Has Mass   12.00000
   Atom    4 Element C  Has Mass   12.00000
   Atom    5 Element O  Has Mass   15.99491
   Atom    6 Element O  Has Mass   15.99491
   Atom    7 Element O  Has Mass   15.99491
   Atom    8 Element O  Has Mass   15.99491
   Atom    9 Element C  Has Mass   12.00000
   Atom   10 Element C  Has Mass   12.00000
   Atom   11 Element C  Has Mass   12.00000
   Atom   12 Element C  Has Mass   12.00000
   Atom   13 Element C  Has Mass   12.00000
   Atom   14 Element C  Has Mass   12.00000
   Atom   15 Element O  Has Mass   15.99491
   Atom   16 Element H  Has Mass    1.00783
   Atom   17 Element H  Has Mass    1.00783
   Atom   18 Element H  Has Mass    1.00783
   Atom   19 Element H  Has Mass    1.00783
   Atom   20 Element H  Has Mass    1.00783
   Atom   21 Element H  Has Mass    1.00783
   Atom   22 Element H  Has Mass    1.00783
   Atom   23 Element H  Has Mass    1.00783
   Atom   24 Element H  Has Mass    1.00783
   Atom   25 Element H  Has Mass    1.00783
   Atom   26 Element H  Has Mass    1.00783
   Atom   27 Element H  Has Mass    1.00783
   Atom   28 Element H  Has Mass    1.00783
   Atom   29 Element C  Has Mass   12.00000
   Atom   30 Element H  Has Mass    1.00783
   Atom   31 Element H  Has Mass    1.00783
   Atom   32 Element H  Has Mass    1.00783
   Molecular Mass:   228.099830 amu
   Principal axes and moments of inertia in amu*Bohr^2:
                             1           2           3
    Eigenvalues --     2655.98607  3418.23157  5126.58204
          X               0.99998    -0.00320     0.00560
          Y               0.00319     0.99999     0.00238
          Z              -0.00560    -0.00236     0.99998
   Rotational Symmetry Number is   1
   The Molecule is an Asymmetric Top
   Translational Enthalpy:        0.889 kcal/mol
   Rotational Enthalpy:           0.889 kcal/mol
   Vibrational Enthalpy:        174.465 kcal/mol
   gas constant (RT):             0.592 kcal/mol
   Translational Entropy:        42.176  cal/mol.K
   Rotational Entropy:           32.209  cal/mol.K
   Vibrational Entropy:          53.879  cal/mol.K

   Total Enthalpy:              176.835 kcal/mol
   Total Entropy:               128.264  cal/mol.K
Archival summary:
1\1\nid05754\FREQ\ProcedureUnspecified\BasisUnspecified\51116\junteng\WedOct421:04:072017WedOct421:04:072017\0\\#,FREQ,ProcedureUnspecified,BasisUnspecified,\\0,1\O\C,1,1.42411\H,2,1.08825,1,110.147\C,1,1.44651,2,98.23,3,179.88,0\C,4,1.51228,1,110.432,2,-177.417,0\H,5,1.08668,4,111.214,1,-57.8889,0\H,5,1.09266,4,108.996,1,63.1059,0\H,5,1.09298,4,110.418,1,-177.808,0\C,2,1.5439,1,103.665,3,-124.35,0\H,9,1.09095,2,110.238,1,85.4187,0\H,9,1.09182,2,112.468,1,-153.882,0\C,9,1.5544,2,100.774,1,-32.4481,0\H,12,1.09106,9,111.195,2,114.861,0\H,12,1.09174,9,113.543,2,-123.057,0\C,2,1.56017,1,102.26,3,121.951,0\H,15,1.08898,2,111.414,1,157.589,0\C,15,1.51327,2,108.686,1,-83.3737,0\O,17,1.20496,15,126.683,2,88.1467,0\O,17,1.3532,15,109.958,2,-88.9267,0\C,19,1.44032,17,115.804,15,176.692,0\H,20,1.08776,19,105.47,17,179.805,0\H,20,1.09103,19,110.508,17,-60.5212,0\H,20,1.09103,19,110.368,17,60.3089,0\C,15,1.56423,2,100.31,1,38.2845,0\H,24,1.09364,15,108.007,2,110.189,0\C,24,1.52135,15,114.45,2,-134.482,0\O,26,1.20197,24,128.076,15,126.25,0\O,26,1.35644,24,108.565,15,-57.9144,0\C,28,1.4389,26,115.697,24,175.288,0\H,29,1.08806,28,105.48,26,-178.733,0\H,29,1.09099,28,109.799,26,-59.3871,0\H,29,1.09103,28,110.686,26,61.6313,0\\\@

 Total job time:  10420.03s(wall), 58591.94s(cpu) 
 Wed Oct  4 21:04:08 2017

        *************************************************************
        *                                                           *
        *  Thank you very much for using Q-Chem.  Have a nice day.  *
        *                                                           *
        *************************************************************


