nid04376 10.128.17
Q-Chem Developer Version! Running on 10.128.17.*
                  Welcome to Q-Chem
     A Quantum Leap Into The Future Of Chemistry


 Q-Chem 5.0, Q-Chem, Inc., Pleasanton, CA (2017)

 Yihan Shao,  Zhengting Gan,  E. Epifanovsky,  A. T. B. Gilbert,  M. Wormit,  
 J. Kussmann,  A. W. Lange,  A. Behn,  Jia Deng,  Xintian Feng,  D. Ghosh,  
 M. Goldey,  P. R. Horn,  L. D. Jacobson,  I. Kaliman,  T. Kus,  A. Landau,  
 Jie Liu,  E. I. Proynov,  R. M. Richard,  R. P. Steele,  E. J. Sundstrom,  
 H. L. Woodcock III,  P. M. Zimmerman,  D. Zuev,  B. Albrecht,  E. Alguire,  
 S. A. Baeppler,  Z. Benda,  Y. A. Bernard,  E. J. Berquist,  K. B. Bravaya,  
 D. Casanova,  Chun-Min Chang,  Yunqing Chen,  A. Chien,  K. D. Closser,  
 M. P. Coons,  S. Dasgupta,  M. Diedenhofen,  Hainam Do,  R. G. Edgar,  
 Po-Tung Fang,  S. Fatehi,  Qingguo Feng,  Qinghui Ge,  A. Ghysels,  
 J. Gomes,  J. Gonthier,  A. Gunina,  M. W. D. Hanson-Heine,  
 P. H. P. Harbach,  A. W. Hauser,  J. E. Herr,  E. G. Hohenstein,  
 Z. C. Holden,  Kerwin Hui,  T.-C. Jagau,  Hyunjun Ji,  B. Kaduk,  
 K. Khistyaev,  Jaehoon Kim,  P. Klunzinger,  K. Koh,  D. Kosenkov,  
 T. Kowalczyk,  C. M. Krauter,  A. Kunitsa,  Ka Un Lao,  A. Laurent,  
 K. V. Lawler,  Joonho Lee,  D. Lefrancois,  S. Lehtola,  D. S. Levine,  
 Yi-Pei Li,  You-Sheng Lin,  Fenglai Liu,  E. Livshits,  A. Luenser,  
 P. Manohar,  E. Mansoor,  S. F. Manzer,  Shan-Ping Mao,  Yuezhi Mao,  
 N. Mardirossian,  A. V. Marenich,  L. A. Martinez-Martinez,  S. A. Maurer,  
 N. J. Mayhall,  S. C. McKenzie,  J.-M. Mewes,  A. F. Morrison,  K. Nanda,  
 T. S. Nguyen-Beck,  R. Olivares-Amaya,  J. A. Parkhill,  T. M. Perrine,  
 F. Plasser,  S. Prager,  A. Prociuk,  D. R. Rehn,  F. Rob,  M. Schneider,  
 N. Sergueev,  S. M. Sharada,  S. Sharma,  D. W. Small,  T. Stauch,  
 T. Stein,  Yu-Chuan Su,  A. J. W. Thom,  T. Tsuchimochi,  L. Vogt,  
 O. Vydrov,  M. A. Watson,  J. Wenzel,  M. de Wergifosse,  T. A. Wesolowski,  
 A. White,  J. Witte,  A. Yamada,  Jun Yang,  K. Yao,  S. Yeganeh,  
 S. R. Yost,  Zhi-Qiang You,  A. Zech,  Igor Ying Zhang,  Xing Zhang,  
 Yan Zhao,  Ying Zhu,  B. R. Brooks,  G. K. L. Chan,  C. J. Cramer,  
 M. S. Gordon,  W. J. Hehre,  A. Klamt,  M. W. Schmidt,  C. D. Sherrill,  
 D. G. Truhlar,  A. Aspuru-Guzik,  R. Baer,  A. T. Bell,  N. A. Besley,  
 Jeng-Da Chai,  A. Dreuw,  B. D. Dunietz,  T. R. Furlani,  Chao-Ping Hsu,  
 Yousung Jung,  Jing Kong,  D. S. Lambrecht,  WanZhen Liang,  C. Ochsenfeld,  
 V. A. Rassolov,  L. V. Slipchenko,  J. E. Subotnik,  T. Van Voorhis,  
 J. M. Herbert,  A. I. Krylov,  P. M. W. Gill,  M. Head-Gordon

 Contributors to earlier versions of Q-Chem not listed above: 
 R. D. Adamson,  B. Austin,  J. Baker,  G. J. O. Beran,  K. Brandhorst,  
 S. T. Brown,  E. F. C. Byrd,  A. K. Chakraborty,  C.-L. Cheng,  
 Siu Hung Chien,  D. M. Chipman,  D. L. Crittenden,  H. Dachsel,  
 R. A. DiStasio Jr.,  R. J. Doerksen,  A. D. Dutoi,  L. Fusti-Molnar,  
 W. A. Goddard III,  A. Golubeva-Zadorozhnaya,  S. R. Gwaltney,  G. Hawkins,  
 A. Heyden,  S. Hirata,  G. Kedziora,  F. J. Keil,  C. Kelley,  Jihan Kim,  
 R. A. King,  R. Z. Khaliullin,  P. P. Korambath,  W. Kurlancheek,  
 A. M. Lee,  M. S. Lee,  S. V. Levchenko,  Ching Yeh Lin,  D. Liotard,  
 R. C. Lochan,  I. Lotan,  P. E. Maslen,  N. Nair,  D. P. O'Neill,  
 D. Neuhauser,  E. Neuscamman,  C. M. Oana,  R. Olson,  B. Peters,  
 R. Peverati,  P. A. Pieniazek,  Y. M. Rhee,  J. Ritchie,  M. A. Rohrdanz,  
 E. Rosta,  N. J. Russ,  H. F. Schaefer III,  N. E. Schultz,  N. Shenvi,  
 A. C. Simmonett,  A. Sodt,  D. Stuck,  K. S. Thanthiriwatte,  V. Vanovschi,  
 Tao Wang,  A. Warshel,  C. F. Williams,  Q. Wu,  X. Xu,  W. Zhang

 Please cite Q-Chem as follows:
 Y. Shao et al., Mol. Phys. 113, 184-215 (2015)
 DOI: 10.1080/00268976.2014.952696

 Q-Chem 5.0.0 for Intel X86 EM64T Linux

 Parts of Q-Chem use Armadillo 5.200.1 (Boston Tea Smuggler).
 http://arma.sourceforge.net/

 Q-Chem begins on Wed Oct  4 18:02:43 2017  

Host: nid04376
0

     Scratch files written to /global/cscratch1/sd/junteng/scratch/16/opt_10n01++.save//

Checking the input file for inconsistencies... 	...done.

--------------------------------------------------------------
User input:
--------------------------------------------------------------
$molecule
0  1
C    0.355  -2.424   0.293
C   -0.264  -2.685   1.524
C    0.749  -1.045  -0.086
C   -0.385  -1.681   2.598
O    1.805  -1.090  -0.938
O    0.175  -0.038   0.291
O    0.833  -1.128   2.820
O   -1.397  -1.517   3.259
C    0.836  -0.152   3.862
C    2.258   0.195  -1.365
C    0.489  -3.469  -0.639
C    0.011  -4.748  -0.345
C   -0.620  -4.996   0.872
C   -0.760  -3.969   1.804
H    0.142   0.662   3.629
H    1.480   0.699  -1.947
H   -1.003  -5.990   1.096
H    0.581  -0.616   4.820
H    1.845   0.263   3.935
H    3.132   0.050  -2.006
H    2.557   0.804  -0.506
H    0.116  -5.548  -1.075
H   -1.248  -4.169   2.757
H    0.945  -3.290  -1.611
$end


$opt
CONSTRAINT
tors    2    1    3    5    160.0
tors    1    2    4    7    -45.0
ENDCONSTRAINT
$end

$rem
JOBTYPE                   OPT
METHOD                    B3LYP
DFT_D                     D3_OP
BASIS                     STO-3G
GEOM_OPT_MAX_CYCLES       500
SYMMETRY                  False
THRESH                    12
SCF_CONVERGENCE           8
MAX_SUB_FILE_NUM          128
MEM_STATIC                400
MEM_TOTAL                 4000
$end

--------------------------------------------------------------
 Adding empirical dispersion correction 
 ----------------------------------------------------------------
 Doing -D3(op) with
 s6 =   1.00000
 s8 =   0.78311
 a1 =   0.30000
 a2 =   4.25000
 n  =  10.00000
 -D3 energy without 3body term =     -0.0235264244 hartrees
 ----------------------------------------------------------------
             Standard Nuclear Orientation (Angstroms)
    I     Atom           X                Y                Z
 ----------------------------------------------------------------
    1      C       0.0048685472    -0.8715632622    -0.0674007052
    2      C      -1.0919198482     0.0016590604    -0.1017662538
    3      C       1.3789608532    -0.3820370773    -0.3371273238
    4      C      -0.9567219841     1.4673235547    -0.2001640574
    5      O       2.2778658221    -1.1635542316     0.3142295632
    6      O       1.6428666882     0.5580963624    -1.0666181229
    7      O      -0.0793961891     1.8906553810     0.7430785488
    8      O      -1.6538448556     2.1636006328    -0.9193155941
    9      C       0.1112497942     3.3055484230     0.7520668044
   10      C       3.6362803702    -0.7724170820     0.1130215962
   11      C      -0.2239907215    -2.2487533468     0.1045757645
   12      C      -1.5242777058    -2.7411486134     0.2370961776
   13      C      -2.6105318253    -1.8705883996     0.1829583704
   14      C      -2.3975725218    -0.5036921638     0.0120899544
   15      H       0.4798571535     3.6504889134    -0.2193577541
   16      H       3.9131930930    -0.8856432273    -0.9398426800
   17      H      -3.6244084650    -2.2560700247     0.2743863539
   18      H      -0.8213882332     3.8144524380     1.0152929683
   19      H       0.8618027747     3.5417630810     1.5113479505
   20      H       4.2706392529    -1.4319291517     0.7116990033
   21      H       3.7952127220     0.2573747806     0.4483307479
   22      H      -1.6901414468    -3.8088449794     0.3653096299
   23      H      -3.2494252071     0.1741533752    -0.0229161569
   24      H       0.6066568830    -2.9521169215     0.1126528134
 ----------------------------------------------------------------
 Molecular Point Group                 C1    NOp =  1
 Largest Abelian Subgroup              C1    NOp =  1
 Nuclear Repulsion Energy =   889.7605996999 hartrees
 There are       51 alpha and       51 beta electrons
 Requested basis set is STO-3G
 There are 38 shells and 80 basis functions

 Total QAlloc Memory Limit   4000 MB
 Mega-Array Size       392 MB
 MEM_STATIC part       400 MB
 A cutoff of  1.0D-12 yielded    631 shell pairs
 There are      3151 function pairs
 
 -------------------------------------------------------
 OpenMP Integral Computing Module                       
 Release: version 1.0, May 2013, Q-Chem Inc. Pittsburgh 
 -------------------------------------------------------
 Integral Job Info:
 Integral job number is                      11
 Integral operator is                         1
 short-range coefficients                     0
 long-range coefficients              100000000
 Omega coefficients                           0
 if combine SR and LR in K                    0
 Integral screening is                        0
 Integral computing path is                   2
 max size of driver memory is            800000
 size of driver memory is                 45569
 size of scratch memory is               945100
 max col of scratch BK array                289
 max len of scratch array in speh3           22
 max len of scratch index in speh4            8
 max int batch size is                      520
 min int batch size is                       52
 fixed nKL is                                52
 max L of basis functions is                  1
 order of int derivative is                   0
 number of shells is                         38
 number of basis is                          80
 number of cartesian basis is                80
 number of contracted shell pairs           631
 number of primitive shell pairs           3502
 maxK2 (contraction) of shell pair            9
 max number of K2 of shell pair               1
 max number of CS2 of shell pair             91
 max number of PS2 of shell pair            468
 mem total for path MDJ                   25386
 -------------------------------------------------------
 Smallest overlap matrix eigenvalue = 1.73E-01

 Scale SEOQF with 1.000000e-01/1.000000e-01/1.000000e+00

 Standard Electronic Orientation quadrupole field applied
 Nucleus-field energy     =     0.0000000031 hartrees
 Guess from superposition of atomic densities
 Warning:  Energy on first SCF cycle will be non-variational
 A restricted hybrid HF-DFT SCF calculation will be
 performed using Pulay DIIS extrapolation
 Exchange:     0.2000 Hartree-Fock + 0.0800 Slater + 0.7200 B88
 Correlation:  0.1900 VWN1RPA + 0.8100 LYP
 Using SG-1 standard quadrature grid
 Dispersion:   Grimme D3
 SCF converges when DIIS error is below 1.0E-08
 -------------------------------------------------------
 OpenMP Integral computing Module                
 Release: version 1.0, May 2013, Q-Chem Inc. Pittsburgh 
 -------------------------------------------------------
 -------------------------------------------------------
 OpenMP BLAS3 based DFT computing Module                
 Release: version 1.0, May 2013, Q-Chem Inc. Pittsburgh 
 -------------------------------------------------------
 ---------------------------------------
  Cycle       Energy         DIIS Error
 ---------------------------------------
    1    -679.1330742783      1.26E-01
    2    -678.8427567625      1.47E-02
    3    -677.8244880427      3.88E-02
    4    -679.0444374619      5.12E-03
    5    -679.0653698754      1.92E-03
    6    -679.0685893525      4.89E-04
    7    -679.0688086880      1.64E-04
    8    -679.0688325245      6.17E-05
    9    -679.0688352391      2.86E-05
   10    -679.0688361181      3.14E-06
   11    -679.0688361278      1.13E-06
   12    -679.0688361290      2.41E-07
   13    -679.0688361291      1.07E-07
   14    -679.0688361291      3.14E-08
   15    -679.0688361291      6.94E-09 Convergence criterion met
 ---------------------------------------
 SCF time:  CPU 50.93 s  wall 2.18 s
 SCF   energy in the final basis set = -679.0688361291
 Total energy in the final basis set = -679.0688361291
 
 --------------------------------------------------------------
 
                    Orbital Energies (a.u.)
 --------------------------------------------------------------
 
 Alpha MOs
 -- Occupied --
-18.949 -18.946 -18.869 -18.865 -10.118 -10.113 -10.077 -10.071
-10.028 -10.026 -10.017 -10.017 -10.016 -10.015  -1.049  -1.042
 -0.958  -0.954  -0.822  -0.734  -0.725  -0.683  -0.674  -0.597
 -0.581  -0.532  -0.505  -0.479  -0.455  -0.439  -0.432  -0.426
 -0.417  -0.402  -0.389  -0.379  -0.356  -0.354  -0.340  -0.329
 -0.320  -0.310  -0.300  -0.254  -0.248  -0.203  -0.202  -0.186
 -0.179  -0.155  -0.149
 -- Virtual --
  0.048   0.070   0.134   0.148   0.250   0.283   0.307   0.353
  0.381   0.390   0.398   0.417   0.436   0.441   0.443   0.453
  0.454   0.455   0.457   0.470   0.480   0.565   0.570   0.592
  0.607   0.692   0.707   0.784   0.805
 --------------------------------------------------------------
 
          Ground-State Mulliken Net Atomic Charges

     Atom                 Charge (a.u.)
  ----------------------------------------
      1 C                    -0.016460
      2 C                    -0.013193
      3 C                     0.236815
      4 C                     0.239331
      5 O                    -0.184254
      6 O                    -0.228518
      7 O                    -0.182816
      8 O                    -0.225997
      9 C                    -0.125951
     10 C                    -0.125656
     11 C                    -0.071459
     12 C                    -0.077394
     13 C                    -0.076184
     14 C                    -0.071171
     15 H                     0.097497
     16 H                     0.093769
     17 H                     0.085582
     18 H                     0.092573
     19 H                     0.095187
     20 H                     0.096656
     21 H                     0.094826
     22 H                     0.084752
     23 H                     0.090621
     24 H                     0.091440
  ----------------------------------------
  Sum of atomic charges =     0.000000

 -----------------------------------------------------------------
                    Cartesian Multipole Moments
 -----------------------------------------------------------------
    Charge (ESU x 10^10)
                -0.0000
    Dipole Moment (Debye)
         X       1.2481      Y      -0.8457      Z       1.4685
       Tot       2.1046
    Quadrupole Moments (Debye-Ang)
        XX     -65.3011     XY       2.1209     YY     -67.3113
        XZ      -1.3115     YZ       4.6689     ZZ     -77.0076
    Octopole Moments (Debye-Ang^2)
       XXX      32.6486    XXY     -10.3188    XYY       7.7006
       YYY      22.5743    XXZ       7.0980    XYZ      -0.6038
       YYZ      10.9090    XZZ       8.2910    YZZ       6.2845
       ZZZ      -3.3968
    Hexadecapole Moments (Debye-Ang^3)
      XXXX   -1419.9863   XXXY     -32.5552   XXYY    -506.4431
      XYYY      11.8858   YYYY   -1399.1191   XXXZ       1.8789
      XXYZ      10.6306   XYYZ     -13.3076   YYYZ      18.6340
      XXZZ    -302.3897   XYZZ      -9.9894   YYZZ    -286.2151
      XZZZ       2.4642   YZZZ      -0.6197   ZZZZ    -173.6954
 -----------------------------------------------------------------
 Calculating analytic gradient of the SCF energy
 Gradient of SCF Energy
            1           2           3           4           5           6
    1   0.0189467   0.0093829   0.0257808   0.0081785  -0.0074890  -0.0217180
    2   0.0223592   0.0288567   0.0007986   0.0175880   0.0516881  -0.0565203
    3  -0.0065385  -0.0046518  -0.0033992   0.0079344  -0.0409363   0.0412028
            7           8           9          10          11          12
    1  -0.0442633   0.0324227  -0.0030645  -0.0197333   0.0015887  -0.0032796
    2   0.0162203  -0.0474403  -0.0223198  -0.0061442   0.0052309   0.0074133
    3  -0.0457045   0.0399112   0.0002509   0.0040683   0.0000763  -0.0004771
           13          14          15          16          17          18
    1   0.0091845   0.0031285  -0.0006871  -0.0066692   0.0075847   0.0097128
    2   0.0006146   0.0015510  -0.0080860  -0.0039866   0.0028168  -0.0100635
    3  -0.0000973   0.0000466   0.0104685   0.0118894  -0.0007431   0.0009652
           19          20          21          22          23          24
    1  -0.0071448  -0.0035130  -0.0048494   0.0009058   0.0042493  -0.0086547
    2   0.0005358   0.0078508  -0.0127042   0.0083381  -0.0067165   0.0021193
    3  -0.0078565  -0.0064892   0.0011465  -0.0011694   0.0005009  -0.0003980
 Max gradient component =       5.652E-02
 RMS gradient           =       1.839E-02
 Gradient time:  CPU 10.50 s  wall 0.46 s
 Geometry Optimization Parameters
   NAtoms,    NIC,     NZ,  NCons,   NDum,   NFix, NCnnct, MaxDiis
       24     152       0       2       0       0       0       0


** CONSTRAINED OPTIMIZATION IN DELOCALIZED INTERNAL COORDINATES **
   Searching for a Minimum

   Optimization Cycle:   1

                       Coordinates (Angstroms)
     ATOM                X               Y               Z
      1  C         0.0048685472   -0.8715632622   -0.0674007052
      2  C        -1.0919198482    0.0016590604   -0.1017662538
      3  C         1.3789608532   -0.3820370773   -0.3371273238
      4  C        -0.9567219841    1.4673235547   -0.2001640574
      5  O         2.2778658221   -1.1635542316    0.3142295632
      6  O         1.6428666882    0.5580963624   -1.0666181229
      7  O        -0.0793961891    1.8906553810    0.7430785488
      8  O        -1.6538448556    2.1636006328   -0.9193155941
      9  C         0.1112497942    3.3055484230    0.7520668044
     10  C         3.6362803702   -0.7724170820    0.1130215962
     11  C        -0.2239907215   -2.2487533468    0.1045757645
     12  C        -1.5242777058   -2.7411486134    0.2370961776
     13  C        -2.6105318253   -1.8705883996    0.1829583704
     14  C        -2.3975725218   -0.5036921638    0.0120899544
     15  H         0.4798571535    3.6504889134   -0.2193577541
     16  H         3.9131930930   -0.8856432273   -0.9398426800
     17  H        -3.6244084650   -2.2560700247    0.2743863539
     18  H        -0.8213882332    3.8144524380    1.0152929683
     19  H         0.8618027747    3.5417630810    1.5113479505
     20  H         4.2706392529   -1.4319291517    0.7116990033
     21  H         3.7952127220    0.2573747806    0.4483307479
     22  H        -1.6901414468   -3.8088449794    0.3653096299
     23  H        -3.2494252071    0.1741533752   -0.0229161569
     24  H         0.6066568830   -2.9521169215    0.1126528134
   Point Group: c1    Number of degrees of freedom:    66


   Energy is   -679.068836129

              Constraints and their Current Values
                                        Value     Constraint
   Dihedral:        2   1   3   5      152.312      160.000
   Dihedral:        1   2   4   7      -50.252      -45.000

 Attempting to Generate Delocalized Internal Coordinates

   Using Lagrange Multiplier Algorithm


 68 Hessian modes will be used to form the next step
  Hessian Eigenvalues:
    -0.977753   -0.977753    0.045000    0.045000    0.045000    0.045000
     0.045000    0.045000    0.045001    0.045001    0.045002    0.045005
     0.045013    0.045027    0.045031    0.045181    0.045530    0.113864
     0.113915    0.116869    0.116916    0.159954    0.159981    0.159993
     0.160000    0.160000    0.160000    0.160000    0.160000    0.160000
     0.160000    0.219995    0.224790    0.244310    0.248434    0.248766
     0.249810    0.249910    0.250000    0.250000    0.250000    0.250000
     0.341816    0.342672    0.342857    0.342897    0.342929    0.344092
     0.344169    0.349054    0.349829    0.349904    0.350351    0.351283
     0.412994    0.413052    0.413205    0.417941    0.448645    0.456536
     0.460014    0.465920    0.534366    0.537734    0.954630    0.958839
     1.022753    1.022753

 Minimum Search - Taking P-RFO Step
 Searching for Lamda that Maximizes Along the Constraint modes Only
 Value Taken    Lamda =   0.01292374
 Searching for Lamda that Minimizes Along All other modes
 Value Taken    Lamda =  -0.06412637
 Calculated Step too Large.  Step scaled by  0.832906
 Step Taken.  Stepsize is  0.300000

                             Maximum     Tolerance    Cnvgd?
         Gradient            0.134173       0.000300      NO
         Displacement        0.140648       0.001200      NO
         Energy change     *********       0.000001      NO


 New Cartesian Coordinates Obtained by Inverse Iteration

 Displacement from previous Coordinates is:  0.871499
 Adding empirical dispersion correction 
 ----------------------------------------------------------------
 Doing -D3(op) with
 s6 =   1.00000
 s8 =   0.78311
 a1 =   0.30000
 a2 =   4.25000
 n  =  10.00000
 -D3 energy without 3body term =     -0.0234500193 hartrees
 ----------------------------------------------------------------
             Standard Nuclear Orientation (Angstroms)
    I     Atom           X                Y                Z
 ----------------------------------------------------------------
    1      C      -0.0358610545    -0.8963044462    -0.0034676087
    2      C      -1.1552692150    -0.0252005528    -0.0746785471
    3      C       1.3741725364    -0.3539130397    -0.2462748799
    4      C      -1.0098314995     1.4976780878    -0.1660265002
    5      O       2.3202767058    -1.2134513411     0.3355813879
    6      O       1.6542292697     0.6385684083    -0.9532557760
    7      O      -0.0655494377     1.9342231591     0.7771314734
    8      O      -1.6765448368     2.2412161168    -0.9173432266
    9      C       0.1537842376     3.3812118951     0.7269260922
   10      C       3.6969517316    -0.7814291030     0.0901398770
   11      C      -0.2538867046    -2.2897539144     0.1353454036
   12      C      -1.5586302114    -2.8090054006     0.2229701435
   13      C      -2.6666886427    -1.9432526294     0.1505664473
   14      C      -2.4644433458    -0.5594192983     0.0002828495
   15      H       0.5041865881     3.7063857184    -0.2724848236
   16      H       3.9480365278    -0.8062524442    -0.9890720781
   17      H      -3.6856375078    -2.3460113893     0.2083159554
   18      H      -0.7650104047     3.9425720182     0.9898607445
   19      H       0.9364707314     3.6155055074     1.4701763135
   20      H       4.3558757802    -1.4901012202     0.6229371566
   21      H       3.8822594648     0.2382601475     0.4818330465
   22      H      -1.7114288489    -3.8899132103     0.3319593396
   23      H      -3.3250224067     0.1189220445    -0.0557159632
   24      H       0.6033954931    -2.9737775919     0.1579207713
 ----------------------------------------------------------------
 Molecular Point Group                 C1    NOp =  1
 Largest Abelian Subgroup              C1    NOp =  1
 Nuclear Repulsion Energy =   872.9179993721 hartrees
 There are       51 alpha and       51 beta electrons
 Applying Cartesian multipole field
    Component          Value
    ---------          -----
     (2,0,0)        1.00000E-11
     (0,2,0)        2.00000E-11
     (0,0,2)       -3.00000E-10
 Nucleus-field energy     =     0.0000000074 hartrees
 Requested basis set is STO-3G
 There are 38 shells and 80 basis functions
 A cutoff of  1.0D-12 yielded    629 shell pairs
 There are      3146 function pairs
 Smallest overlap matrix eigenvalue = 1.81E-01
 Guess MOs from SCF MO coefficient file
 Reading MOs from coefficient file
 Reading MOs from coefficient file
 A restricted hybrid HF-DFT SCF calculation will be
 performed using Pulay DIIS extrapolation
 Exchange:     0.2000 Hartree-Fock + 0.0800 Slater + 0.7200 B88
 Correlation:  0.1900 VWN1RPA + 0.8100 LYP
 Using SG-1 standard quadrature grid
 Dispersion:   Grimme D3
 SCF converges when DIIS error is below 1.0E-08
 Geometry optimization detected.  Setting ReadMinima to 0
 Setting SaveMinima to 0
 -------------------------------------------------------
 OpenMP Integral computing Module                
 Release: version 1.0, May 2013, Q-Chem Inc. Pittsburgh 
 -------------------------------------------------------
 -------------------------------------------------------
 OpenMP BLAS3 based DFT computing Module                
 Release: version 1.0, May 2013, Q-Chem Inc. Pittsburgh 
 -------------------------------------------------------
 ---------------------------------------
  Cycle       Energy         DIIS Error
 ---------------------------------------
    1    -678.9314576066      7.80E-03
    2    -679.0866351711      2.82E-03
    3    -679.0717355015      4.93E-03
    4    -679.0936615805      6.97E-04
    5    -679.0941320196      1.87E-04
    6    -679.0941654440      5.28E-05
    7    -679.0941680046      2.30E-05
    8    -679.0941684552      1.24E-05
    9    -679.0941685954      2.58E-06
   10    -679.0941686028      4.85E-07
   11    -679.0941686031      1.56E-07
   12    -679.0941686031      5.16E-08
   13    -679.0941686031      2.22E-08
   14    -679.0941686031      5.78E-09 Convergence criterion met
 ---------------------------------------
 SCF time:  CPU 43.18 s  wall 1.82 s
 SCF   energy in the final basis set = -679.0941686031
 Total energy in the final basis set = -679.0941686031
 
 --------------------------------------------------------------
 
                    Orbital Energies (a.u.)
 --------------------------------------------------------------
 
 Alpha MOs
 -- Occupied --
-18.943 -18.938 -18.871 -18.868 -10.108 -10.105 -10.071 -10.066
-10.031 -10.030 -10.020 -10.019 -10.019 -10.018  -1.022  -1.015
 -0.941  -0.936  -0.815  -0.725  -0.717  -0.672  -0.663  -0.589
 -0.576  -0.524  -0.498  -0.467  -0.445  -0.423  -0.418  -0.416
 -0.409  -0.398  -0.379  -0.372  -0.355  -0.349  -0.335  -0.320
 -0.317  -0.306  -0.293  -0.256  -0.249  -0.202  -0.200  -0.182
 -0.173  -0.153  -0.149
 -- Virtual --
  0.042   0.066   0.124   0.136   0.238   0.255   0.277   0.330
  0.354   0.359   0.381   0.398   0.421   0.422   0.427   0.431
  0.435   0.439   0.443   0.448   0.454   0.541   0.548   0.569
  0.582   0.655   0.656   0.751   0.775
 --------------------------------------------------------------
 
          Ground-State Mulliken Net Atomic Charges

     Atom                 Charge (a.u.)
  ----------------------------------------
      1 C                    -0.014518
      2 C                    -0.011290
      3 C                     0.217043
      4 C                     0.219161
      5 O                    -0.173298
      6 O                    -0.214025
      7 O                    -0.171198
      8 O                    -0.212804
      9 C                    -0.123627
     10 C                    -0.123956
     11 C                    -0.071638
     12 C                    -0.075042
     13 C                    -0.073852
     14 C                    -0.071442
     15 H                     0.094120
     16 H                     0.090133
     17 H                     0.085319
     18 H                     0.088606
     19 H                     0.091700
     20 H                     0.092694
     21 H                     0.091230
     22 H                     0.084683
     23 H                     0.089787
     24 H                     0.092214
  ----------------------------------------
  Sum of atomic charges =    -0.000000

 -----------------------------------------------------------------
                    Cartesian Multipole Moments
 -----------------------------------------------------------------
    Charge (ESU x 10^10)
                -0.0000
    Dipole Moment (Debye)
         X       1.0696      Y      -0.9473      Z       1.2531
       Tot       1.9005
    Quadrupole Moments (Debye-Ang)
        XX     -64.9545     XY       2.5785     YY     -67.2117
        XZ      -1.3616     YZ       4.3938     ZZ     -76.8626
    Octopole Moments (Debye-Ang^2)
       XXX      34.9844    XXY     -10.4565    XYY       7.6526
       YYY      22.8438    XXZ       4.6030    XYZ      -0.7657
       YYZ       9.7507    XZZ       9.7239    YZZ       6.8141
       ZZZ      -8.0945
    Hexadecapole Moments (Debye-Ang^3)
      XXXX   -1465.7452   XXXY     -40.9616   XXYY    -527.6606
      XYYY       4.9688   YYYY   -1459.4473   XXXZ      -4.4590
      XXYZ      11.4514   XYYZ     -14.2147   YYYZ      20.8926
      XXZZ    -311.1286   XYZZ     -13.1978   YYZZ    -298.9392
      XZZZ      -4.8310   YZZZ      -0.5703   ZZZZ    -164.3633
 -----------------------------------------------------------------
 Calculating analytic gradient of the SCF energy
 Gradient of SCF Energy
            1           2           3           4           5           6
    1   0.0034702   0.0035779   0.0084496   0.0093706  -0.0028535  -0.0044164
    2   0.0058970   0.0042907  -0.0063127   0.0018218   0.0188951  -0.0087510
    3   0.0007460  -0.0067728   0.0106270   0.0128134  -0.0150001   0.0022635
            7           8           9          10          11          12
    1  -0.0149464   0.0026663   0.0009193  -0.0077773   0.0004698  -0.0007052
    2   0.0066345  -0.0072571  -0.0091634  -0.0047099   0.0005534  -0.0001048
    3  -0.0170408   0.0035670   0.0025928   0.0030011  -0.0002634   0.0002006
           13          14          15          16          17          18
    1   0.0005824  -0.0012381   0.0010843   0.0000926   0.0010958   0.0014861
    2  -0.0003763   0.0005036  -0.0005365  -0.0017463   0.0002901  -0.0009172
    3   0.0005204   0.0005948   0.0017079   0.0014564  -0.0001456   0.0013550
           19          20          21          22          23          24
    1  -0.0008411   0.0012806   0.0000802  -0.0000116   0.0005227  -0.0023587
    2   0.0022490   0.0019262  -0.0019134   0.0011379  -0.0015366  -0.0008741
    3  -0.0014337  -0.0012125   0.0011758  -0.0002008   0.0000528  -0.0006049
 Max gradient component =       1.890E-02
 RMS gradient           =       5.476E-03
 Gradient time:  CPU 9.87 s  wall 0.42 s
 Geometry Optimization Parameters
   NAtoms,    NIC,     NZ,  NCons,   NDum,   NFix, NCnnct, MaxDiis
       24     152       0       2       0       0       0       0

 Cartesian Hessian Update
 Hessian Updated using BFGS Update


** CONSTRAINED OPTIMIZATION IN DELOCALIZED INTERNAL COORDINATES **
   Searching for a Minimum

   Optimization Cycle:   2

                       Coordinates (Angstroms)
     ATOM                X               Y               Z
      1  C        -0.0358610545   -0.8963044462   -0.0034676087
      2  C        -1.1552692150   -0.0252005528   -0.0746785471
      3  C         1.3741725364   -0.3539130397   -0.2462748799
      4  C        -1.0098314995    1.4976780878   -0.1660265002
      5  O         2.3202767058   -1.2134513411    0.3355813879
      6  O         1.6542292697    0.6385684083   -0.9532557760
      7  O        -0.0655494377    1.9342231591    0.7771314734
      8  O        -1.6765448368    2.2412161168   -0.9173432266
      9  C         0.1537842376    3.3812118951    0.7269260922
     10  C         3.6969517316   -0.7814291030    0.0901398770
     11  C        -0.2538867046   -2.2897539144    0.1353454036
     12  C        -1.5586302114   -2.8090054006    0.2229701435
     13  C        -2.6666886427   -1.9432526294    0.1505664473
     14  C        -2.4644433458   -0.5594192983    0.0002828495
     15  H         0.5041865881    3.7063857184   -0.2724848236
     16  H         3.9480365278   -0.8062524442   -0.9890720781
     17  H        -3.6856375078   -2.3460113893    0.2083159554
     18  H        -0.7650104047    3.9425720182    0.9898607445
     19  H         0.9364707314    3.6155055074    1.4701763135
     20  H         4.3558757802   -1.4901012202    0.6229371566
     21  H         3.8822594648    0.2382601475    0.4818330465
     22  H        -1.7114288489   -3.8899132103    0.3319593396
     23  H        -3.3250224067    0.1189220445   -0.0557159632
     24  H         0.6033954931   -2.9737775919    0.1579207713
   Point Group: c1    Number of degrees of freedom:    66


   Energy is   -679.094168603

              Constraints and their Current Values
                                        Value     Constraint
   Dihedral:        2   1   3   5      158.487      160.000
   Dihedral:        1   2   4   7      -46.040      -45.000
 Hessian Updated using BFGS Update

   Using Lagrange Multiplier Algorithm


 60 Hessian modes will be used to form the next step
  Hessian Eigenvalues:
    -0.977912   -0.977137    0.044878    0.045000    0.045000    0.045000
     0.045001    0.045001    0.045002    0.045005    0.045012    0.045024
     0.045067    0.045188    0.045933    0.113798    0.113903    0.116869
     0.116916    0.158693    0.159962    0.159981    0.159993    0.160000
     0.161871    0.219995    0.224874    0.238007    0.244385    0.248678
     0.249333    0.249850    0.249976    0.251998    0.342431    0.342735
     0.342874    0.342916    0.343862    0.344135    0.345967    0.349079
     0.349851    0.349935    0.350377    0.373402    0.412937    0.413056
     0.415632    0.422803    0.449409    0.456804    0.465881    0.473156
     0.520102    0.536917    0.956634    0.986860    1.022676    1.025494

 Minimum Search - Taking P-RFO Step
 Searching for Lamda that Maximizes Along the Constraint modes Only
 Value Taken    Lamda =   0.00045693
 Searching for Lamda that Minimizes Along All other modes
 Value Taken    Lamda =  -0.00521047
 Step Taken.  Stepsize is  0.159159

                             Maximum     Tolerance    Cnvgd?
         Gradient            0.026404       0.000300      NO
         Displacement        0.048749       0.001200      NO
         Energy change     -0.025332       0.000001      NO


 New Cartesian Coordinates Obtained by Inverse Iteration

 Displacement from previous Coordinates is:  0.417235
 Adding empirical dispersion correction 
 ----------------------------------------------------------------
 Doing -D3(op) with
 s6 =   1.00000
 s8 =   0.78311
 a1 =   0.30000
 a2 =   4.25000
 n  =  10.00000
 -D3 energy without 3body term =     -0.0234455230 hartrees
 ----------------------------------------------------------------
             Standard Nuclear Orientation (Angstroms)
    I     Atom           X                Y                Z
 ----------------------------------------------------------------
    1      C      -0.0445698798    -0.9076804017     0.0165377363
    2      C      -1.1646745186    -0.0311094267    -0.0516566814
    3      C       1.3760681671    -0.3619034502    -0.2144812467
    4      C      -1.0047986727     1.5015642461    -0.1383966852
    5      O       2.3256271452    -1.2659568341     0.3443765506
    6      O       1.6809444527     0.6725512755    -0.8585876516
    7      O      -0.0247845250     1.9205320925     0.8057646352
    8      O      -1.6591205456     2.2764435139    -0.8771325843
    9      C       0.1687131753     3.3791004334     0.6945932283
   10      C       3.6902231478    -0.7674722391     0.0854302286
   11      C      -0.2600427093    -2.3014425185     0.1360751838
   12      C      -1.5667856046    -2.8209414447     0.2069309997
   13      C      -2.6762923258    -1.9516844765     0.1366905807
   14      C      -2.4734612598    -0.5641200987     0.0072248547
   15      H       0.4900595583     3.6700790398    -0.3270307445
   16      H       3.9142379643    -0.7308518489    -1.0013282027
   17      H      -3.6975938144    -2.3546045372     0.1826686829
   18      H      -0.7571374129     3.9372563946     0.9475572071
   19      H       0.9638686706     3.6326735939     1.4203121302
   20      H       4.3717638452    -1.4849616399     0.5796031877
   21      H       3.8455529749     0.2458164853     0.5106399771
   22      H      -1.7201063471    -3.9046514726     0.3036235262
   23      H      -3.3311733811     0.1213556356    -0.0480537473
   24      H       0.6093168458    -2.9732348005     0.1622664330
 ----------------------------------------------------------------
 Molecular Point Group                 C1    NOp =  1
 Largest Abelian Subgroup              C1    NOp =  1
 Nuclear Repulsion Energy =   871.5741743012 hartrees
 There are       51 alpha and       51 beta electrons
 Applying Cartesian multipole field
    Component          Value
    ---------          -----
     (2,0,0)        1.00000E-11
     (0,2,0)        2.00000E-11
     (0,0,2)       -3.00000E-10
 Nucleus-field energy     =     0.0000000100 hartrees
 Requested basis set is STO-3G
 There are 38 shells and 80 basis functions
 A cutoff of  1.0D-12 yielded    629 shell pairs
 There are      3146 function pairs
 Smallest overlap matrix eigenvalue = 1.81E-01
 Guess MOs from SCF MO coefficient file
 Reading MOs from coefficient file
 Reading MOs from coefficient file
 A restricted hybrid HF-DFT SCF calculation will be
 performed using Pulay DIIS extrapolation
 Exchange:     0.2000 Hartree-Fock + 0.0800 Slater + 0.7200 B88
 Correlation:  0.1900 VWN1RPA + 0.8100 LYP
 Using SG-1 standard quadrature grid
 Dispersion:   Grimme D3
 SCF converges when DIIS error is below 1.0E-08
 Geometry optimization detected.  Setting ReadMinima to 0
 Setting SaveMinima to 0
 -------------------------------------------------------
 OpenMP Integral computing Module                
 Release: version 1.0, May 2013, Q-Chem Inc. Pittsburgh 
 -------------------------------------------------------
 -------------------------------------------------------
 OpenMP BLAS3 based DFT computing Module                
 Release: version 1.0, May 2013, Q-Chem Inc. Pittsburgh 
 -------------------------------------------------------
 ---------------------------------------
  Cycle       Energy         DIIS Error
 ---------------------------------------
    1    -679.0461917190      4.07E-03
    2    -679.0953273309      1.07E-03
    3    -679.0923380434      2.13E-03
    4    -679.0963668603      2.93E-04
    5    -679.0964489696      8.42E-05
    6    -679.0964556001      2.55E-05
    7    -679.0964562227      1.02E-05
    8    -679.0964563225      4.88E-06
    9    -679.0964563423      1.84E-06
   10    -679.0964563458      2.47E-07
   11    -679.0964563458      6.52E-08
   12    -679.0964563459      2.54E-08
   13    -679.0964563459      9.57E-09 Convergence criterion met
 ---------------------------------------
 SCF time:  CPU 39.40 s  wall 1.66 s
 SCF   energy in the final basis set = -679.0964563459
 Total energy in the final basis set = -679.0964563459
 
 --------------------------------------------------------------
 
                    Orbital Energies (a.u.)
 --------------------------------------------------------------
 
 Alpha MOs
 -- Occupied --
-18.940 -18.936 -18.874 -18.872 -10.105 -10.103 -10.067 -10.062
-10.032 -10.031 -10.021 -10.020 -10.020 -10.019  -1.016  -1.009
 -0.938  -0.933  -0.816  -0.723  -0.717  -0.667  -0.658  -0.588
 -0.576  -0.522  -0.496  -0.464  -0.443  -0.420  -0.417  -0.413
 -0.407  -0.398  -0.374  -0.366  -0.356  -0.349  -0.334  -0.318
 -0.316  -0.305  -0.291  -0.260  -0.253  -0.203  -0.199  -0.183
 -0.172  -0.154  -0.151
 -- Virtual --
  0.039   0.064   0.122   0.134   0.237   0.252   0.274   0.319
  0.340   0.352   0.375   0.391   0.417   0.420   0.426   0.429
  0.433   0.435   0.439   0.444   0.451   0.534   0.544   0.566
  0.578   0.646   0.647   0.747   0.772
 --------------------------------------------------------------
 
          Ground-State Mulliken Net Atomic Charges

     Atom                 Charge (a.u.)
  ----------------------------------------
      1 C                    -0.014558
      2 C                    -0.011744
      3 C                     0.210930
      4 C                     0.213433
      5 O                    -0.167965
      6 O                    -0.209552
      7 O                    -0.164994
      8 O                    -0.208973
      9 C                    -0.125454
     10 C                    -0.126164
     11 C                    -0.071928
     12 C                    -0.074397
     13 C                    -0.073042
     14 C                    -0.071717
     15 H                     0.093611
     16 H                     0.089342
     17 H                     0.085489
     18 H                     0.087959
     19 H                     0.089851
     20 H                     0.090802
     21 H                     0.090964
     22 H                     0.084943
     23 H                     0.089750
     24 H                     0.093416
  ----------------------------------------
  Sum of atomic charges =    -0.000000

 -----------------------------------------------------------------
                    Cartesian Multipole Moments
 -----------------------------------------------------------------
    Charge (ESU x 10^10)
                 0.0000
    Dipole Moment (Debye)
         X       0.8788      Y      -0.9988      Z       1.0594
       Tot       1.7007
    Quadrupole Moments (Debye-Ang)
        XX     -65.3075     XY       2.6756     YY     -67.7186
        XZ      -1.4080     YZ       4.0518     ZZ     -76.5978
    Octopole Moments (Debye-Ang^2)
       XXX      31.7464    XXY      -9.6521    XYY       6.5646
       YYY      21.6823    XXZ       3.0915    XYZ      -0.8272
       YYZ       8.0415    XZZ       9.6580    YZZ       7.3117
       ZZZ     -11.3128
    Hexadecapole Moments (Debye-Ang^3)
      XXXX   -1476.5837   XXXY     -42.9815   XXYY    -530.8831
      XYYY       1.2400   YYYY   -1476.6917   XXXZ      -6.1430
      XXYZ      10.9470   XYYZ     -13.8927   YYYZ      18.8079
      XXZZ    -309.6654   XYZZ     -14.5604   YYZZ    -300.1138
      XZZZ      -7.0360   YZZZ      -2.1712   ZZZZ    -155.5420
 -----------------------------------------------------------------
 Calculating analytic gradient of the SCF energy
 Gradient of SCF Energy
            1           2           3           4           5           6
    1  -0.0002680   0.0008652   0.0052527   0.0044795  -0.0011917  -0.0004136
    2  -0.0010192  -0.0008251  -0.0036764   0.0032026   0.0016204   0.0028532
    3   0.0043527  -0.0042250   0.0049991   0.0068877  -0.0024783  -0.0025242
            7           8           9          10          11          12
    1  -0.0006274  -0.0017009  -0.0022274  -0.0045663  -0.0002278   0.0007405
    2  -0.0006464   0.0012873  -0.0041498   0.0004406   0.0005780  -0.0001660
    3  -0.0027655  -0.0022710  -0.0013615  -0.0000231  -0.0008510  -0.0000812
           13          14          15          16          17          18
    1  -0.0004058  -0.0000634   0.0001733   0.0002125  -0.0001987  -0.0003808
    2   0.0007486  -0.0000532   0.0002529  -0.0000708   0.0000557   0.0003856
    3   0.0000431   0.0006104  -0.0005684  -0.0005279  -0.0000019   0.0002471
           19          20          21          22          23          24
    1   0.0003172  -0.0002050   0.0003205   0.0001335  -0.0001755   0.0001576
    2  -0.0005747  -0.0004404   0.0004739  -0.0001746   0.0002712  -0.0003732
    3   0.0003057   0.0003916   0.0002055   0.0000287  -0.0001034  -0.0002889
 Max gradient component =       6.888E-03
 RMS gradient           =       1.961E-03
 Gradient time:  CPU 9.65 s  wall 0.41 s
 Geometry Optimization Parameters
   NAtoms,    NIC,     NZ,  NCons,   NDum,   NFix, NCnnct, MaxDiis
       24     152       0       2       0       0       0       0

 Cartesian Hessian Update
 Hessian Updated using BFGS Update


** CONSTRAINED OPTIMIZATION IN DELOCALIZED INTERNAL COORDINATES **
   Searching for a Minimum

   Optimization Cycle:   3

                       Coordinates (Angstroms)
     ATOM                X               Y               Z
      1  C        -0.0445698798   -0.9076804017    0.0165377363
      2  C        -1.1646745186   -0.0311094267   -0.0516566814
      3  C         1.3760681671   -0.3619034502   -0.2144812467
      4  C        -1.0047986727    1.5015642461   -0.1383966852
      5  O         2.3256271452   -1.2659568341    0.3443765506
      6  O         1.6809444527    0.6725512755   -0.8585876516
      7  O        -0.0247845250    1.9205320925    0.8057646352
      8  O        -1.6591205456    2.2764435139   -0.8771325843
      9  C         0.1687131753    3.3791004334    0.6945932283
     10  C         3.6902231478   -0.7674722391    0.0854302286
     11  C        -0.2600427093   -2.3014425185    0.1360751838
     12  C        -1.5667856046   -2.8209414447    0.2069309997
     13  C        -2.6762923258   -1.9516844765    0.1366905807
     14  C        -2.4734612598   -0.5641200987    0.0072248547
     15  H         0.4900595583    3.6700790398   -0.3270307445
     16  H         3.9142379643   -0.7308518489   -1.0013282027
     17  H        -3.6975938144   -2.3546045372    0.1826686829
     18  H        -0.7571374129    3.9372563946    0.9475572071
     19  H         0.9638686706    3.6326735939    1.4203121302
     20  H         4.3717638452   -1.4849616399    0.5796031877
     21  H         3.8455529749    0.2458164853    0.5106399771
     22  H        -1.7201063471   -3.9046514726    0.3036235262
     23  H        -3.3311733811    0.1213556356   -0.0480537473
     24  H         0.6093168458   -2.9732348005    0.1622664330
   Point Group: c1    Number of degrees of freedom:    66


   Energy is   -679.096456346

              Constraints and their Current Values
                                        Value     Constraint
   Dihedral:        2   1   3   5      159.995      160.000
   Dihedral:        1   2   4   7      -45.002      -45.000
 Hessian Updated using BFGS Update

   Using Lagrange Multiplier Algorithm


 63 Hessian modes will be used to form the next step
  Hessian Eigenvalues:
    -0.977889   -0.976599    0.043147    0.045000    0.045000    0.045000
     0.045001    0.045001    0.045002    0.045005    0.045011    0.045019
     0.045041    0.045152    0.045673    0.046181    0.112842    0.113895
     0.116869    0.116916    0.158439    0.159974    0.159991    0.159998
     0.160000    0.161103    0.163069    0.219964    0.223812    0.227172
     0.244371    0.249147    0.249576    0.249953    0.249990    0.251382
     0.303139    0.342552    0.342731    0.342874    0.342916    0.343873
     0.344136    0.346320    0.349227    0.349849    0.350176    0.350528
     0.378042    0.388781    0.413072    0.413280    0.421781    0.449641
     0.456776    0.466671    0.471526    0.474046    0.536412    0.956659
     1.007169    1.022851    1.037406

 Minimum Search - Taking P-RFO Step
 Searching for Lamda that Maximizes Along the Constraint modes Only
 Value Taken    Lamda =   0.00000363
 Searching for Lamda that Minimizes Along All other modes
 Value Taken    Lamda =  -0.00060124
 Step Taken.  Stepsize is  0.058759

                             Maximum     Tolerance    Cnvgd?
         Gradient            0.007294       0.000300      NO
         Displacement        0.018027       0.001200      NO
         Energy change     -0.002288       0.000001      NO


 New Cartesian Coordinates Obtained by Inverse Iteration

 Displacement from previous Coordinates is:  0.264890
 Adding empirical dispersion correction 
 ----------------------------------------------------------------
 Doing -D3(op) with
 s6 =   1.00000
 s8 =   0.78311
 a1 =   0.30000
 a2 =   4.25000
 n  =  10.00000
 -D3 energy without 3body term =     -0.0233584613 hartrees
 ----------------------------------------------------------------
             Standard Nuclear Orientation (Angstroms)
    I     Atom           X                Y                Z
 ----------------------------------------------------------------
    1      C      -0.0431768191    -0.9005032346     0.0082493081
    2      C      -1.1674808247    -0.0262001899    -0.0571146999
    3      C       1.3824626405    -0.3660311933    -0.2249073410
    4      C      -1.0209153403     1.5092876464    -0.1416693225
    5      O       2.3302411270    -1.2829171382     0.3380076701
    6      O       1.7048074259     0.6680783809    -0.8582219554
    7      O      -0.0382122238     1.9448030771     0.8050948749
    8      O      -1.6849215047     2.2821964326    -0.8716785648
    9      C       0.1479128692     3.4118735062     0.7033378683
   10      C       3.7092532677    -0.8048146881     0.0806483081
   11      C      -0.2552410138    -2.2941353195     0.1392861287
   12      C      -1.5597638316    -2.8190321532     0.2116281657
   13      C      -2.6713450709    -1.9549648108     0.1335792193
   14      C      -2.4731928182    -0.5667616077     0.0006690703
   15      H       0.4672921761     3.7083496195    -0.3163699365
   16      H       3.9325863396    -0.7695247260    -1.0055049104
   17      H      -3.6909075036    -2.3618808535     0.1804328321
   18      H      -0.7834796841     3.9601031692     0.9542324192
   19      H       0.9387114287     3.6704866669     1.4314604397
   20      H       4.3812601302    -1.5307630921     0.5745438878
   21      H       3.8753443553     0.2065647789     0.5043417669
   22      H      -1.7098477796    -3.9024565338     0.3152140908
   23      H      -3.3338280579     0.1145993411    -0.0549595941
   24      H       0.6182756625    -2.9595995568     0.1733278731
 ----------------------------------------------------------------
 Molecular Point Group                 C1    NOp =  1
 Largest Abelian Subgroup              C1    NOp =  1
 Nuclear Repulsion Energy =   868.8319836133 hartrees
 There are       51 alpha and       51 beta electrons
 Applying Cartesian multipole field
    Component          Value
    ---------          -----
     (2,0,0)        1.00000E-11
     (0,2,0)        2.00000E-11
     (0,0,2)       -3.00000E-10
 Nucleus-field energy     =     0.0000000103 hartrees
 Requested basis set is STO-3G
 There are 38 shells and 80 basis functions
 A cutoff of  1.0D-12 yielded    629 shell pairs
 There are      3146 function pairs
 Smallest overlap matrix eigenvalue = 1.81E-01
 Guess MOs from SCF MO coefficient file
 Reading MOs from coefficient file
 Reading MOs from coefficient file
 A restricted hybrid HF-DFT SCF calculation will be
 performed using Pulay DIIS extrapolation
 Exchange:     0.2000 Hartree-Fock + 0.0800 Slater + 0.7200 B88
 Correlation:  0.1900 VWN1RPA + 0.8100 LYP
 Using SG-1 standard quadrature grid
 Dispersion:   Grimme D3
 SCF converges when DIIS error is below 1.0E-08
 Geometry optimization detected.  Setting ReadMinima to 0
 Setting SaveMinima to 0
 -------------------------------------------------------
 OpenMP Integral computing Module                
 Release: version 1.0, May 2013, Q-Chem Inc. Pittsburgh 
 -------------------------------------------------------
 -------------------------------------------------------
 OpenMP BLAS3 based DFT computing Module                
 Release: version 1.0, May 2013, Q-Chem Inc. Pittsburgh 
 -------------------------------------------------------
 ---------------------------------------
  Cycle       Energy         DIIS Error
 ---------------------------------------
    1    -679.0882765996      1.34E-03
    2    -679.0965666198      3.82E-04
    3    -679.0960397122      8.42E-04
    4    -679.0967050665      5.98E-05
    5    -679.0967083347      2.00E-05
    6    -679.0967086975      6.46E-06
    7    -679.0967087410      2.41E-06
    8    -679.0967087461      1.08E-06
    9    -679.0967087470      5.08E-07
   10    -679.0967087472      7.79E-08
   11    -679.0967087472      1.56E-08
   12    -679.0967087472      8.55E-09 Convergence criterion met
 ---------------------------------------
 SCF time:  CPU 38.74 s  wall 1.64 s
 SCF   energy in the final basis set = -679.0967087472
 Total energy in the final basis set = -679.0967087472
 
 --------------------------------------------------------------
 
                    Orbital Energies (a.u.)
 --------------------------------------------------------------
 
 Alpha MOs
 -- Occupied --
-18.937 -18.933 -18.875 -18.873 -10.105 -10.102 -10.066 -10.061
-10.033 -10.032 -10.021 -10.021 -10.021 -10.020  -1.012  -1.006
 -0.936  -0.932  -0.816  -0.723  -0.717  -0.666  -0.658  -0.589
 -0.576  -0.523  -0.495  -0.462  -0.442  -0.418  -0.417  -0.412
 -0.406  -0.398  -0.374  -0.366  -0.356  -0.349  -0.334  -0.318
 -0.316  -0.306  -0.292  -0.259  -0.252  -0.204  -0.199  -0.181
 -0.171  -0.154  -0.151
 -- Virtual --
  0.038   0.064   0.121   0.133   0.235   0.248   0.270   0.317
  0.337   0.350   0.374   0.389   0.415   0.421   0.426   0.430
  0.434   0.436   0.440   0.444   0.450   0.533   0.543   0.564
  0.578   0.645   0.648   0.746   0.771
 --------------------------------------------------------------
 
          Ground-State Mulliken Net Atomic Charges

     Atom                 Charge (a.u.)
  ----------------------------------------
      1 C                    -0.013966
      2 C                    -0.011492
      3 C                     0.209764
      4 C                     0.212119
      5 O                    -0.168068
      6 O                    -0.208322
      7 O                    -0.164546
      8 O                    -0.208247
      9 C                    -0.126949
     10 C                    -0.127693
     11 C                    -0.071643
     12 C                    -0.074385
     13 C                    -0.072915
     14 C                    -0.071508
     15 H                     0.093265
     16 H                     0.089108
     17 H                     0.085749
     18 H                     0.087956
     19 H                     0.090397
     20 H                     0.091010
     21 H                     0.090882
     22 H                     0.085222
     23 H                     0.090034
     24 H                     0.094228
  ----------------------------------------
  Sum of atomic charges =    -0.000000

 -----------------------------------------------------------------
                    Cartesian Multipole Moments
 -----------------------------------------------------------------
    Charge (ESU x 10^10)
                -0.0000
    Dipole Moment (Debye)
         X       0.8270      Y      -1.0227      Z       1.0356
       Tot       1.6741
    Quadrupole Moments (Debye-Ang)
        XX     -65.3445     XY       2.6336     YY     -67.5741
        XZ      -1.4055     YZ       4.0005     ZZ     -76.5499
    Octopole Moments (Debye-Ang^2)
       XXX      32.1940    XXY     -10.4238    XYY       6.6632
       YYY      22.1548    XXZ       3.3017    XYZ      -0.8105
       YYZ       8.3639    XZZ       9.6631    YZZ       7.2760
       ZZZ     -11.0002
    Hexadecapole Moments (Debye-Ang^3)
      XXXX   -1484.9565   XXXY     -36.4787   XXYY    -534.9173
      XYYY       9.4006   YYYY   -1488.0623   XXXZ      -5.4976
      XXYZ      10.6720   XYYZ     -13.6724   YYYZ      17.7654
      XXZZ    -311.5818   XYZZ     -11.9509   YYZZ    -302.2548
      XZZZ      -6.2475   YZZZ      -3.4608   ZZZZ    -155.7963
 -----------------------------------------------------------------
 Calculating analytic gradient of the SCF energy
 Gradient of SCF Energy
            1           2           3           4           5           6
    1  -0.0005050  -0.0010765  -0.0000315  -0.0004304  -0.0007177   0.0006105
    2  -0.0007123  -0.0010681  -0.0014955  -0.0006365  -0.0001250   0.0013865
    3   0.0036472  -0.0038488   0.0011945   0.0023348  -0.0008035  -0.0014001
            7           8           9          10          11          12
    1   0.0001176  -0.0005157   0.0008145   0.0013362  -0.0000730   0.0001340
    2  -0.0000035   0.0009501   0.0010676  -0.0001884   0.0001875   0.0001339
    3  -0.0006205  -0.0007427   0.0005457   0.0003761  -0.0004465  -0.0001001
           13          14          15          16          17          18
    1  -0.0000178   0.0001804  -0.0002828  -0.0000017  -0.0000624   0.0000197
    2   0.0001469  -0.0001521   0.0000374   0.0001922  -0.0000799   0.0000873
    3  -0.0000570   0.0002664  -0.0000493  -0.0000056   0.0000909  -0.0001300
           19          20          21          22          23          24
    1   0.0001811   0.0002362  -0.0000068  -0.0000116  -0.0000036   0.0001062
    2   0.0002227  -0.0000481   0.0000869  -0.0000791   0.0001036  -0.0000141
    3   0.0000600   0.0000820  -0.0002398  -0.0000173  -0.0000588  -0.0000775
 Max gradient component =       3.849E-03
 RMS gradient           =       8.608E-04
 Gradient time:  CPU 9.81 s  wall 0.41 s
 Geometry Optimization Parameters
   NAtoms,    NIC,     NZ,  NCons,   NDum,   NFix, NCnnct, MaxDiis
       24     152       0       2       0       0       0       0

 Cartesian Hessian Update
 Hessian Updated using BFGS Update


** CONSTRAINED OPTIMIZATION IN DELOCALIZED INTERNAL COORDINATES **
   Searching for a Minimum

   Optimization Cycle:   4

                       Coordinates (Angstroms)
     ATOM                X               Y               Z
      1  C        -0.0431768191   -0.9005032346    0.0082493081
      2  C        -1.1674808247   -0.0262001899   -0.0571146999
      3  C         1.3824626405   -0.3660311933   -0.2249073410
      4  C        -1.0209153403    1.5092876464   -0.1416693225
      5  O         2.3302411270   -1.2829171382    0.3380076701
      6  O         1.7048074259    0.6680783809   -0.8582219554
      7  O        -0.0382122238    1.9448030771    0.8050948749
      8  O        -1.6849215047    2.2821964326   -0.8716785648
      9  C         0.1479128692    3.4118735062    0.7033378683
     10  C         3.7092532677   -0.8048146881    0.0806483081
     11  C        -0.2552410138   -2.2941353195    0.1392861287
     12  C        -1.5597638316   -2.8190321532    0.2116281657
     13  C        -2.6713450709   -1.9549648108    0.1335792193
     14  C        -2.4731928182   -0.5667616077    0.0006690703
     15  H         0.4672921761    3.7083496195   -0.3163699365
     16  H         3.9325863396   -0.7695247260   -1.0055049104
     17  H        -3.6909075036   -2.3618808535    0.1804328321
     18  H        -0.7834796841    3.9601031692    0.9542324192
     19  H         0.9387114287    3.6704866669    1.4314604397
     20  H         4.3812601302   -1.5307630921    0.5745438878
     21  H         3.8753443553    0.2065647789    0.5043417669
     22  H        -1.7098477796   -3.9024565338    0.3152140908
     23  H        -3.3338280579    0.1145993411   -0.0549595941
     24  H         0.6182756625   -2.9595995568    0.1733278731
   Point Group: c1    Number of degrees of freedom:    66


   Energy is   -679.096708747

              Constraints and their Current Values
                                        Value     Constraint
   Dihedral:        2   1   3   5      160.000      160.000
   Dihedral:        1   2   4   7      -45.000      -45.000
 Hessian Updated using BFGS Update

 60 Hessian modes will be used to form the next step
  Hessian Eigenvalues:
     0.038563    0.045000    0.045001    0.045001    0.045002    0.045004
     0.045010    0.045013    0.045021    0.045044    0.045489    0.045644
     0.046959    0.113884    0.114601    0.116870    0.116916    0.158783
     0.159974    0.159994    0.159998    0.160000    0.160045    0.161084
     0.162956    0.219883    0.224164    0.230200    0.244346    0.249068
     0.249589    0.249982    0.249997    0.250319    0.251761    0.311001
     0.342729    0.342874    0.342915    0.343843    0.343908    0.344141
     0.347417    0.349283    0.349853    0.350221    0.351251    0.369090
     0.412703    0.413084    0.414531    0.448594    0.456664    0.459818
     0.465611    0.467666    0.513980    0.543402    0.956779    0.992305

 Minimum Search - Taking Simple RFO Step
 Searching for Lamda that Minimizes Along All modes
 Value Taken    Lamda =  -0.00007319
 Step Taken.  Stepsize is  0.026198

                             Maximum     Tolerance    Cnvgd?
         Gradient           0.003129      0.000300      NO
         Displacement       0.009785      0.001200      NO
         Energy change     -0.000252      0.000001      NO


 New Cartesian Coordinates Obtained by Inverse Iteration

 Displacement from previous Coordinates is:  0.072011
 Adding empirical dispersion correction 
 ----------------------------------------------------------------
 Doing -D3(op) with
 s6 =   1.00000
 s8 =   0.78311
 a1 =   0.30000
 a2 =   4.25000
 n  =  10.00000
 -D3 energy without 3body term =     -0.0233885488 hartrees
 ----------------------------------------------------------------
             Standard Nuclear Orientation (Angstroms)
    I     Atom           X                Y                Z
 ----------------------------------------------------------------
    1      C      -0.0442109363    -0.8989174639     0.0055420984
    2      C      -1.1683979908    -0.0260499061    -0.0554113410
    3      C       1.3791462009    -0.3602220660    -0.2212090947
    4      C      -1.0208651848     1.5074669461    -0.1416107005
    5      O       2.3266450394    -1.2805849355     0.3371305517
    6      O       1.7011248271     0.6789697463    -0.8442105854
    7      O      -0.0331577507     1.9389160434     0.8015987884
    8      O      -1.6858108834     2.2808405296    -0.8690924106
    9      C       0.1545359523     3.4047129670     0.6982024378
   10      C       3.7039139947    -0.7996927104     0.0814854480
   11      C      -0.2549668260    -2.2931638733     0.1375498819
   12      C      -1.5591527654    -2.8193140950     0.2108193385
   13      C      -2.6712605790    -1.9560115077     0.1333122586
   14      C      -2.4740749186    -0.5673839980     0.0018922371
   15      H       0.4743548176     3.7004176667    -0.3215990598
   16      H       3.9267627389    -0.7581328527    -1.0045126562
   17      H      -3.6905454028    -2.3633971456     0.1796984930
   18      H      -0.7755951760     3.9542111651     0.9509383935
   19      H       0.9463697656     3.6617468926     1.4253440096
   20      H       4.3761794988    -1.5285772197     0.5700923614
   21      H       3.8698085443     0.2085080647     0.5127683338
   22      H      -1.7084671836    -3.9027305566     0.3147064448
   23      H      -3.3353769560     0.1130496306    -0.0525227709
   24      H       0.6188761244    -2.9579038002     0.1727151412
 ----------------------------------------------------------------
 Molecular Point Group                 C1    NOp =  1
 Largest Abelian Subgroup              C1    NOp =  1
 Nuclear Repulsion Energy =   869.6545439725 hartrees
 There are       51 alpha and       51 beta electrons
 Applying Cartesian multipole field
    Component          Value
    ---------          -----
     (2,0,0)        1.00000E-11
     (0,2,0)        2.00000E-11
     (0,0,2)       -3.00000E-10
 Nucleus-field energy     =     0.0000000106 hartrees
 Requested basis set is STO-3G
 There are 38 shells and 80 basis functions
 A cutoff of  1.0D-12 yielded    629 shell pairs
 There are      3146 function pairs
 Smallest overlap matrix eigenvalue = 1.81E-01
 Guess MOs from SCF MO coefficient file
 Reading MOs from coefficient file
 Reading MOs from coefficient file
 A restricted hybrid HF-DFT SCF calculation will be
 performed using Pulay DIIS extrapolation
 Exchange:     0.2000 Hartree-Fock + 0.0800 Slater + 0.7200 B88
 Correlation:  0.1900 VWN1RPA + 0.8100 LYP
 Using SG-1 standard quadrature grid
 Dispersion:   Grimme D3
 SCF converges when DIIS error is below 1.0E-08
 Geometry optimization detected.  Setting ReadMinima to 0
 Setting SaveMinima to 0
 -------------------------------------------------------
 OpenMP Integral computing Module                
 Release: version 1.0, May 2013, Q-Chem Inc. Pittsburgh 
 -------------------------------------------------------
 -------------------------------------------------------
 OpenMP BLAS3 based DFT computing Module                
 Release: version 1.0, May 2013, Q-Chem Inc. Pittsburgh 
 -------------------------------------------------------
 ---------------------------------------
  Cycle       Energy         DIIS Error
 ---------------------------------------
    1    -679.0990770527      4.96E-04
    2    -679.0967474671      5.40E-05
    3    -679.0967422609      9.59E-05
    4    -679.0967512998      1.86E-05
    5    -679.0967515035      1.19E-05
    6    -679.0967516396      1.97E-06
    7    -679.0967516436      7.10E-07
    8    -679.0967516441      1.96E-07
    9    -679.0967516441      8.86E-08
   10    -679.0967516442      5.77E-08
   11    -679.0967516442      1.12E-08
   12    -679.0967516442      4.86E-09 Convergence criterion met
 ---------------------------------------
 SCF time:  CPU 37.54 s  wall 1.58 s
 SCF   energy in the final basis set = -679.0967516442
 Total energy in the final basis set = -679.0967516442
 
 --------------------------------------------------------------
 
                    Orbital Energies (a.u.)
 --------------------------------------------------------------
 
 Alpha MOs
 -- Occupied --
-18.936 -18.933 -18.876 -18.874 -10.105 -10.103 -10.066 -10.061
-10.033 -10.032 -10.021 -10.021 -10.021 -10.020  -1.013  -1.006
 -0.937  -0.932  -0.816  -0.724  -0.717  -0.666  -0.657  -0.589
 -0.576  -0.523  -0.495  -0.462  -0.443  -0.418  -0.417  -0.412
 -0.406  -0.398  -0.374  -0.366  -0.356  -0.349  -0.335  -0.318
 -0.316  -0.306  -0.292  -0.259  -0.253  -0.203  -0.199  -0.181
 -0.171  -0.154  -0.151
 -- Virtual --
  0.038   0.064   0.121   0.134   0.236   0.249   0.270   0.317
  0.338   0.350   0.375   0.389   0.416   0.421   0.427   0.430
  0.434   0.436   0.440   0.444   0.450   0.534   0.544   0.564
  0.578   0.646   0.649   0.747   0.771
 --------------------------------------------------------------
 
          Ground-State Mulliken Net Atomic Charges

     Atom                 Charge (a.u.)
  ----------------------------------------
      1 C                    -0.014129
      2 C                    -0.011693
      3 C                     0.210221
      4 C                     0.212500
      5 O                    -0.168208
      6 O                    -0.208390
      7 O                    -0.164499
      8 O                    -0.208242
      9 C                    -0.126958
     10 C                    -0.127725
     11 C                    -0.071506
     12 C                    -0.074444
     13 C                    -0.072921
     14 C                    -0.071455
     15 H                     0.093249
     16 H                     0.089022
     17 H                     0.085739
     18 H                     0.087897
     19 H                     0.090284
     20 H                     0.090894
     21 H                     0.090829
     22 H                     0.085242
     23 H                     0.090006
     24 H                     0.094288
  ----------------------------------------
  Sum of atomic charges =     0.000000

 -----------------------------------------------------------------
                    Cartesian Multipole Moments
 -----------------------------------------------------------------
    Charge (ESU x 10^10)
                -0.0000
    Dipole Moment (Debye)
         X       0.8229      Y      -1.0273      Z       1.0235
       Tot       1.6674
    Quadrupole Moments (Debye-Ang)
        XX     -65.3966     XY       2.6502     YY     -67.6451
        XZ      -1.4219     YZ       3.9726     ZZ     -76.5011
    Octopole Moments (Debye-Ang^2)
       XXX      32.0273    XXY     -10.4106    XYY       6.6540
       YYY      21.7687    XXZ       3.2311    XYZ      -0.8271
       YYZ       8.2750    XZZ       9.7356    YZZ       7.2845
       ZZZ     -11.1507
    Hexadecapole Moments (Debye-Ang^3)
      XXXX   -1483.9449   XXXY     -37.7397   XXYY    -534.1598
      XYYY       7.7866   YYYY   -1485.9355   XXXZ      -6.1236
      XXYZ      10.7873   XYYZ     -13.7956   YYYZ      17.8149
      XXZZ    -310.8354   XYZZ     -12.4720   YYZZ    -301.5393
      XZZZ      -6.8311   YZZZ      -3.1548   ZZZZ    -154.4454
 -----------------------------------------------------------------
 Calculating analytic gradient of the SCF energy
 Gradient of SCF Energy
            1           2           3           4           5           6
    1  -0.0001398   0.0000431  -0.0001240  -0.0009226  -0.0003260  -0.0000759
    2   0.0002605  -0.0005230   0.0000786  -0.0000702  -0.0003159   0.0003398
    3   0.0027962  -0.0031275   0.0005263   0.0015249  -0.0005167  -0.0003319
            7           8           9          10          11          12
    1   0.0007842  -0.0000754   0.0003940   0.0007086   0.0001198  -0.0002383
    2  -0.0003823   0.0001642   0.0005574  -0.0000332  -0.0000139  -0.0000544
    3  -0.0004856  -0.0002302   0.0001050   0.0001094  -0.0003969  -0.0000117
           13          14          15          16          17          18
    1   0.0000147   0.0000609  -0.0001254   0.0000015   0.0000095   0.0000058
    2  -0.0002279   0.0001421   0.0000292   0.0000066  -0.0000279  -0.0000004
    3  -0.0000553   0.0002023  -0.0000287  -0.0000005   0.0000550   0.0000331
           19          20          21          22          23          24
    1   0.0000107  -0.0000295  -0.0000622  -0.0000363   0.0000187  -0.0000160
    2   0.0000025   0.0000437   0.0000276  -0.0000117  -0.0000056   0.0000142
    3  -0.0000699   0.0000049  -0.0000549  -0.0000154  -0.0000466   0.0000145
 Max gradient component =       3.127E-03
 RMS gradient           =       5.847E-04
 Gradient time:  CPU 9.56 s  wall 0.40 s
 Geometry Optimization Parameters
   NAtoms,    NIC,     NZ,  NCons,   NDum,   NFix, NCnnct, MaxDiis
       24     152       0       2       0       0       0       0

 Cartesian Hessian Update
 Hessian Updated using BFGS Update


** CONSTRAINED OPTIMIZATION IN DELOCALIZED INTERNAL COORDINATES **
   Searching for a Minimum

   Optimization Cycle:   5

                       Coordinates (Angstroms)
     ATOM                X               Y               Z
      1  C        -0.0442109363   -0.8989174639    0.0055420984
      2  C        -1.1683979908   -0.0260499061   -0.0554113410
      3  C         1.3791462009   -0.3602220660   -0.2212090947
      4  C        -1.0208651848    1.5074669461   -0.1416107005
      5  O         2.3266450394   -1.2805849355    0.3371305517
      6  O         1.7011248271    0.6789697463   -0.8442105854
      7  O        -0.0331577507    1.9389160434    0.8015987884
      8  O        -1.6858108834    2.2808405296   -0.8690924106
      9  C         0.1545359523    3.4047129670    0.6982024378
     10  C         3.7039139947   -0.7996927104    0.0814854480
     11  C        -0.2549668260   -2.2931638733    0.1375498819
     12  C        -1.5591527654   -2.8193140950    0.2108193385
     13  C        -2.6712605790   -1.9560115077    0.1333122586
     14  C        -2.4740749186   -0.5673839980    0.0018922371
     15  H         0.4743548176    3.7004176667   -0.3215990598
     16  H         3.9267627389   -0.7581328527   -1.0045126562
     17  H        -3.6905454028   -2.3633971456    0.1796984930
     18  H        -0.7755951760    3.9542111651    0.9509383935
     19  H         0.9463697656    3.6617468926    1.4253440096
     20  H         4.3761794988   -1.5285772197    0.5700923614
     21  H         3.8698085443    0.2085080647    0.5127683338
     22  H        -1.7084671836   -3.9027305566    0.3147064448
     23  H        -3.3353769560    0.1130496306   -0.0525227709
     24  H         0.6188761244   -2.9579038002    0.1727151412
   Point Group: c1    Number of degrees of freedom:    66


   Energy is   -679.096751644

              Constraints and their Current Values
                                        Value     Constraint
   Dihedral:        2   1   3   5      160.000      160.000
   Dihedral:        1   2   4   7      -45.000      -45.000
 Hessian Updated using BFGS Update

 60 Hessian modes will be used to form the next step
  Hessian Eigenvalues:
     0.029042    0.044392    0.045000    0.045001    0.045002    0.045002
     0.045007    0.045011    0.045020    0.045044    0.045188    0.045678
     0.049282    0.113014    0.113892    0.116902    0.116925    0.158597
     0.159876    0.159980    0.159996    0.159999    0.160310    0.161133
     0.163035    0.219829    0.223949    0.231610    0.243725    0.246306
     0.249242    0.249943    0.249983    0.250077    0.264792    0.321693
     0.342725    0.342873    0.342915    0.343577    0.344133    0.345680
     0.348439    0.349372    0.349876    0.350222    0.354392    0.375461
     0.394821    0.413129    0.413312    0.444749    0.456641    0.462526
     0.466218    0.470572    0.527854    0.535465    0.955544    0.973298

 Minimum Search - Taking Simple RFO Step
 Searching for Lamda that Minimizes Along All modes
 Value Taken    Lamda =  -0.00002174
 Step Taken.  Stepsize is  0.021457

                             Maximum     Tolerance    Cnvgd?
         Gradient           0.000883      0.000300      NO
         Displacement       0.010344      0.001200      NO
         Energy change     -0.000043      0.000001      NO


 New Cartesian Coordinates Obtained by Inverse Iteration

 Displacement from previous Coordinates is:  0.065835
 Adding empirical dispersion correction 
 ----------------------------------------------------------------
 Doing -D3(op) with
 s6 =   1.00000
 s8 =   0.78311
 a1 =   0.30000
 a2 =   4.25000
 n  =  10.00000
 -D3 energy without 3body term =     -0.0233738915 hartrees
 ----------------------------------------------------------------
             Standard Nuclear Orientation (Angstroms)
    I     Atom           X                Y                Z
 ----------------------------------------------------------------
    1      C      -0.0414219799    -0.8963255168     0.0023283768
    2      C      -1.1660671731    -0.0235957439    -0.0558257800
    3      C       1.3827169312    -0.3596840759    -0.2203922657
    4      C      -1.0225441354     1.5096799532    -0.1407021591
    5      O       2.3261804713    -1.2855197358     0.3360728058
    6      O       1.7100622748     0.6801820707    -0.8383964197
    7      O      -0.0343458774     1.9419507894     0.8010855419
    8      O      -1.6912956658     2.2822858551    -0.8649508344
    9      C       0.1471160182     3.4075653961     0.6973952115
   10      C       3.7035285371    -0.8081764263     0.0796446750
   11      C      -0.2520289662    -2.2903555391     0.1379095057
   12      C      -1.5557533991    -2.8168738557     0.2120437970
   13      C      -2.6682581126    -1.9541546851     0.1327890656
   14      C      -2.4715571409    -0.5657765286     0.0008123246
   15      H       0.4691570376     3.7041124887    -0.3214957847
   16      H       3.9247640892    -0.7637711435    -1.0065804076
   17      H      -3.6875344218    -2.3615850838     0.1787844270
   18      H      -0.7857013729     3.9535571471     0.9478792712
   19      H       0.9361147171     3.6677857615     1.4265352224
   20      H       4.3741246558    -1.5413519408     0.5642326826
   21      H       3.8742703951     0.1975753242     0.5148203540
   22      H      -1.7043966004    -3.9001742866     0.3178123584
   23      H      -3.3332871035     0.1142038797    -0.0528662986
   24      H       0.6219917723    -2.9547965824     0.1746919286
 ----------------------------------------------------------------
 Molecular Point Group                 C1    NOp =  1
 Largest Abelian Subgroup              C1    NOp =  1
 Nuclear Repulsion Energy =   869.6733084492 hartrees
 There are       51 alpha and       51 beta electrons
 Applying Cartesian multipole field
    Component          Value
    ---------          -----
     (2,0,0)        1.00000E-11
     (0,2,0)        2.00000E-11
     (0,0,2)       -3.00000E-10
 Nucleus-field energy     =     0.0000000108 hartrees
 Requested basis set is STO-3G
 There are 38 shells and 80 basis functions
 A cutoff of  1.0D-12 yielded    629 shell pairs
 There are      3146 function pairs
 Smallest overlap matrix eigenvalue = 1.81E-01
 Guess MOs from SCF MO coefficient file
 Reading MOs from coefficient file
 Reading MOs from coefficient file
 A restricted hybrid HF-DFT SCF calculation will be
 performed using Pulay DIIS extrapolation
 Exchange:     0.2000 Hartree-Fock + 0.0800 Slater + 0.7200 B88
 Correlation:  0.1900 VWN1RPA + 0.8100 LYP
 Using SG-1 standard quadrature grid
 Dispersion:   Grimme D3
 SCF converges when DIIS error is below 1.0E-08
 Geometry optimization detected.  Setting ReadMinima to 0
 Setting SaveMinima to 0
 -------------------------------------------------------
 OpenMP Integral computing Module                
 Release: version 1.0, May 2013, Q-Chem Inc. Pittsburgh 
 -------------------------------------------------------
 -------------------------------------------------------
 OpenMP BLAS3 based DFT computing Module                
 Release: version 1.0, May 2013, Q-Chem Inc. Pittsburgh 
 -------------------------------------------------------
 ---------------------------------------
  Cycle       Energy         DIIS Error
 ---------------------------------------
    1    -679.0978384565      3.78E-04
    2    -679.0967546379      3.14E-05
    3    -679.0967521582      6.41E-05
    4    -679.0967559648      9.29E-06
    5    -679.0967560312      4.31E-06
    6    -679.0967560492      1.06E-06
    7    -679.0967560503      2.96E-07
    8    -679.0967560504      1.47E-07
    9    -679.0967560504      5.63E-08
   10    -679.0967560504      2.28E-08
   11    -679.0967560504      3.88E-09 Convergence criterion met
 ---------------------------------------
 SCF time:  CPU 36.83 s  wall 1.56 s
 SCF   energy in the final basis set = -679.0967560504
 Total energy in the final basis set = -679.0967560504
 
 --------------------------------------------------------------
 
                    Orbital Energies (a.u.)
 --------------------------------------------------------------
 
 Alpha MOs
 -- Occupied --
-18.936 -18.933 -18.876 -18.874 -10.105 -10.103 -10.066 -10.061
-10.033 -10.032 -10.021 -10.021 -10.021 -10.020  -1.013  -1.007
 -0.937  -0.932  -0.816  -0.724  -0.717  -0.666  -0.657  -0.589
 -0.576  -0.523  -0.495  -0.462  -0.443  -0.419  -0.417  -0.412
 -0.406  -0.398  -0.374  -0.366  -0.356  -0.349  -0.335  -0.318
 -0.316  -0.306  -0.292  -0.260  -0.253  -0.204  -0.199  -0.181
 -0.172  -0.155  -0.152
 -- Virtual --
  0.038   0.064   0.121   0.134   0.236   0.250   0.271   0.318
  0.338   0.350   0.374   0.389   0.415   0.421   0.427   0.430
  0.434   0.436   0.440   0.444   0.450   0.534   0.544   0.564
  0.578   0.646   0.649   0.747   0.771
 --------------------------------------------------------------
 
          Ground-State Mulliken Net Atomic Charges

     Atom                 Charge (a.u.)
  ----------------------------------------
      1 C                    -0.014184
      2 C                    -0.011764
      3 C                     0.210362
      4 C                     0.212642
      5 O                    -0.168346
      6 O                    -0.208370
      7 O                    -0.164443
      8 O                    -0.208320
      9 C                    -0.126854
     10 C                    -0.127653
     11 C                    -0.071468
     12 C                    -0.074473
     13 C                    -0.072928
     14 C                    -0.071432
     15 H                     0.093165
     16 H                     0.088959
     17 H                     0.085736
     18 H                     0.087962
     19 H                     0.090223
     20 H                     0.090735
     21 H                     0.090780
     22 H                     0.085247
     23 H                     0.090002
     24 H                     0.094422
  ----------------------------------------
  Sum of atomic charges =    -0.000000

 -----------------------------------------------------------------
                    Cartesian Multipole Moments
 -----------------------------------------------------------------
    Charge (ESU x 10^10)
                -0.0000
    Dipole Moment (Debye)
         X       0.8117      Y      -1.0299      Z       1.0173
       Tot       1.6596
    Quadrupole Moments (Debye-Ang)
        XX     -65.4681     XY       2.6108     YY     -67.6576
        XZ      -1.4305     YZ       3.9532     ZZ     -76.4711
[...]
 C         -0.092 -0.001  0.009    0.022 -0.003  0.001   -0.010 -0.035 -0.042
 C         -0.010 -0.018  0.003    0.021 -0.078  0.008   -0.003 -0.001  0.000
 C         -0.007  0.007 -0.000   -0.128 -0.012  0.006    0.002  0.002 -0.000
 C          0.005  0.013 -0.001    0.007  0.128 -0.013    0.001 -0.001  0.000
 C          0.000 -0.016  0.002    0.063 -0.038  0.003   -0.002 -0.003  0.000
 H          0.018  0.096  0.036    0.072  0.276  0.116    0.058  0.062  0.054
 H          0.525 -0.084  0.121   -0.117  0.050 -0.026   -0.312  0.321 -0.084
 H          0.018 -0.015  0.000    0.220 -0.415  0.035   -0.003  0.010 -0.001
 H          0.058  0.082  0.002    0.174  0.245  0.038   -0.038 -0.045 -0.080
 H          0.009  0.106 -0.039    0.018  0.335 -0.118    0.118 -0.033 -0.078
 H          0.532  0.270 -0.279   -0.126 -0.067  0.067    0.030  0.407  0.571
 H          0.440 -0.103 -0.016   -0.093  0.034 -0.027    0.447 -0.186  0.142
 H          0.064 -0.003 -0.002    0.514 -0.121 -0.005   -0.003  0.003  0.000
 H          0.043  0.033 -0.003    0.035 -0.096  0.009    0.008  0.011 -0.001
 H          0.056  0.061 -0.012    0.186  0.101 -0.020    0.006  0.010 -0.001
 TransDip   0.130  0.052 -0.023    0.030  0.092  0.013    0.022  0.055  0.061

 Mode:                49                     50                     51
 Frequency:      1485.40                1495.42                1498.03
 Force Cnst:      1.3594                 1.3774                 1.3877
 Red. Mass:       1.0457                 1.0454                 1.0495
 IR Active:          YES                    YES                    YES
 IR Intens:       11.689                 11.147                  9.226
 Raman Active:       YES                    YES                    YES
               X      Y      Z        X      Y      Z        X      Y      Z
 C          0.001 -0.004  0.000   -0.004  0.001  0.000   -0.001  0.005 -0.001
 C          0.004  0.003 -0.001    0.002 -0.003 -0.000   -0.000 -0.006  0.000
 C         -0.002  0.001  0.000    0.001 -0.002  0.001   -0.006  0.003 -0.003
 C         -0.000  0.001  0.002   -0.003  0.002 -0.002    0.002  0.002  0.002
 O          0.002  0.001  0.002   -0.000  0.002 -0.001    0.004  0.013 -0.011
 O          0.000  0.001 -0.001    0.000  0.000 -0.001    0.002 -0.006  0.004
 O         -0.009 -0.001  0.009   -0.011  0.004 -0.014    0.001 -0.001  0.001
 O         -0.000 -0.000 -0.001    0.005 -0.002  0.006   -0.001  0.000 -0.001
 C         -0.042  0.002  0.034   -0.030  0.021 -0.037    0.003 -0.004  0.005
 C          0.004  0.007  0.009    0.001  0.006 -0.004    0.014  0.041 -0.034
 C         -0.003  0.002 -0.000    0.002  0.003 -0.000    0.005  0.002 -0.000
 C          0.006  0.001 -0.000    0.002 -0.002  0.000   -0.004 -0.003  0.001
 C          0.000 -0.005  0.001   -0.002 -0.001  0.000   -0.002  0.004 -0.000
 C         -0.004  0.000  0.000    0.002  0.003 -0.000    0.004  0.002 -0.000
 H          0.240  0.337  0.246    0.547 -0.329  0.236   -0.069  0.055 -0.026
 H          0.058 -0.057  0.016   -0.023 -0.088 -0.006   -0.243 -0.613 -0.061
 H         -0.009  0.019 -0.002   -0.002 -0.003  0.000    0.007 -0.020  0.002
 H         -0.164 -0.188 -0.426   -0.168 -0.255  0.544    0.023  0.036 -0.079
 H          0.561 -0.171 -0.367    0.108  0.288 -0.177   -0.006 -0.036  0.017
 H         -0.019 -0.092 -0.113    0.032  0.019 -0.015    0.203  0.166 -0.026
 H         -0.099  0.044 -0.038   -0.023 -0.027  0.082   -0.154 -0.213  0.632
 H         -0.020  0.006  0.000   -0.009 -0.000  0.000    0.008 -0.006  0.000
 H          0.002  0.008 -0.001   -0.010 -0.010  0.002   -0.009 -0.014  0.001
 H         -0.004  0.002  0.000   -0.009 -0.011  0.001   -0.010 -0.018  0.001
 TransDip   0.053 -0.039 -0.088    0.075  0.011  0.076    0.067 -0.058  0.041

 Mode:                52                     53                     54
 Frequency:      1514.59                1612.05                1636.17
 Force Cnst:      3.5720                 9.6894                 9.0373
 Red. Mass:       2.6428                 6.3283                 5.7297
 IR Active:          YES                    YES                    YES
 IR Intens:       12.800                 12.285                  6.685
 Raman Active:       YES                    YES                    YES
               X      Y      Z        X      Y      Z        X      Y      Z
 C          0.181 -0.044 -0.005    0.188 -0.232  0.019    0.091  0.190 -0.028
 C         -0.056  0.171 -0.011   -0.265  0.124 -0.008   -0.165 -0.154  0.014
 C         -0.059  0.016 -0.000   -0.047 -0.005  0.021    0.001  0.009 -0.014
 C         -0.013 -0.040 -0.028    0.005  0.004 -0.033    0.022  0.031  0.003
 O          0.004 -0.002  0.001   -0.005 -0.002 -0.000    0.001  0.004 -0.001
 O          0.005 -0.006  0.002    0.015  0.019 -0.016   -0.010 -0.022  0.015
 O          0.004  0.009  0.004    0.001  0.006  0.003   -0.001  0.001 -0.000
 O          0.010 -0.010  0.015    0.010 -0.020  0.023   -0.005 -0.003 -0.000
 C          0.004  0.015  0.001    0.000  0.002  0.002   -0.001 -0.003 -0.001
 C          0.015  0.005 -0.002    0.004  0.001 -0.001    0.002 -0.000  0.001
 C         -0.117 -0.123  0.018   -0.113  0.109 -0.008   -0.226 -0.243  0.035
 C         -0.020  0.089 -0.009    0.323 -0.150  0.006    0.197  0.103 -0.016
 C          0.090 -0.041  0.002   -0.213  0.282 -0.024   -0.062 -0.215  0.025
 C         -0.109 -0.120  0.014    0.134 -0.082  0.006    0.205  0.276 -0.033
 H          0.003 -0.094 -0.023   -0.010 -0.022 -0.010   -0.003  0.004  0.001
 H         -0.063 -0.049 -0.016    0.003 -0.008 -0.002   -0.014 -0.003 -0.002
 H         -0.027  0.317 -0.031    0.049 -0.461  0.046   -0.230  0.179 -0.019
 H         -0.048 -0.066  0.024   -0.006 -0.004  0.000    0.008  0.011  0.002
 H         -0.006 -0.056  0.026   -0.005 -0.010  0.009   -0.005  0.005 -0.001
 H         -0.042 -0.036  0.006    0.002 -0.003 -0.002    0.001 -0.000  0.002
 H         -0.077  0.005  0.042   -0.008 -0.000  0.006   -0.005  0.001  0.003
 H          0.205  0.073 -0.014   -0.469 -0.038  0.020   -0.221  0.188 -0.018
 H          0.365  0.456 -0.045    0.075 -0.182  0.014   -0.314 -0.340  0.035
 H          0.345  0.445 -0.065   -0.189  0.045  0.008    0.250  0.347 -0.055
 TransDip  -0.106 -0.006 -0.042   -0.106 -0.035 -0.006   -0.058  0.059 -0.004

 Mode:                55                     56                     57
 Frequency:      1772.11                1782.53                3050.15
 Force Cnst:     21.8435                22.2487                 5.6438
 Red. Mass:      11.8057                11.8845                 1.0296
 IR Active:          YES                    YES                    YES
 IR Intens:      251.510                300.543                 32.819
 Raman Active:       YES                    YES                    YES
               X      Y      Z        X      Y      Z        X      Y      Z
 C         -0.047 -0.090  0.026    0.021  0.004 -0.004    0.000 -0.000  0.000
 C         -0.008  0.032 -0.006   -0.035  0.084 -0.022   -0.000  0.000 -0.000
 C          0.228  0.637 -0.403   -0.018 -0.023  0.017   -0.002  0.002 -0.001
 C          0.028 -0.006  0.024    0.362 -0.491  0.501    0.000  0.000  0.000
 O         -0.001 -0.045  0.028    0.002  0.002 -0.001    0.003 -0.000  0.000
 O         -0.125 -0.405  0.265    0.006  0.016 -0.013   -0.000 -0.001  0.001
 O         -0.009 -0.003 -0.004   -0.032  0.016 -0.040   -0.000 -0.000 -0.000
 O         -0.011  0.007 -0.012   -0.238  0.297 -0.334   -0.000  0.000 -0.000
 C         -0.001 -0.001 -0.002   -0.001 -0.031  0.007   -0.000 -0.006  0.002
 C          0.028  0.014 -0.010   -0.002 -0.001  0.001    0.036  0.019 -0.015
 C         -0.015  0.018  0.001   -0.009 -0.011  0.003    0.000 -0.000  0.000
 C          0.025 -0.008 -0.001    0.012 -0.001 -0.001    0.000  0.000 -0.000
 C         -0.009  0.015 -0.001   -0.015  0.006  0.002    0.000 -0.000  0.000
 C          0.007 -0.014  0.001    0.018 -0.006  0.004    0.000 -0.000 -0.000
 H          0.016 -0.023  0.003    0.054  0.100  0.089    0.041  0.014 -0.070
 H         -0.129  0.045 -0.060    0.006 -0.002  0.004   -0.114  0.010  0.632
 H          0.003 -0.019  0.004    0.002 -0.037  0.005   -0.000 -0.000  0.000
 H          0.003 -0.004  0.020    0.105  0.091  0.073   -0.071  0.045  0.003
 H         -0.002  0.012 -0.004    0.008  0.228 -0.054    0.034  0.011  0.047
 H         -0.207 -0.103  0.071    0.008  0.004 -0.004   -0.232  0.308 -0.207
 H         -0.130  0.072 -0.017    0.004 -0.003  0.000   -0.113 -0.554 -0.237
 H         -0.027 -0.001 -0.000   -0.012  0.002 -0.004   -0.000 -0.001  0.000
 H          0.034  0.019 -0.005   -0.002 -0.051 -0.013   -0.000  0.000 -0.000
 H         -0.047 -0.005  0.005    0.005  0.007  0.002   -0.002  0.001 -0.000
 TransDip   0.112  0.426 -0.252    0.267 -0.286  0.394    0.182 -0.013 -0.018

 Mode:                58                     59                     60
 Frequency:      3051.05                3122.76                3127.35
 Force Cnst:      5.6456                 6.3605                 6.3808
 Red. Mass:       1.0293                 1.1070                 1.1073
 IR Active:          YES                    YES                    YES
 IR Intens:       36.946                 17.230                 14.567
 Raman Active:       YES                    YES                    YES
               X      Y      Z        X      Y      Z        X      Y      Z
 C          0.000 -0.000  0.000    0.000 -0.000 -0.000   -0.000 -0.000  0.000
 C          0.000  0.000  0.000    0.000  0.000  0.000    0.000 -0.000 -0.000
 C         -0.000  0.000 -0.000    0.000  0.000  0.000    0.000  0.000 -0.000
 C         -0.002 -0.001 -0.002   -0.000 -0.000 -0.000   -0.000 -0.000  0.000
 O          0.000  0.000 -0.000   -0.000  0.000  0.000    0.000 -0.000  0.000
 O         -0.000 -0.000  0.000   -0.000  0.000  0.000   -0.000 -0.000  0.000
 O          0.001  0.002  0.001    0.000  0.000  0.000   -0.000  0.000  0.000
 O          0.000 -0.001  0.001    0.000  0.000  0.000   -0.000  0.000  0.000
 C          0.003  0.042 -0.013    0.001 -0.000 -0.000    0.078 -0.021 -0.050
 C          0.005  0.003 -0.002   -0.002 -0.052 -0.079    0.000  0.000  0.001
 C         -0.000 -0.000  0.000   -0.000  0.000  0.000    0.000  0.000  0.000
 C          0.000  0.000 -0.000    0.000 -0.000  0.000   -0.000 -0.000  0.000
 C          0.000  0.000 -0.000   -0.000  0.000 -0.000    0.000 -0.000  0.000
 C         -0.000 -0.000 -0.000   -0.000 -0.000  0.000   -0.000  0.000  0.000
 H         -0.313 -0.106  0.531   -0.002 -0.001  0.004   -0.335 -0.124  0.601
 H         -0.015  0.001  0.084   -0.122 -0.007  0.683    0.001  0.000 -0.006
 H         -0.001 -0.000  0.000    0.000  0.000 -0.000   -0.000 -0.000 -0.000
 H          0.529 -0.336 -0.024   -0.005  0.004  0.000   -0.597  0.380  0.011
 H         -0.257 -0.080 -0.352   -0.001 -0.000 -0.001    0.005 -0.007 -0.023
 H         -0.031  0.041 -0.027    0.011 -0.026 -0.005   -0.001  0.001 -0.001
 H         -0.015 -0.074 -0.032    0.130  0.653  0.258   -0.001 -0.005 -0.002
 H         -0.000 -0.000  0.000    0.000  0.000 -0.000    0.000  0.000 -0.000
 H         -0.001  0.000  0.000   -0.000  0.000 -0.000    0.000 -0.000 -0.000
 H          0.000 -0.000 -0.000    0.000 -0.000 -0.000   -0.000  0.000  0.000
 TransDip   0.067  0.181  0.025   -0.004 -0.072 -0.112    0.095 -0.039 -0.066

 Mode:                61                     62                     63
 Frequency:      3157.55                3157.59                3172.95
 Force Cnst:      6.4983                 6.4988                 6.4466
 Red. Mass:       1.1062                 1.1063                 1.0868
 IR Active:          YES                    YES                    YES
 IR Intens:       14.043                 12.777                  1.660
 Raman Active:       YES                    YES                    YES
               X      Y      Z        X      Y      Z        X      Y      Z
 C         -0.000  0.000 -0.000    0.000 -0.000 -0.000   -0.000 -0.000  0.000
 C         -0.000 -0.000 -0.000    0.000 -0.000  0.000    0.000  0.000 -0.000
 C         -0.001 -0.001  0.000   -0.000 -0.000 -0.000    0.000  0.000 -0.000
 C         -0.000 -0.000  0.000   -0.000  0.001 -0.000   -0.000 -0.000 -0.000
 O         -0.000  0.000 -0.000    0.000 -0.000  0.000   -0.000 -0.000  0.000
 O          0.000  0.000 -0.000    0.000  0.000  0.000   -0.000 -0.000  0.000
 O          0.000 -0.000 -0.000    0.000 -0.000  0.000    0.000  0.000  0.000
 O          0.000  0.000 -0.000    0.000 -0.000  0.000    0.000 -0.000  0.000
 C          0.001 -0.000  0.003   -0.050  0.004 -0.080   -0.000 -0.000 -0.000
 C          0.031 -0.075  0.049    0.001 -0.002  0.001    0.000 -0.000  0.000
 C          0.000 -0.000  0.000    0.000 -0.000  0.000   -0.008  0.008 -0.000
 C          0.000  0.000 -0.000    0.000  0.000 -0.000   -0.010 -0.055  0.006
 C         -0.000 -0.000  0.000   -0.000 -0.000  0.000    0.055  0.021 -0.004
 C          0.000 -0.000  0.000    0.000 -0.000  0.000   -0.016  0.012 -0.001
 H          0.006  0.002 -0.009   -0.172 -0.052  0.264   -0.000 -0.000  0.000
 H          0.056 -0.019 -0.288    0.002 -0.001 -0.008    0.000 -0.000 -0.001
 H          0.001  0.000 -0.000    0.002  0.001 -0.000   -0.644 -0.239  0.041
 H         -0.006  0.004  0.001    0.247 -0.159 -0.026    0.001 -0.000 -0.000
 H         -0.016 -0.005 -0.022    0.517  0.161  0.713    0.001  0.000  0.002
 H         -0.476  0.632 -0.424   -0.015  0.020 -0.013   -0.002  0.003 -0.002
 H          0.061  0.276  0.133    0.002  0.010  0.005    0.000  0.001  0.000
 H         -0.001 -0.004  0.000   -0.000 -0.000  0.000    0.105  0.650 -0.070
 H         -0.001  0.000 -0.000   -0.001  0.001 -0.000    0.190 -0.154  0.012
 H         -0.003  0.002 -0.000   -0.001  0.000 -0.000    0.109 -0.090  0.004
 TransDip   0.066 -0.082  0.057   -0.064 -0.023 -0.092    0.030 -0.027  0.005

 Mode:                64                     65                     66
 Frequency:      3186.88                3198.86                3212.02
 Force Cnst:      6.5315                 6.6016                 6.6463
 Red. Mass:       1.0915                 1.0950                 1.0934
 IR Active:          YES                    YES                    YES
 IR Intens:        8.940                  7.147                  3.454
 Raman Active:       YES                    YES                    YES
               X      Y      Z        X      Y      Z        X      Y      Z
 C         -0.000  0.000  0.000    0.000 -0.001  0.000   -0.001 -0.003  0.000
 C         -0.001 -0.001  0.000    0.002  0.001 -0.000    0.000 -0.001  0.000
 C         -0.000  0.000 -0.000    0.000  0.000 -0.000   -0.001  0.001 -0.000
 C          0.000 -0.000  0.000   -0.001  0.001 -0.000    0.000 -0.000  0.000
 O         -0.000 -0.000  0.000   -0.000 -0.000  0.000   -0.000 -0.000  0.000
 O          0.000 -0.000  0.000   -0.000 -0.000  0.000    0.000 -0.000 -0.000
 O         -0.000  0.000 -0.000   -0.000 -0.000 -0.000    0.000  0.000  0.000
 O         -0.000  0.000 -0.000    0.000 -0.000  0.000   -0.000  0.000 -0.000
 C          0.000  0.000  0.000   -0.000  0.000 -0.000   -0.000 -0.000 -0.000
 C          0.000 -0.000  0.000    0.000 -0.000  0.000    0.000 -0.000  0.000
 C         -0.012  0.012 -0.001   -0.010  0.009 -0.000   -0.065  0.052 -0.002
 C         -0.007 -0.059  0.006   -0.000 -0.016  0.002    0.006  0.025 -0.003
 C         -0.044 -0.013  0.002   -0.041 -0.017  0.003    0.009  0.002 -0.000
 C          0.033 -0.025  0.002   -0.056  0.048 -0.004    0.005 -0.005  0.000
 H          0.000  0.000 -0.000   -0.000 -0.000  0.001    0.000  0.000  0.000
 H         -0.000 -0.000 -0.000   -0.000 -0.000  0.000    0.000 -0.000 -0.000
 H          0.486  0.175 -0.030    0.458  0.172 -0.029   -0.087 -0.031  0.005
 H         -0.000  0.000  0.000    0.001 -0.001 -0.000   -0.000  0.000 -0.000
 H         -0.001 -0.000 -0.001    0.000 -0.000  0.000    0.000  0.000  0.001
 H         -0.001  0.002 -0.001   -0.001  0.001 -0.001   -0.002  0.002 -0.002
 H         -0.000 -0.000 -0.000   -0.000 -0.000 -0.000   -0.000 -0.000 -0.000
 H          0.102  0.660 -0.071    0.023  0.165 -0.018   -0.045 -0.264  0.028
 H         -0.372  0.304 -0.023    0.641 -0.533  0.041   -0.059  0.049 -0.004
 H          0.158 -0.131  0.006    0.127 -0.104  0.005    0.741 -0.596  0.026
 TransDip  -0.045 -0.084  0.009   -0.083 -0.021  0.007    0.007  0.059 -0.003

 STANDARD THERMODYNAMIC QUANTITIES AT   298.15 K  AND     1.00 ATM

   This Molecule has  0 Imaginary Frequencies
   Zero point vibrational energy:      116.202 kcal/mol

   Atom    1 Element C  Has Mass   12.00000
   Atom    2 Element C  Has Mass   12.00000
   Atom    3 Element C  Has Mass   12.00000
   Atom    4 Element C  Has Mass   12.00000
   Atom    5 Element O  Has Mass   15.99491
   Atom    6 Element O  Has Mass   15.99491
   Atom    7 Element O  Has Mass   15.99491
   Atom    8 Element O  Has Mass   15.99491
   Atom    9 Element C  Has Mass   12.00000
   Atom   10 Element C  Has Mass   12.00000
   Atom   11 Element C  Has Mass   12.00000
   Atom   12 Element C  Has Mass   12.00000
   Atom   13 Element C  Has Mass   12.00000
   Atom   14 Element C  Has Mass   12.00000
   Atom   15 Element H  Has Mass    1.00783
   Atom   16 Element H  Has Mass    1.00783
   Atom   17 Element H  Has Mass    1.00783
   Atom   18 Element H  Has Mass    1.00783
   Atom   19 Element H  Has Mass    1.00783
   Atom   20 Element H  Has Mass    1.00783
   Atom   21 Element H  Has Mass    1.00783
   Atom   22 Element H  Has Mass    1.00783
   Atom   23 Element H  Has Mass    1.00783
   Atom   24 Element H  Has Mass    1.00783
   Molecular Mass:   194.057940 amu
   Principal axes and moments of inertia in amu*Bohr^2:
                             1           2           3
    Eigenvalues --     2396.75502  2468.12973  4482.38258
          X               0.96672     0.25585    -0.00063
          Y              -0.25583     0.96667     0.00980
          Z               0.00312    -0.00931     0.99995
   Rotational Symmetry Number is   1
   The Molecule is an Asymmetric Top
   Translational Enthalpy:        0.889 kcal/mol
   Rotational Enthalpy:           0.889 kcal/mol
   Vibrational Enthalpy:        122.832 kcal/mol
   gas constant (RT):             0.592 kcal/mol
   Translational Entropy:        41.694  cal/mol.K
   Rotational Entropy:           31.650  cal/mol.K
   Vibrational Entropy:          43.194  cal/mol.K

   Total Enthalpy:              125.202 kcal/mol
   Total Entropy:               116.538  cal/mol.K
Archival summary:
1\1\nid04376\FREQ\ProcedureUnspecified\BasisUnspecified\41010\junteng\WedOct419:27:082017WedOct419:27:082017\0\\#,FREQ,ProcedureUnspecified,BasisUnspecified,\\0,1\O\C,1,1.34404\O,2,1.20645,1,124.464\C,1,1.43909,2,115.84,3,-9.26724,0\H,4,1.08764,1,105.395,2,178.918,0\H,4,1.09077,1,110.639,2,59.1687,0\H,4,1.09101,1,109.685,2,-61.9327,0\C,2,1.4992,1,111.364,3,-176.128,0\C,8,1.39534,2,117.142,1,125.1,0\H,9,1.08324,8,118.878,2,2.01338,0\C,9,1.39277,8,120.63,2,-177.563,0\H,11,1.08403,9,119.848,8,179.622,0\C,11,1.39296,9,119.877,8,-0.385931,0\H,13,1.08394,11,120.273,9,-179.8,0\C,13,1.39194,11,119.886,9,-0.530089,0\H,15,1.08189,13,120.28,11,-178.506,0\C,15,1.39929,13,120.687,11,0.356592,0\C,17,1.49361,15,119.895,13,-173.556,0\O,18,1.20831,17,124.776,15,148.839,0\O,18,1.34953,17,111.798,15,-29.023,0\C,20,1.4391,18,115.902,17,176.707,0\H,21,1.08768,20,105.37,18,-179.476,0\H,21,1.09086,20,110.395,18,61.0403,0\H,21,1.09114,20,110.462,18,-59.8597,0\\\@

 Total job time:  4076.84s(wall), 20231.26s(cpu) 
 Wed Oct  4 19:27:08 2017

        *************************************************************
        *                                                           *
        *  Thank you very much for using Q-Chem.  Have a nice day.  *
        *                                                           *
        *************************************************************


