nid01146 10.128.4
Q-Chem Developer Version! Running on 10.128.4.*
                  Welcome to Q-Chem
     A Quantum Leap Into The Future Of Chemistry


 Q-Chem 5.0, Q-Chem, Inc., Pleasanton, CA (2017)

 Yihan Shao,  Zhengting Gan,  E. Epifanovsky,  A. T. B. Gilbert,  M. Wormit,  
 J. Kussmann,  A. W. Lange,  A. Behn,  Jia Deng,  Xintian Feng,  D. Ghosh,  
 M. Goldey,  P. R. Horn,  L. D. Jacobson,  I. Kaliman,  T. Kus,  A. Landau,  
 Jie Liu,  E. I. Proynov,  R. M. Richard,  R. P. Steele,  E. J. Sundstrom,  
 H. L. Woodcock III,  P. M. Zimmerman,  D. Zuev,  B. Albrecht,  E. Alguire,  
 S. A. Baeppler,  Z. Benda,  Y. A. Bernard,  E. J. Berquist,  K. B. Bravaya,  
 D. Casanova,  Chun-Min Chang,  Yunqing Chen,  A. Chien,  K. D. Closser,  
 M. P. Coons,  S. Dasgupta,  M. Diedenhofen,  Hainam Do,  R. G. Edgar,  
 Po-Tung Fang,  S. Fatehi,  Qingguo Feng,  Qinghui Ge,  A. Ghysels,  
 J. Gomes,  J. Gonthier,  A. Gunina,  M. W. D. Hanson-Heine,  
 P. H. P. Harbach,  A. W. Hauser,  J. E. Herr,  E. G. Hohenstein,  
 Z. C. Holden,  Kerwin Hui,  T.-C. Jagau,  Hyunjun Ji,  B. Kaduk,  
 K. Khistyaev,  Jaehoon Kim,  P. Klunzinger,  K. Koh,  D. Kosenkov,  
 T. Kowalczyk,  C. M. Krauter,  A. Kunitsa,  Ka Un Lao,  A. Laurent,  
 K. V. Lawler,  Joonho Lee,  D. Lefrancois,  S. Lehtola,  D. S. Levine,  
 Yi-Pei Li,  You-Sheng Lin,  Fenglai Liu,  E. Livshits,  A. Luenser,  
 P. Manohar,  E. Mansoor,  S. F. Manzer,  Shan-Ping Mao,  Yuezhi Mao,  
 N. Mardirossian,  A. V. Marenich,  L. A. Martinez-Martinez,  S. A. Maurer,  
 N. J. Mayhall,  S. C. McKenzie,  J.-M. Mewes,  A. F. Morrison,  K. Nanda,  
 T. S. Nguyen-Beck,  R. Olivares-Amaya,  J. A. Parkhill,  T. M. Perrine,  
 F. Plasser,  S. Prager,  A. Prociuk,  D. R. Rehn,  F. Rob,  M. Schneider,  
 N. Sergueev,  S. M. Sharada,  S. Sharma,  D. W. Small,  T. Stauch,  
 T. Stein,  Yu-Chuan Su,  A. J. W. Thom,  T. Tsuchimochi,  L. Vogt,  
 O. Vydrov,  M. A. Watson,  J. Wenzel,  M. de Wergifosse,  T. A. Wesolowski,  
 A. White,  J. Witte,  A. Yamada,  Jun Yang,  K. Yao,  S. Yeganeh,  
 S. R. Yost,  Zhi-Qiang You,  A. Zech,  Igor Ying Zhang,  Xing Zhang,  
 Yan Zhao,  Ying Zhu,  B. R. Brooks,  G. K. L. Chan,  C. J. Cramer,  
 M. S. Gordon,  W. J. Hehre,  A. Klamt,  M. W. Schmidt,  C. D. Sherrill,  
 D. G. Truhlar,  A. Aspuru-Guzik,  R. Baer,  A. T. Bell,  N. A. Besley,  
 Jeng-Da Chai,  A. Dreuw,  B. D. Dunietz,  T. R. Furlani,  Chao-Ping Hsu,  
 Yousung Jung,  Jing Kong,  D. S. Lambrecht,  WanZhen Liang,  C. Ochsenfeld,  
 V. A. Rassolov,  L. V. Slipchenko,  J. E. Subotnik,  T. Van Voorhis,  
 J. M. Herbert,  A. I. Krylov,  P. M. W. Gill,  M. Head-Gordon

 Contributors to earlier versions of Q-Chem not listed above: 
 R. D. Adamson,  B. Austin,  J. Baker,  G. J. O. Beran,  K. Brandhorst,  
 S. T. Brown,  E. F. C. Byrd,  A. K. Chakraborty,  C.-L. Cheng,  
 Siu Hung Chien,  D. M. Chipman,  D. L. Crittenden,  H. Dachsel,  
 R. A. DiStasio Jr.,  R. J. Doerksen,  A. D. Dutoi,  L. Fusti-Molnar,  
 W. A. Goddard III,  A. Golubeva-Zadorozhnaya,  S. R. Gwaltney,  G. Hawkins,  
 A. Heyden,  S. Hirata,  G. Kedziora,  F. J. Keil,  C. Kelley,  Jihan Kim,  
 R. A. King,  R. Z. Khaliullin,  P. P. Korambath,  W. Kurlancheek,  
 A. M. Lee,  M. S. Lee,  S. V. Levchenko,  Ching Yeh Lin,  D. Liotard,  
 R. C. Lochan,  I. Lotan,  P. E. Maslen,  N. Nair,  D. P. O'Neill,  
 D. Neuhauser,  E. Neuscamman,  C. M. Oana,  R. Olson,  B. Peters,  
 R. Peverati,  P. A. Pieniazek,  Y. M. Rhee,  J. Ritchie,  M. A. Rohrdanz,  
 E. Rosta,  N. J. Russ,  H. F. Schaefer III,  N. E. Schultz,  N. Shenvi,  
 A. C. Simmonett,  A. Sodt,  D. Stuck,  K. S. Thanthiriwatte,  V. Vanovschi,  
 Tao Wang,  A. Warshel,  C. F. Williams,  Q. Wu,  X. Xu,  W. Zhang

 Please cite Q-Chem as follows:
 Y. Shao et al., Mol. Phys. 113, 184-215 (2015)
 DOI: 10.1080/00268976.2014.952696

 Q-Chem 5.0.0 for Intel X86 EM64T Linux

 Parts of Q-Chem use Armadillo 5.200.1 (Boston Tea Smuggler).
 http://arma.sourceforge.net/

 Q-Chem begins on Wed Oct  4 18:04:27 2017  

Host: nid01146
0

     Scratch files written to /global/cscratch1/sd/junteng/scratch/17/opt_11n01o-.save//

Checking the input file for inconsistencies... 	...done.

--------------------------------------------------------------
User input:
--------------------------------------------------------------
$molecule
0  1
C    0.469  -2.369   0.246
C   -0.100  -2.666   1.497
C    0.820  -0.970  -0.128
C   -0.250  -1.617   2.525
O    1.710  -0.973  -1.154
O    0.353   0.027   0.395
O    0.994  -1.244   2.918
O   -1.315  -1.271   3.005
C    0.990  -0.231   3.923
C    2.104   0.331  -1.586
C    0.633  -3.406  -0.690
C    0.237  -4.708  -0.384
C   -0.335  -4.993   0.854
C   -0.510  -3.982   1.810
H    0.475   0.666   3.564
H    1.246   0.871  -1.997
H   -0.645  -6.015   1.070
H    0.524  -0.605   4.840
H    2.028   0.031   4.144
H    2.851   0.214  -2.376
H    2.557   0.890  -0.761
H    0.365  -5.501  -1.118
H    1.053  -3.209  -1.674
C   -1.128  -4.326   3.139
H   -2.093  -3.824   3.253
H   -0.462  -4.036   3.958
H   -1.304  -5.403   3.231
$end


$opt
CONSTRAINT
tors    2    1    3    5    163.6
tors    1    2    4    7    -72.3
ENDCONSTRAINT
$end

$rem
JOBTYPE                   OPT
METHOD                    B3LYP
DFT_D                     D3_OP
BASIS                     STO-3G
GEOM_OPT_MAX_CYCLES       500
SYMMETRY                  False
THRESH                    12
SCF_CONVERGENCE           8
MAX_SUB_FILE_NUM          128
MEM_STATIC                400
MEM_TOTAL                 4000
$end

--------------------------------------------------------------
 Adding empirical dispersion correction 
 ----------------------------------------------------------------
 Doing -D3(op) with
 s6 =   1.00000
 s8 =   0.78311
 a1 =   0.30000
 a2 =   4.25000
 n  =  10.00000
 -D3 energy without 3body term =     -0.0281099174 hartrees
 ----------------------------------------------------------------
             Standard Nuclear Orientation (Angstroms)
    I     Atom           X                Y                Z
 ----------------------------------------------------------------
    1      C       0.4276448099    -0.8415736243    -0.0588692333
    2      C      -0.8060843738    -0.1694900882    -0.1153229467
    3      C       1.7108516923    -0.1157460900    -0.2752773829
    4      C      -0.8586766063     1.2982395328    -0.2659510208
    5      O       2.7440659004    -0.8386462100     0.2293698371
    6      O       1.8151246914     0.9559824043    -0.8463747267
    7      O      -0.3462610882     1.8472865541     0.8641338013
    8      O      -1.3960448180     1.8760408395    -1.1942408759
    9      C      -0.3453536797     3.2741738433     0.8499267384
   10      C       4.0219453492    -0.2207266872     0.0636122501
   11      C       0.4347697576    -2.2356355990     0.1279500539
   12      C      -0.7617862935    -2.9413211965     0.2541144457
   13      C      -1.9807647890    -2.2699771573     0.1874690522
   14      C      -2.0220088454    -0.8801964136     0.0044651935
   15      H       0.2409006342     3.6507951732     0.0054285126
   16      H       4.2682047510    -0.1351699828    -0.9988007380
   17      H      -2.9041102496    -2.8410186193     0.2801232975
   18      H      -1.3703322120     3.6561049330     0.8116037554
   19      H       0.1193667722     3.6218521173     1.7762548225
   20      H       4.7702630880    -0.8580083794     0.5428727289
   21      H       4.0413877155     0.7607414868     0.5480265539
   22      H      -0.7435362013    -4.0202578732     0.3939414170
   23      H       1.3701157423    -2.7903072772     0.1584823066
   24      C      -3.3565948521    -0.1864117253    -0.0591272334
   25      H      -3.5169381685     0.2431909134    -1.0520807034
   26      H      -3.4152264497     0.6020259728     0.6980684692
   27      H      -4.1788259208    -0.8832659350     0.1350357913
 ----------------------------------------------------------------
 Molecular Point Group                 C1    NOp =  1
 Largest Abelian Subgroup              C1    NOp =  1
 Nuclear Repulsion Energy =  1009.1896279882 hartrees
 There are       55 alpha and       55 beta electrons
 Requested basis set is STO-3G
 There are 42 shells and 87 basis functions

 Total QAlloc Memory Limit   4000 MB
 Mega-Array Size       392 MB
 MEM_STATIC part       400 MB
 A cutoff of  1.0D-12 yielded    765 shell pairs
 There are      3696 function pairs
 
 -------------------------------------------------------
 OpenMP Integral Computing Module                       
 Release: version 1.0, May 2013, Q-Chem Inc. Pittsburgh 
 -------------------------------------------------------
 Integral Job Info:
 Integral job number is                      11
 Integral operator is                         1
 short-range coefficients                     0
 long-range coefficients              100000000
 Omega coefficients                           0
 if combine SR and LR in K                    0
 Integral screening is                        0
 Integral computing path is                   2
 max size of driver memory is            800000
 size of driver memory is                 45569
 size of scratch memory is               945100
 max col of scratch BK array                289
 max len of scratch array in speh3           22
 max len of scratch index in speh4            8
 max int batch size is                      520
 min int batch size is                       52
 fixed nKL is                                52
 max L of basis functions is                  1
 order of int derivative is                   0
 number of shells is                         42
 number of basis is                          87
 number of cartesian basis is                87
 number of contracted shell pairs           765
 number of primitive shell pairs           4169
 maxK2 (contraction) of shell pair            9
 max number of K2 of shell pair               1
 max number of CS2 of shell pair            112
 max number of PS2 of shell pair            564
 mem total for path MDJ                   25842
 -------------------------------------------------------
 Smallest overlap matrix eigenvalue = 1.75E-01

 Scale SEOQF with 1.000000e-01/1.000000e-01/1.000000e-01

 Standard Electronic Orientation quadrupole field applied
 Nucleus-field energy     =     0.0000000367 hartrees
 Guess from superposition of atomic densities
 Warning:  Energy on first SCF cycle will be non-variational
 A restricted hybrid HF-DFT SCF calculation will be
 performed using Pulay DIIS extrapolation
 Exchange:     0.2000 Hartree-Fock + 0.0800 Slater + 0.7200 B88
 Correlation:  0.1900 VWN1RPA + 0.8100 LYP
 Using SG-1 standard quadrature grid
 Dispersion:   Grimme D3
 SCF converges when DIIS error is below 1.0E-08
 -------------------------------------------------------
 OpenMP Integral computing Module                
 Release: version 1.0, May 2013, Q-Chem Inc. Pittsburgh 
 -------------------------------------------------------
 -------------------------------------------------------
 OpenMP BLAS3 based DFT computing Module                
 Release: version 1.0, May 2013, Q-Chem Inc. Pittsburgh 
 -------------------------------------------------------
 ---------------------------------------
  Cycle       Energy         DIIS Error
 ---------------------------------------
    1    -717.8019365690      1.20E-01
    2    -717.7010378448      1.35E-02
    3    -716.6909548447      3.55E-02
    4    -717.8989360821      4.93E-03
    5    -717.9220252155      1.83E-03
    6    -717.9252541391      6.40E-04
    7    -717.9256752319      2.14E-04
    8    -717.9257222207      5.99E-05
    9    -717.9257259474      2.45E-05
   10    -717.9257267525      3.51E-06
   11    -717.9257267669      1.14E-06
   12    -717.9257267684      2.20E-07
   13    -717.9257267684      1.01E-07
   14    -717.9257267684      3.15E-08
   15    -717.9257267684      8.11E-09 Convergence criterion met
 ---------------------------------------
 SCF time:  CPU 57.26 s  wall 2.43 s
 SCF   energy in the final basis set = -717.9257267684
 Total energy in the final basis set = -717.9257267684
 
 --------------------------------------------------------------
 
                    Orbital Energies (a.u.)
 --------------------------------------------------------------
 
 Alpha MOs
 -- Occupied --
-18.948 -18.944 -18.869 -18.865 -10.116 -10.112 -10.076 -10.069
-10.024 -10.023 -10.020 -10.016 -10.010 -10.010 -10.009  -1.048
 -1.041  -0.957  -0.953  -0.821  -0.742  -0.730  -0.692  -0.672
 -0.648  -0.595  -0.566  -0.516  -0.504  -0.472  -0.451  -0.440
 -0.433  -0.422  -0.418  -0.395  -0.390  -0.385  -0.372  -0.360
 -0.352  -0.343  -0.339  -0.322  -0.312  -0.300  -0.293  -0.253
 -0.246  -0.199  -0.190  -0.185  -0.179  -0.154  -0.147
 -- Virtual --
  0.052   0.076   0.129   0.152   0.251   0.281   0.311   0.352
  0.373   0.392   0.397   0.405   0.432   0.437   0.443   0.446
  0.453   0.456   0.457   0.459   0.467   0.471   0.483   0.493
  0.574   0.582   0.592   0.613   0.701   0.710   0.788   0.802
 --------------------------------------------------------------
 
          Ground-State Mulliken Net Atomic Charges

     Atom                 Charge (a.u.)
  ----------------------------------------
      1 C                    -0.018582
      2 C                    -0.016936
      3 C                     0.234617
      4 C                     0.240956
      5 O                    -0.184918
      6 O                    -0.230663
      7 O                    -0.182368
      8 O                    -0.224940
      9 C                    -0.127135
     10 C                    -0.125431
     11 C                    -0.074859
     12 C                    -0.080052
     13 C                    -0.077609
     14 C                     0.012689
     15 H                     0.097897
     16 H                     0.094244
     17 H                     0.080944
     18 H                     0.091047
     19 H                     0.094514
     20 H                     0.096685
     21 H                     0.094839
     22 H                     0.082779
     23 H                     0.091068
     24 C                    -0.232605
     25 H                     0.096456
     26 H                     0.085477
     27 H                     0.081886
  ----------------------------------------
  Sum of atomic charges =     0.000000

 -----------------------------------------------------------------
                    Cartesian Multipole Moments
 -----------------------------------------------------------------
    Charge (ESU x 10^10)
                -0.0000
    Dipole Moment (Debye)
         X       0.7982      Y      -0.5502      Z       1.4656
       Tot       1.7573
    Quadrupole Moments (Debye-Ang)
        XX     -68.8640     XY       1.0683     YY     -74.0057
        XZ      -1.4979     YZ       4.7411     ZZ     -83.2885
    Octopole Moments (Debye-Ang^2)
       XXX      41.5766    XXY      -2.7669    XYY       0.8577
       YYY      25.2011    XXZ       3.5524    XYZ      -0.6167
       YYZ      13.0115    XZZ       9.2585    YZZ       6.8348
       ZZZ      -3.0962
    Hexadecapole Moments (Debye-Ang^3)
      XXXX   -1834.3719   XXXY     -13.9583   XXYY    -592.7498
      XYYY      -6.0514   YYYY   -1421.5834   XXXZ       3.4567
      XXYZ       8.8362   XYYZ      -9.5961   YYYZ      16.3355
      XXZZ    -378.5399   XYZZ      -4.8522   YYZZ    -299.7002
      XZZZ      -0.3707   YZZZ       2.9732   ZZZZ    -200.2064
 -----------------------------------------------------------------
 Calculating analytic gradient of the SCF energy
 Gradient of SCF Energy
            1           2           3           4           5           6
    1   0.0155520   0.0002434   0.0288734   0.0033619  -0.0165587  -0.0090033
    2   0.0247654   0.0340006   0.0084045   0.0202584   0.0561898  -0.0668372
    3  -0.0054958  -0.0064167  -0.0034908   0.0083047  -0.0327235   0.0327088
            7           8           9          10          11          12
    1  -0.0295598   0.0255054  -0.0003711  -0.0164199  -0.0008983  -0.0031731
    2   0.0085524  -0.0425767  -0.0241214  -0.0093064   0.0067387   0.0046852
    3  -0.0553920   0.0504006  -0.0000651   0.0029537   0.0000270  -0.0002477
           13          14          15          16          17          18
    1   0.0029767  -0.0065585  -0.0025396  -0.0055135   0.0073378   0.0102249
    2   0.0029842   0.0110264  -0.0077578  -0.0067668   0.0014604  -0.0087175
    3  -0.0002257  -0.0001337   0.0102837   0.0117449  -0.0006387   0.0042723
           19          20          21          22          23          24
    1  -0.0046865  -0.0047308  -0.0030343  -0.0003432  -0.0094996   0.0157825
    2  -0.0008429   0.0080769  -0.0133174   0.0081641   0.0001020  -0.0050621
    3  -0.0097686  -0.0052144  -0.0006932  -0.0010887  -0.0004175  -0.0020005
           25          26          27
    1   0.0009587   0.0010130   0.0010607
    2  -0.0069575  -0.0076169   0.0044717
    3   0.0047262  -0.0008020  -0.0006072
 Max gradient component =       6.684E-02
 RMS gradient           =       1.774E-02
 Gradient time:  CPU 12.72 s  wall 0.54 s
 Geometry Optimization Parameters
   NAtoms,    NIC,     NZ,  NCons,   NDum,   NFix, NCnnct, MaxDiis
       27     173       0       2       0       0       0       0


** CONSTRAINED OPTIMIZATION IN DELOCALIZED INTERNAL COORDINATES **
   Searching for a Minimum

   Optimization Cycle:   1

                       Coordinates (Angstroms)
     ATOM                X               Y               Z
      1  C         0.4276448099   -0.8415736243   -0.0588692333
      2  C        -0.8060843738   -0.1694900882   -0.1153229467
      3  C         1.7108516923   -0.1157460900   -0.2752773829
      4  C        -0.8586766063    1.2982395328   -0.2659510208
      5  O         2.7440659004   -0.8386462100    0.2293698371
      6  O         1.8151246914    0.9559824043   -0.8463747267
      7  O        -0.3462610882    1.8472865541    0.8641338013
      8  O        -1.3960448180    1.8760408395   -1.1942408759
      9  C        -0.3453536797    3.2741738433    0.8499267384
     10  C         4.0219453492   -0.2207266872    0.0636122501
     11  C         0.4347697576   -2.2356355990    0.1279500539
     12  C        -0.7617862935   -2.9413211965    0.2541144457
     13  C        -1.9807647890   -2.2699771573    0.1874690522
     14  C        -2.0220088454   -0.8801964136    0.0044651935
     15  H         0.2409006342    3.6507951732    0.0054285126
     16  H         4.2682047510   -0.1351699828   -0.9988007380
     17  H        -2.9041102496   -2.8410186193    0.2801232975
     18  H        -1.3703322120    3.6561049330    0.8116037554
     19  H         0.1193667722    3.6218521173    1.7762548225
     20  H         4.7702630880   -0.8580083794    0.5428727289
     21  H         4.0413877155    0.7607414868    0.5480265539
     22  H        -0.7435362013   -4.0202578732    0.3939414170
     23  H         1.3701157423   -2.7903072772    0.1584823066
     24  C        -3.3565948521   -0.1864117253   -0.0591272334
     25  H        -3.5169381685    0.2431909134   -1.0520807034
     26  H        -3.4152264497    0.6020259728    0.6980684692
     27  H        -4.1788259208   -0.8832659350    0.1350357913
   Point Group: c1    Number of degrees of freedom:    75


   Energy is   -717.925726768

              Constraints and their Current Values
                                        Value     Constraint
   Dihedral:        2   1   3   5      160.883      163.600
   Dihedral:        1   2   4   7      -66.511      -72.300

 Attempting to Generate Delocalized Internal Coordinates

   Using Lagrange Multiplier Algorithm


 77 Hessian modes will be used to form the next step
  Hessian Eigenvalues:
    -0.977753   -0.977753    0.045000    0.045000    0.045000    0.045000
     0.045000    0.045000    0.045000    0.045000    0.045000    0.045001
     0.045002    0.045007    0.045012    0.045014    0.045073    0.045391
     0.094103    0.094233    0.113874    0.113890    0.116885    0.116948
     0.159973    0.159992    0.160000    0.160000    0.160000    0.160000
     0.160000    0.160000    0.160000    0.160000    0.160000    0.160000
     0.220831    0.234483    0.248788    0.249003    0.249488    0.249924
     0.249954    0.250000    0.250000    0.250000    0.250000    0.250000
     0.318081    0.334430    0.342234    0.342572    0.342726    0.342778
     0.342982    0.343623    0.343862    0.344084    0.344536    0.348583
     0.349879    0.350317    0.350597    0.408825    0.411215    0.413739
     0.414295    0.441969    0.449403    0.456885    0.464260    0.533072
     0.535839    0.958888    0.961246    1.022753    1.022753

 Minimum Search - Taking P-RFO Step
 Searching for Lamda that Maximizes Along the Constraint modes Only
 Value Taken    Lamda =   0.00696146
 Searching for Lamda that Minimizes Along All other modes
 Value Taken    Lamda =  -0.05839076
 Calculated Step too Large.  Step scaled by  0.850237
 Step Taken.  Stepsize is  0.300000

                             Maximum     Tolerance    Cnvgd?
         Gradient            0.101041       0.000300      NO
         Displacement        0.118743       0.001200      NO
         Energy change     *********       0.000001      NO


 New Cartesian Coordinates Obtained by Inverse Iteration

 Displacement from previous Coordinates is:  0.862660
 Adding empirical dispersion correction 
 ----------------------------------------------------------------
 Doing -D3(op) with
 s6 =   1.00000
 s8 =   0.78311
 a1 =   0.30000
 a2 =   4.25000
 n  =  10.00000
 -D3 energy without 3body term =     -0.0278096820 hartrees
 ----------------------------------------------------------------
             Standard Nuclear Orientation (Angstroms)
    I     Atom           X                Y                Z
 ----------------------------------------------------------------
    1      C       0.4196934187    -0.9126056577    -0.0195267659
    2      C      -0.8145870434    -0.2154175732    -0.0742739189
    3      C       1.7237616596    -0.1420708562    -0.2358681919
    4      C      -0.8300963891     1.3116296723    -0.2557007392
    5      O       2.8143358873    -0.8982223832     0.2282480962
    6      O       1.8178312314     0.9774387454    -0.7883939997
    7      O      -0.3787889926     1.9119845092     0.9335725609
    8      O      -1.3142006908     1.9288072245    -1.2278758406
    9      C      -0.3769824388     3.3766290323     0.8606301137
   10      C       4.0941319491    -0.2169994974     0.0226422943
   11      C       0.4225128020    -2.3190251067     0.1457536089
   12      C      -0.7901173570    -3.0205178533     0.2554797431
   13      C      -2.0139231091    -2.3270823199     0.1859703631
   14      C      -2.0464127440    -0.9231014925     0.0173570832
   15      H       0.2671052026     3.7432818975     0.0365862739
   16      H       4.3143933366    -0.0733695360    -1.0544120094
   17      H      -2.9553794232    -2.8859932169     0.2604258586
   18      H      -1.4005724734     3.7816250318     0.7276900141
   19      H       0.0283002431     3.7481327721     1.8190194107
   20      H       4.8744914478    -0.8653630508     0.4603725354
   21      H       4.1225248141     0.7673313758     0.5315205610
   22      H      -0.7830628346    -4.1104190365     0.3814875882
   23      H       1.3726404453    -2.8665416813     0.1726103013
   24      C      -3.3917398957    -0.1908724526    -0.0643297319
   25      H      -3.5304583413     0.2655929307    -1.0574059702
   26      H      -3.4596948242     0.6027998285     0.6965454954
   27      H      -4.2236095243    -0.8889703940     0.1067094320
 ----------------------------------------------------------------
 Molecular Point Group                 C1    NOp =  1
 Largest Abelian Subgroup              C1    NOp =  1
 Nuclear Repulsion Energy =   989.6266605017 hartrees
 There are       55 alpha and       55 beta electrons
 Applying Cartesian multipole field
    Component          Value
    ---------          -----
     (2,0,0)        1.00000E-11
     (0,2,0)        2.00000E-11
     (0,0,2)       -3.00000E-11
 Nucleus-field energy     =     0.0000000386 hartrees
 Requested basis set is STO-3G
 There are 42 shells and 87 basis functions
 A cutoff of  1.0D-12 yielded    759 shell pairs
 There are      3675 function pairs
 Smallest overlap matrix eigenvalue = 1.81E-01
 Guess MOs from SCF MO coefficient file
 Reading MOs from coefficient file
 Reading MOs from coefficient file
 A restricted hybrid HF-DFT SCF calculation will be
 performed using Pulay DIIS extrapolation
 Exchange:     0.2000 Hartree-Fock + 0.0800 Slater + 0.7200 B88
 Correlation:  0.1900 VWN1RPA + 0.8100 LYP
 Using SG-1 standard quadrature grid
 Dispersion:   Grimme D3
 SCF converges when DIIS error is below 1.0E-08
 Geometry optimization detected.  Setting ReadMinima to 0
 Setting SaveMinima to 0
 -------------------------------------------------------
 OpenMP Integral computing Module                
 Release: version 1.0, May 2013, Q-Chem Inc. Pittsburgh 
 -------------------------------------------------------
 -------------------------------------------------------
 OpenMP BLAS3 based DFT computing Module                
 Release: version 1.0, May 2013, Q-Chem Inc. Pittsburgh 
 -------------------------------------------------------
 ---------------------------------------
  Cycle       Energy         DIIS Error
 ---------------------------------------
    1    -717.7813602456      7.27E-03
    2    -717.9443714605      2.52E-03
    3    -717.9314533227      4.30E-03
    4    -717.9510626893      6.84E-04
    5    -717.9515880273      1.91E-04
    6    -717.9516295730      5.00E-05
    7    -717.9516323959      1.97E-05
    8    -717.9516327936      1.07E-05
    9    -717.9516329134      2.66E-06
   10    -717.9516329222      5.12E-07
   11    -717.9516329225      1.77E-07
   12    -717.9516329225      3.70E-08
   13    -717.9516329225      1.95E-08
   14    -717.9516329225      5.75E-09 Convergence criterion met
 ---------------------------------------
 SCF time:  CPU 53.32 s  wall 2.25 s
 SCF   energy in the final basis set = -717.9516329225
 Total energy in the final basis set = -717.9516329225
 
 --------------------------------------------------------------
 
                    Orbital Energies (a.u.)
 --------------------------------------------------------------
 
 Alpha MOs
 -- Occupied --
-18.944 -18.934 -18.872 -18.865 -10.108 -10.102 -10.071 -10.063
-10.027 -10.027 -10.024 -10.019 -10.014 -10.014 -10.012  -1.021
 -1.012  -0.941  -0.933  -0.815  -0.735  -0.720  -0.678  -0.662
 -0.646  -0.587  -0.562  -0.509  -0.497  -0.460  -0.440  -0.427
 -0.419  -0.413  -0.408  -0.388  -0.382  -0.377  -0.370  -0.358
 -0.349  -0.341  -0.332  -0.313  -0.310  -0.296  -0.288  -0.256
 -0.246  -0.197  -0.191  -0.181  -0.172  -0.154  -0.145
 -- Virtual --
  0.047   0.072   0.116   0.139   0.238   0.254   0.280   0.328
  0.349   0.361   0.374   0.392   0.414   0.421   0.426   0.429
  0.430   0.437   0.439   0.442   0.447   0.458   0.465   0.477
  0.548   0.560   0.567   0.590   0.653   0.663   0.756   0.774
 --------------------------------------------------------------
 
          Ground-State Mulliken Net Atomic Charges

     Atom                 Charge (a.u.)
  ----------------------------------------
      1 C                    -0.017054
      2 C                    -0.014542
      3 C                     0.214247
      4 C                     0.220320
      5 O                    -0.172112
      6 O                    -0.214483
      7 O                    -0.172323
      8 O                    -0.213165
      9 C                    -0.124838
     10 C                    -0.123788
     11 C                    -0.074524
     12 C                    -0.077426
     13 C                    -0.076069
     14 C                     0.011189
     15 H                     0.093602
     16 H                     0.090434
     17 H                     0.080858
     18 H                     0.087299
     19 H                     0.090606
     20 H                     0.092828
     21 H                     0.091396
     22 H                     0.083124
     23 H                     0.091510
     24 C                    -0.226131
     25 H                     0.093428
     26 H                     0.084884
     27 H                     0.080728
  ----------------------------------------
  Sum of atomic charges =     0.000000

 -----------------------------------------------------------------
                    Cartesian Multipole Moments
 -----------------------------------------------------------------
    Charge (ESU x 10^10)
                 0.0000
    Dipole Moment (Debye)
         X       0.6367      Y      -0.6640      Z       1.2713
       Tot       1.5692
    Quadrupole Moments (Debye-Ang)
        XX     -68.3493     XY       1.2567     YY     -73.5473
        XZ      -1.5016     YZ       4.4332     ZZ     -83.4966
    Octopole Moments (Debye-Ang^2)
       XXX      40.4042    XXY      -0.3698    XYY      -0.6100
       YYY      28.2131    XXZ       0.9748    XYZ      -0.5907
       YYZ      12.2028    XZZ       9.3572    YZZ       7.8694
       ZZZ      -6.0077
    Hexadecapole Moments (Debye-Ang^3)
      XXXX   -1867.2932   XXXY     -13.1091   XXYY    -613.7232
      XYYY      -8.7673   YYYY   -1492.1130   XXXZ       4.9569
      XXYZ       5.9429   XYYZ      -8.0426   YYYZ      16.2817
      XXZZ    -387.9953   XYZZ      -5.0771   YYZZ    -316.3864
      XZZZ       2.5838   YZZZ       1.1513   ZZZZ    -202.9824
 -----------------------------------------------------------------
 Calculating analytic gradient of the SCF energy
 Gradient of SCF Energy
            1           2           3           4           5           6
    1   0.0019845  -0.0011524   0.0108123   0.0122883  -0.0053890  -0.0009960
    2   0.0065826   0.0048731  -0.0065525   0.0017675   0.0185947  -0.0089660
    3  -0.0010044  -0.0013545   0.0058668   0.0113277  -0.0102264   0.0010513
            7           8           9          10          11          12
    1  -0.0116861  -0.0008303   0.0010216  -0.0068494   0.0002157  -0.0000909
    2   0.0036200  -0.0053719  -0.0083753  -0.0059658   0.0016350  -0.0013914
    3  -0.0205187   0.0063272   0.0036326   0.0023791  -0.0000938   0.0005240
           13          14          15          16          17          18
    1  -0.0013179  -0.0023057   0.0006666   0.0005729   0.0013271   0.0007340
    2  -0.0000938   0.0024106  -0.0001664  -0.0016762  -0.0004144  -0.0001955
    3   0.0001911  -0.0005429   0.0017370   0.0009601  -0.0002084   0.0018730
           19          20          21          22          23          24
    1  -0.0004549   0.0009234   0.0005565   0.0001520  -0.0020814   0.0046133
    2   0.0022098   0.0019350  -0.0016006   0.0009085  -0.0014271  -0.0002834
    3  -0.0015805  -0.0008267   0.0009772  -0.0001208  -0.0004460  -0.0009930
           25          26          27
    1  -0.0011277  -0.0011708  -0.0004159
    2  -0.0018571  -0.0017055   0.0015060
    3   0.0002881   0.0006767   0.0001041
 Max gradient component =       2.052E-02
 RMS gradient           =       4.990E-03
 Gradient time:  CPU 12.55 s  wall 0.53 s
 Geometry Optimization Parameters
   NAtoms,    NIC,     NZ,  NCons,   NDum,   NFix, NCnnct, MaxDiis
       27     173       0       2       0       0       0       0

 Cartesian Hessian Update
 Hessian Updated using BFGS Update


** CONSTRAINED OPTIMIZATION IN DELOCALIZED INTERNAL COORDINATES **
   Searching for a Minimum

   Optimization Cycle:   2

                       Coordinates (Angstroms)
     ATOM                X               Y               Z
      1  C         0.4196934187   -0.9126056577   -0.0195267659
      2  C        -0.8145870434   -0.2154175732   -0.0742739189
      3  C         1.7237616596   -0.1420708562   -0.2358681919
      4  C        -0.8300963891    1.3116296723   -0.2557007392
      5  O         2.8143358873   -0.8982223832    0.2282480962
      6  O         1.8178312314    0.9774387454   -0.7883939997
      7  O        -0.3787889926    1.9119845092    0.9335725609
      8  O        -1.3142006908    1.9288072245   -1.2278758406
      9  C        -0.3769824388    3.3766290323    0.8606301137
     10  C         4.0941319491   -0.2169994974    0.0226422943
     11  C         0.4225128020   -2.3190251067    0.1457536089
     12  C        -0.7901173570   -3.0205178533    0.2554797431
     13  C        -2.0139231091   -2.3270823199    0.1859703631
     14  C        -2.0464127440   -0.9231014925    0.0173570832
     15  H         0.2671052026    3.7432818975    0.0365862739
     16  H         4.3143933366   -0.0733695360   -1.0544120094
     17  H        -2.9553794232   -2.8859932169    0.2604258586
     18  H        -1.4005724734    3.7816250318    0.7276900141
     19  H         0.0283002431    3.7481327721    1.8190194107
     20  H         4.8744914478   -0.8653630508    0.4603725354
     21  H         4.1225248141    0.7673313758    0.5315205610
     22  H        -0.7830628346   -4.1104190365    0.3814875882
     23  H         1.3726404453   -2.8665416813    0.1726103013
     24  C        -3.3917398957   -0.1908724526   -0.0643297319
     25  H        -3.5304583413    0.2655929307   -1.0574059702
     26  H        -3.4596948242    0.6027998285    0.6965454954
     27  H        -4.2236095243   -0.8889703940    0.1067094320
   Point Group: c1    Number of degrees of freedom:    75


   Energy is   -717.951632923

              Constraints and their Current Values
                                        Value     Constraint
   Dihedral:        2   1   3   5      163.122      163.600
   Dihedral:        1   2   4   7      -71.291      -72.300
 Hessian Updated using BFGS Update

   Using Lagrange Multiplier Algorithm


 65 Hessian modes will be used to form the next step
  Hessian Eigenvalues:
    -0.977994   -0.977753    0.044738    0.045000    0.045000    0.045000
     0.045000    0.045000    0.045001    0.045002    0.045005    0.045008
     0.045053    0.045071    0.045280    0.094014    0.094223    0.113784
     0.113883    0.116886    0.116948    0.158485    0.159978    0.159992
     0.160000    0.162333    0.220782    0.232723    0.238226    0.248942
     0.249237    0.249753    0.249932    0.249961    0.250000    0.252824
     0.319400    0.337019    0.342235    0.342629    0.342732    0.342873
     0.343260    0.343783    0.343951    0.344336    0.345171    0.348602
     0.350306    0.350583    0.372485    0.407752    0.411329    0.413279
     0.424193    0.442347    0.451287    0.463591    0.470278    0.522797
     0.534561    0.959960    0.992397    1.022753    1.023255

 Minimum Search - Taking P-RFO Step
 Searching for Lamda that Maximizes Along the Constraint modes Only
 Value Taken    Lamda =   0.00009768
 Searching for Lamda that Minimizes Along All other modes
 Value Taken    Lamda =  -0.00562387
 Step Taken.  Stepsize is  0.200141

                             Maximum     Tolerance    Cnvgd?
         Gradient            0.019905       0.000300      NO
         Displacement        0.076312       0.001200      NO
         Energy change     -0.025906       0.000001      NO


 New Cartesian Coordinates Obtained by Inverse Iteration

 Displacement from previous Coordinates is:  0.872252
 Adding empirical dispersion correction 
 ----------------------------------------------------------------
 Doing -D3(op) with
 s6 =   1.00000
 s8 =   0.78311
 a1 =   0.30000
 a2 =   4.25000
 n  =  10.00000
 -D3 energy without 3body term =     -0.0279390803 hartrees
 ----------------------------------------------------------------
             Standard Nuclear Orientation (Angstroms)
    I     Atom           X                Y                Z
 ----------------------------------------------------------------
    1      C       0.3993562646    -0.9541824339    -0.0050340748
    2      C      -0.8284406487    -0.2469446863    -0.0390674627
    3      C       1.6903370380    -0.1475144252    -0.1928509284
    4      C      -0.8140410382     1.2903510156    -0.2291419819
    5      O       2.8130225805    -0.9124561090     0.2376888124
    6      O       1.7608551883     1.0172361245    -0.6627629648
    7      O      -0.3432953273     1.8887457858     0.9772208621
    8      O      -1.2263422460     1.9296077786    -1.2263722311
    9      C      -0.2917327408     3.3539866838     0.8033767568
   10      C       4.0485082984    -0.1296286440     0.0369363224
   11      C       0.4066482039    -2.3629867445     0.1228473764
   12      C      -0.8124021292    -3.0583956020     0.2175129979
   13      C      -2.0344297151    -2.3546389833     0.1706079912
   14      C      -2.0626422756    -0.9467117520     0.0356947397
   15      H       0.3737924897     3.6416808555    -0.0368728499
   16      H       4.2277619779     0.0846060492    -1.0376563217
   17      H      -2.9836093113    -2.9047705109     0.2348353977
   18      H      -1.2999894702     3.7803064422     0.6178627657
   19      H       0.1118422036     3.7553361978     1.7518182945
   20      H       4.8704063341    -0.7565010644     0.4309937301
   21      H       4.0188973411     0.8340564851     0.5868124111
   22      H      -0.8140164957    -4.1523999230     0.3185768446
   23      H       1.3657984335    -2.8986531634     0.1403104059
   24      C      -3.4017720513    -0.1918003393    -0.0329869420
   25      H      -3.5196046592     0.2971097387    -1.0148981767
   26      H      -3.4516070245     0.5906200238     0.7424778241
   27      H      -4.2412048648    -0.8873778876     0.1169045673
 ----------------------------------------------------------------
 Molecular Point Group                 C1    NOp =  1
 Largest Abelian Subgroup              C1    NOp =  1
 Nuclear Repulsion Energy =   991.0759487659 hartrees
 There are       55 alpha and       55 beta electrons
 Applying Cartesian multipole field
    Component          Value
    ---------          -----
     (2,0,0)        1.00000E-11
     (0,2,0)        2.00000E-11
     (0,0,2)       -3.00000E-11
 Nucleus-field energy     =     0.0000000387 hartrees
 Requested basis set is STO-3G
 There are 42 shells and 87 basis functions
 A cutoff of  1.0D-12 yielded    761 shell pairs
 There are      3683 function pairs
 Smallest overlap matrix eigenvalue = 1.82E-01
 Guess MOs from SCF MO coefficient file
 Reading MOs from coefficient file
 Reading MOs from coefficient file
 A restricted hybrid HF-DFT SCF calculation will be
 performed using Pulay DIIS extrapolation
 Exchange:     0.2000 Hartree-Fock + 0.0800 Slater + 0.7200 B88
 Correlation:  0.1900 VWN1RPA + 0.8100 LYP
 Using SG-1 standard quadrature grid
 Dispersion:   Grimme D3
 SCF converges when DIIS error is below 1.0E-08
 Geometry optimization detected.  Setting ReadMinima to 0
 Setting SaveMinima to 0
 -------------------------------------------------------
 OpenMP Integral computing Module                
 Release: version 1.0, May 2013, Q-Chem Inc. Pittsburgh 
 -------------------------------------------------------
 -------------------------------------------------------
 OpenMP BLAS3 based DFT computing Module                
 Release: version 1.0, May 2013, Q-Chem Inc. Pittsburgh 
 -------------------------------------------------------
 ---------------------------------------
  Cycle       Energy         DIIS Error
 ---------------------------------------
    1    -717.8955129336      5.12E-03
    2    -717.9532185005      9.44E-04
    3    -717.9506877554      1.84E-03
    4    -717.9542453374      3.06E-04
    5    -717.9543456274      1.07E-04
    6    -717.9543582064      3.11E-05
    7    -717.9543593526      1.04E-05
    8    -717.9543594825      4.67E-06
    9    -717.9543595040      1.93E-06
   10    -717.9543595082      3.54E-07
   11    -717.9543595083      7.50E-08
   12    -717.9543595083      2.79E-08
   13    -717.9543595083      1.01E-08
   14    -717.9543595083      1.49E-09 Convergence criterion met
 ---------------------------------------
 SCF time:  CPU 52.46 s  wall 2.21 s
 SCF   energy in the final basis set = -717.9543595083
 Total energy in the final basis set = -717.9543595083
 
 --------------------------------------------------------------
 
                    Orbital Energies (a.u.)
 --------------------------------------------------------------
 
 Alpha MOs
 -- Occupied --
-18.943 -18.930 -18.876 -18.867 -10.106 -10.099 -10.068 -10.058
-10.027 -10.027 -10.024 -10.020 -10.016 -10.015 -10.014  -1.016
 -1.005  -0.939  -0.929  -0.816  -0.735  -0.720  -0.673  -0.657
 -0.646  -0.586  -0.562  -0.507  -0.496  -0.458  -0.439  -0.426
 -0.416  -0.413  -0.405  -0.387  -0.379  -0.374  -0.367  -0.359
 -0.350  -0.341  -0.331  -0.311  -0.308  -0.295  -0.286  -0.261
 -0.250  -0.197  -0.192  -0.182  -0.170  -0.156  -0.146
 -- Virtual --
  0.045   0.072   0.114   0.136   0.239   0.250   0.276   0.318
  0.339   0.351   0.369   0.388   0.413   0.419   0.422   0.427
  0.429   0.435   0.436   0.440   0.446   0.454   0.461   0.474
  0.543   0.558   0.565   0.587   0.644   0.655   0.754   0.772
 --------------------------------------------------------------
 
          Ground-State Mulliken Net Atomic Charges

     Atom                 Charge (a.u.)
  ----------------------------------------
      1 C                    -0.017455
      2 C                    -0.015077
      3 C                     0.209335
      4 C                     0.215184
      5 O                    -0.165923
      6 O                    -0.210211
      7 O                    -0.167539
      8 O                    -0.210119
      9 C                    -0.126985
     10 C                    -0.126160
     11 C                    -0.074761
     12 C                    -0.076638
     13 C                    -0.075736
     14 C                     0.010558
     15 H                     0.093697
     16 H                     0.089869
     17 H                     0.080876
     18 H                     0.086293
     19 H                     0.088179
     20 H                     0.091431
     21 H                     0.091403
     22 H                     0.083438
     23 H                     0.092322
     24 C                    -0.224801
     25 H                     0.092637
     26 H                     0.085198
     27 H                     0.080984
  ----------------------------------------
  Sum of atomic charges =     0.000000

 -----------------------------------------------------------------
                    Cartesian Multipole Moments
 -----------------------------------------------------------------
    Charge (ESU x 10^10)
                 0.0000
    Dipole Moment (Debye)
         X       0.5439      Y      -0.7221      Z       1.0645
       Tot       1.3965
    Quadrupole Moments (Debye-Ang)
        XX     -68.6207     XY       1.6678     YY     -74.0511
        XZ      -1.4864     YZ       3.9482     ZZ     -83.4549
    Octopole Moments (Debye-Ang^2)
       XXX      37.1661    XXY       2.1007    XYY      -0.6825
       YYY      27.4298    XXZ      -0.7441    XYZ      -0.4653
       YYZ       9.6660    XZZ       9.9093    YZZ       8.6646
       ZZZ      -9.1300
    Hexadecapole Moments (Debye-Ang^3)
      XXXX   -1854.4964   XXXY     -29.8823   XXYY    -610.7757
      XYYY     -30.2060   YYYY   -1511.9699   XXXZ       0.8799
      XXYZ       3.2921   XYYZ      -7.6470   YYYZ      13.5486
      XXZZ    -381.3090   XYZZ     -11.9141   YYZZ    -318.7971
      XZZZ      -1.8245   YZZZ      -0.7744   ZZZZ    -194.1845
 -----------------------------------------------------------------
 Calculating analytic gradient of the SCF energy
 Gradient of SCF Energy
            1           2           3           4           5           6
    1  -0.0019268   0.0012815   0.0049381   0.0051024  -0.0008443  -0.0005057
    2  -0.0005574  -0.0010017  -0.0018929   0.0021413   0.0010637   0.0024163
    3   0.0008232   0.0029007   0.0009436   0.0059246   0.0000755  -0.0017613
            7           8           9          10          11          12
    1  -0.0013094  -0.0021050  -0.0008343  -0.0044978   0.0001427   0.0003088
    2  -0.0005562   0.0020535  -0.0042998  -0.0006556   0.0003439  -0.0003397
    3  -0.0018421  -0.0033183  -0.0019575   0.0000593  -0.0009161   0.0000608
           13          14          15          16          17          18
    1  -0.0004861  -0.0000768   0.0002459   0.0002351  -0.0002988  -0.0006213
    2   0.0003990   0.0006102   0.0005243   0.0001608   0.0000534   0.0002221
    3  -0.0000038  -0.0006428  -0.0004820  -0.0005921  -0.0001358  -0.0000123
           19          20          21          22          23          24
    1   0.0003395   0.0000519   0.0003116   0.0001692   0.0002770   0.0006992
    2  -0.0005886  -0.0005533   0.0006117  -0.0001480  -0.0002691   0.0007479
    3   0.0005513   0.0003269   0.0002261   0.0001122  -0.0001922  -0.0003932
           25          26          27
    1  -0.0002238  -0.0001723  -0.0002004
    2  -0.0001124   0.0000596  -0.0004332
    3  -0.0002356   0.0002303   0.0002505
 Max gradient component =       5.925E-03
 RMS gradient           =       1.562E-03
 Gradient time:  CPU 12.64 s  wall 0.53 s
 Geometry Optimization Parameters
   NAtoms,    NIC,     NZ,  NCons,   NDum,   NFix, NCnnct, MaxDiis
       27     173       0       2       0       0       0       0

 Cartesian Hessian Update
 Hessian Updated using BFGS Update


** CONSTRAINED OPTIMIZATION IN DELOCALIZED INTERNAL COORDINATES **
   Searching for a Minimum

   Optimization Cycle:   3

                       Coordinates (Angstroms)
     ATOM                X               Y               Z
      1  C         0.3993562646   -0.9541824339   -0.0050340748
      2  C        -0.8284406487   -0.2469446863   -0.0390674627
      3  C         1.6903370380   -0.1475144252   -0.1928509284
      4  C        -0.8140410382    1.2903510156   -0.2291419819
      5  O         2.8130225805   -0.9124561090    0.2376888124
      6  O         1.7608551883    1.0172361245   -0.6627629648
      7  O        -0.3432953273    1.8887457858    0.9772208621
      8  O        -1.2263422460    1.9296077786   -1.2263722311
      9  C        -0.2917327408    3.3539866838    0.8033767568
     10  C         4.0485082984   -0.1296286440    0.0369363224
     11  C         0.4066482039   -2.3629867445    0.1228473764
     12  C        -0.8124021292   -3.0583956020    0.2175129979
     13  C        -2.0344297151   -2.3546389833    0.1706079912
     14  C        -2.0626422756   -0.9467117520    0.0356947397
     15  H         0.3737924897    3.6416808555   -0.0368728499
     16  H         4.2277619779    0.0846060492   -1.0376563217
     17  H        -2.9836093113   -2.9047705109    0.2348353977
     18  H        -1.2999894702    3.7803064422    0.6178627657
     19  H         0.1118422036    3.7553361978    1.7518182945
     20  H         4.8704063341   -0.7565010644    0.4309937301
     21  H         4.0188973411    0.8340564851    0.5868124111
     22  H        -0.8140164957   -4.1523999230    0.3185768446
     23  H         1.3657984335   -2.8986531634    0.1403104059
     24  C        -3.4017720513   -0.1918003393   -0.0329869420
     25  H        -3.5196046592    0.2971097387   -1.0148981767
     26  H        -3.4516070245    0.5906200238    0.7424778241
     27  H        -4.2412048648   -0.8873778876    0.1169045673
   Point Group: c1    Number of degrees of freedom:    75


   Energy is   -717.954359508

              Constraints and their Current Values
                                        Value     Constraint
   Dihedral:        2   1   3   5      163.598      163.600
   Dihedral:        1   2   4   7      -72.296      -72.300
 Hessian Updated using BFGS Update

   Using Lagrange Multiplier Algorithm


 68 Hessian modes will be used to form the next step
  Hessian Eigenvalues:
    -0.977756   -0.975786    0.041822    0.045000    0.045000    0.045000
     0.045000    0.045000    0.045001    0.045002    0.045005    0.045007
     0.045016    0.045066    0.045185    0.046168    0.093526    0.094213
     0.113137    0.113889    0.116885    0.116949    0.158565    0.159985
     0.159995    0.160000    0.161349    0.163674    0.220894    0.234521
     0.244298    0.248955    0.249272    0.249756    0.249932    0.249973
     0.250000    0.251181    0.289174    0.319380    0.336744    0.342280
     0.342637    0.342723    0.342882    0.343305    0.343772    0.343971
     0.344403    0.345392    0.348670    0.350316    0.350716    0.375054
     0.396309    0.410408    0.413561    0.425702    0.442393    0.451542
     0.463966    0.470780    0.482608    0.534814    0.959678    1.004714
     1.022753    1.041784

 Minimum Search - Taking P-RFO Step
 Searching for Lamda that Maximizes Along the Constraint modes Only
 Value Taken    Lamda =   0.00001614
 Searching for Lamda that Minimizes Along All other modes
 Value Taken    Lamda =  -0.00052992
 Step Taken.  Stepsize is  0.063126

                             Maximum     Tolerance    Cnvgd?
         Gradient            0.005524       0.000300      NO
         Displacement        0.024622       0.001200      NO
         Energy change     -0.002727       0.000001      NO


 New Cartesian Coordinates Obtained by Inverse Iteration

 Displacement from previous Coordinates is:  0.145373
 Adding empirical dispersion correction 
 ----------------------------------------------------------------
 Doing -D3(op) with
 s6 =   1.00000
 s8 =   0.78311
 a1 =   0.30000
 a2 =   4.25000
 n  =  10.00000
 -D3 energy without 3body term =     -0.0279253798 hartrees
 ----------------------------------------------------------------
             Standard Nuclear Orientation (Angstroms)
    I     Atom           X                Y                Z
 ----------------------------------------------------------------
    1      C       0.3934656146    -0.9528895326    -0.0157996983
    2      C      -0.8386453627    -0.2477800900    -0.0462686503
    3      C       1.6848148909    -0.1463339974    -0.1947401200
    4      C      -0.8311586602     1.2907301210    -0.2358575095
    5      O       2.8146783094    -0.9132194089     0.2323137062
    6      O       1.7579046543     1.0241746646    -0.6462833066
    7      O      -0.3575502687     1.8982921693     0.9736187873
    8      O      -1.2294361810     1.9274768210    -1.2377012914
    9      C      -0.2822522356     3.3687218825     0.8040821113
   10      C       4.0592504717    -0.1323426780     0.0407363627
   11      C       0.4044496513    -2.3612939293     0.1162278670
   12      C      -0.8117634331    -3.0605253286     0.2128135286
   13      C      -2.0352887334    -2.3615403658     0.1691302734
   14      C      -2.0692187506    -0.9539465386     0.0345476729
   15      H       0.3956356346     3.6422685726    -0.0297165827
   16      H       4.2389111292     0.0905279446    -1.0310202930
   17      H      -2.9817032976    -2.9152648711     0.2388319218
   18      H      -1.2808490157     3.8088824955     0.6052093487
   19      H       0.1163306224     3.7679856442     1.7548310340
   20      H       4.8792315800    -0.7630810962     0.4306468228
   21      H       4.0275810784     0.8261705097     0.5974823030
   22      H      -0.8109182285    -4.1541649254     0.3158466863
   23      H       1.3658981241    -2.8917224743     0.1371937450
   24      C      -3.4110066373    -0.2027731596    -0.0269829932
   25      H      -3.5304380079     0.2891008063    -1.0069886471
   26      H      -3.4561641730     0.5792694991     0.7487809709
   27      H      -4.2496624198    -0.8980418228     0.1239001161
 ----------------------------------------------------------------
 Molecular Point Group                 C1    NOp =  1
 Largest Abelian Subgroup              C1    NOp =  1
 Nuclear Repulsion Energy =   989.5772359186 hartrees
 There are       55 alpha and       55 beta electrons
 Applying Cartesian multipole field
    Component          Value
    ---------          -----
     (2,0,0)        1.00000E-11
     (0,2,0)        2.00000E-11
     (0,0,2)       -3.00000E-11
 Nucleus-field energy     =     0.0000000389 hartrees
 Requested basis set is STO-3G
 There are 42 shells and 87 basis functions
 A cutoff of  1.0D-12 yielded    760 shell pairs
 There are      3679 function pairs
 Smallest overlap matrix eigenvalue = 1.82E-01
 Guess MOs from SCF MO coefficient file
 Reading MOs from coefficient file
 Reading MOs from coefficient file
 A restricted hybrid HF-DFT SCF calculation will be
 performed using Pulay DIIS extrapolation
 Exchange:     0.2000 Hartree-Fock + 0.0800 Slater + 0.7200 B88
 Correlation:  0.1900 VWN1RPA + 0.8100 LYP
 Using SG-1 standard quadrature grid
 Dispersion:   Grimme D3
 SCF converges when DIIS error is below 1.0E-08
 Geometry optimization detected.  Setting ReadMinima to 0
 Setting SaveMinima to 0
 -------------------------------------------------------
 OpenMP Integral computing Module                
 Release: version 1.0, May 2013, Q-Chem Inc. Pittsburgh 
 -------------------------------------------------------
 -------------------------------------------------------
 OpenMP BLAS3 based DFT computing Module                
 Release: version 1.0, May 2013, Q-Chem Inc. Pittsburgh 
 -------------------------------------------------------
 ---------------------------------------
  Cycle       Energy         DIIS Error
 ---------------------------------------
    1    -717.9499200229      1.13E-03
    2    -717.9545302530      2.76E-04
    3    -717.9542001527      6.11E-04
    4    -717.9546172060      5.87E-05
    5    -717.9546208340      1.57E-05
    6    -717.9546210780      5.76E-06
    7    -717.9546211149      2.71E-06
    8    -717.9546211224      1.03E-06
    9    -717.9546211235      3.97E-07
   10    -717.9546211237      5.07E-08
   11    -717.9546211237      1.83E-08
   12    -717.9546211237      6.19E-09 Convergence criterion met
 ---------------------------------------
 SCF time:  CPU 44.84 s  wall 1.89 s
 SCF   energy in the final basis set = -717.9546211237
 Total energy in the final basis set = -717.9546211237
 
 --------------------------------------------------------------
 
                    Orbital Energies (a.u.)
 --------------------------------------------------------------
 
 Alpha MOs
 -- Occupied --
-18.940 -18.927 -18.876 -18.869 -10.105 -10.099 -10.067 -10.057
-10.028 -10.028 -10.025 -10.020 -10.016 -10.016 -10.014  -1.014
 -1.002  -0.938  -0.929  -0.816  -0.735  -0.720  -0.673  -0.656
 -0.646  -0.587  -0.563  -0.507  -0.495  -0.457  -0.438  -0.425
 -0.415  -0.412  -0.404  -0.387  -0.379  -0.373  -0.367  -0.359
 -0.350  -0.342  -0.331  -0.312  -0.309  -0.295  -0.287  -0.259
 -0.249  -0.197  -0.193  -0.180  -0.169  -0.156  -0.147
 -- Virtual --
  0.044   0.072   0.114   0.136   0.238   0.246   0.272   0.318
  0.338   0.350   0.368   0.387   0.411   0.420   0.423   0.428
  0.430   0.436   0.437   0.441   0.447   0.453   0.462   0.474
  0.542   0.558   0.564   0.587   0.644   0.656   0.753   0.772
 --------------------------------------------------------------
 
          Ground-State Mulliken Net Atomic Charges

     Atom                 Charge (a.u.)
  ----------------------------------------
      1 C                    -0.016954
      2 C                    -0.014677
      3 C                     0.208437
      4 C                     0.214654
      5 O                    -0.166261
      6 O                    -0.210075
      7 O                    -0.167395
      8 O                    -0.209097
      9 C                    -0.128474
     10 C                    -0.127416
     11 C                    -0.074666
     12 C                    -0.076587
     13 C                    -0.075769
     14 C                     0.010770
     15 H                     0.093621
     16 H                     0.089848
     17 H                     0.081088
     18 H                     0.086259
     19 H                     0.088689
     20 H                     0.091809
     21 H                     0.091458
     22 H                     0.083630
     23 H                     0.092826
     24 C                    -0.225092
     25 H                     0.092537
     26 H                     0.085501
     27 H                     0.081338
  ----------------------------------------
  Sum of atomic charges =     0.000000

 -----------------------------------------------------------------
                    Cartesian Multipole Moments
 -----------------------------------------------------------------
    Charge (ESU x 10^10)
                 0.0000
    Dipole Moment (Debye)
         X       0.5176      Y      -0.7336      Z       1.0500
       Tot       1.3815
    Quadrupole Moments (Debye-Ang)
        XX     -68.5684     XY       1.7180     YY     -73.9702
        XZ      -1.4745     YZ       3.9025     ZZ     -83.4401
    Octopole Moments (Debye-Ang^2)
       XXX      38.0418    XXY       2.0398    XYY      -0.5614
       YYY      27.7726    XXZ      -0.5677    XYZ      -0.4357
       YYZ       9.9533    XZZ      10.2683    YZZ       8.6765
       ZZZ      -8.6082
    Hexadecapole Moments (Debye-Ang^3)
      XXXX   -1858.5975   XXXY     -31.0995   XXYY    -613.1090
      XYYY     -31.4036   YYYY   -1516.0456   XXXZ       0.3854
      XXYZ       2.5931   XYYZ      -7.7402   YYYZ      13.3297
      XXZZ    -382.5817   XYZZ     -12.0924   YYZZ    -319.8409
      XZZZ      -2.5271   YZZZ      -1.3569   ZZZZ    -194.1582
 -----------------------------------------------------------------
 Calculating analytic gradient of the SCF energy
 Gradient of SCF Energy
            1           2           3           4           5           6
    1  -0.0008681   0.0000274  -0.0000171   0.0007081  -0.0005197  -0.0002239
    2  -0.0006936  -0.0004597  -0.0014851  -0.0010676   0.0008052   0.0008680
    3  -0.0000344   0.0019960  -0.0006608   0.0006611   0.0007052  -0.0005182
            7           8           9          10          11          12
    1  -0.0002376  -0.0004845   0.0004095   0.0010865   0.0000499   0.0000323
    2   0.0000018   0.0007372   0.0008996  -0.0002709  -0.0002160   0.0002772
    3  -0.0007168  -0.0010529   0.0008499   0.0003259  -0.0006056  -0.0001318
           13          14          15          16          17          18
    1   0.0001172  -0.0001100  -0.0003095  -0.0000326  -0.0000649   0.0001297
    2   0.0001233  -0.0000971   0.0000148   0.0001133   0.0000415  -0.0000146
    3  -0.0000240  -0.0004801  -0.0000773   0.0000751  -0.0000386  -0.0000508
           19          20          21          22          23          24
    1   0.0001446   0.0002352  -0.0000187  -0.0000294   0.0000102  -0.0003115
    2   0.0002640   0.0000892  -0.0000153  -0.0000062   0.0000570   0.0000747
    3  -0.0000016  -0.0000100  -0.0001958   0.0000750  -0.0000367  -0.0000594
           25          26          27
    1   0.0000977   0.0001471   0.0000321
    2  -0.0000304   0.0000774  -0.0000873
    3  -0.0000044  -0.0000964   0.0001075
 Max gradient component =       1.996E-03
 RMS gradient           =       4.904E-04
 Gradient time:  CPU 13.32 s  wall 0.56 s
 Geometry Optimization Parameters
   NAtoms,    NIC,     NZ,  NCons,   NDum,   NFix, NCnnct, MaxDiis
       27     173       0       2       0       0       0       0

 Cartesian Hessian Update
 Hessian Updated using BFGS Update


** CONSTRAINED OPTIMIZATION IN DELOCALIZED INTERNAL COORDINATES **
   Searching for a Minimum

   Optimization Cycle:   4

                       Coordinates (Angstroms)
     ATOM                X               Y               Z
      1  C         0.3934656146   -0.9528895326   -0.0157996983
      2  C        -0.8386453627   -0.2477800900   -0.0462686503
      3  C         1.6848148909   -0.1463339974   -0.1947401200
      4  C        -0.8311586602    1.2907301210   -0.2358575095
      5  O         2.8146783094   -0.9132194089    0.2323137062
      6  O         1.7579046543    1.0241746646   -0.6462833066
      7  O        -0.3575502687    1.8982921693    0.9736187873
      8  O        -1.2294361810    1.9274768210   -1.2377012914
      9  C        -0.2822522356    3.3687218825    0.8040821113
     10  C         4.0592504717   -0.1323426780    0.0407363627
     11  C         0.4044496513   -2.3612939293    0.1162278670
     12  C        -0.8117634331   -3.0605253286    0.2128135286
     13  C        -2.0352887334   -2.3615403658    0.1691302734
     14  C        -2.0692187506   -0.9539465386    0.0345476729
     15  H         0.3956356346    3.6422685726   -0.0297165827
     16  H         4.2389111292    0.0905279446   -1.0310202930
     17  H        -2.9817032976   -2.9152648711    0.2388319218
     18  H        -1.2808490157    3.8088824955    0.6052093487
     19  H         0.1163306224    3.7679856442    1.7548310340
     20  H         4.8792315800   -0.7630810962    0.4306468228
     21  H         4.0275810784    0.8261705097    0.5974823030
     22  H        -0.8109182285   -4.1541649254    0.3158466863
     23  H         1.3658981241   -2.8917224743    0.1371937450
     24  C        -3.4110066373   -0.2027731596   -0.0269829932
     25  H        -3.5304380079    0.2891008063   -1.0069886471
     26  H        -3.4561641730    0.5792694991    0.7487809709
     27  H        -4.2496624198   -0.8980418228    0.1239001161
   Point Group: c1    Number of degrees of freedom:    75


   Energy is   -717.954621124

              Constraints and their Current Values
                                        Value     Constraint
   Dihedral:        2   1   3   5      163.600      163.600
   Dihedral:        1   2   4   7      -72.300      -72.300
 Hessian Updated using BFGS Update

   Using Lagrange Multiplier Algorithm


 69 Hessian modes will be used to form the next step
  Hessian Eigenvalues:
    -0.974905    0.035293    0.045000    0.045000    0.045000    0.045000
     0.045000    0.045001    0.045001    0.045004    0.045007    0.045014
     0.045039    0.045076    0.045173    0.046899    0.093846    0.094212
     0.113885    0.114656    0.116862    0.116950    0.158470    0.159984
     0.159995    0.160000    0.160098    0.161363    0.164121    0.220818
     0.234130    0.241654    0.248958    0.249212    0.249432    0.249913
     0.249959    0.249998    0.250000    0.251010    0.298672    0.319321
     0.336317    0.342242    0.342643    0.342729    0.342885    0.343383
     0.343839    0.343935    0.344428    0.348056    0.349151    0.350382
     0.351572    0.372264    0.408654    0.412121    0.413487    0.441594
     0.451019    0.458774    0.464404    0.470453    0.529233    0.542319
     0.958978    0.986009    1.033147

 Minimum Search - Taking P-RFO Step
 Searching for Lamda that Maximizes Along the Constraint modes Only
 Value Taken    Lamda =   0.00000054
 Searching for Lamda that Minimizes Along All other modes
 Value Taken    Lamda =  -0.00006799
 Step Taken.  Stepsize is  0.030030

                             Maximum     Tolerance    Cnvgd?
         Gradient            0.002306       0.000300      NO
         Displacement        0.013869       0.001200      NO
         Energy change     -0.000262       0.000001      NO


 New Cartesian Coordinates Obtained by Inverse Iteration

 Displacement from previous Coordinates is:  0.065359
 Adding empirical dispersion correction 
 ----------------------------------------------------------------
 Doing -D3(op) with
 s6 =   1.00000
 s8 =   0.78311
 a1 =   0.30000
 a2 =   4.25000
 n  =  10.00000
 -D3 energy without 3body term =     -0.0279214744 hartrees
 ----------------------------------------------------------------
             Standard Nuclear Orientation (Angstroms)
    I     Atom           X                Y                Z
 ----------------------------------------------------------------
    1      C       0.3946256432    -0.9479506425    -0.0231162006
    2      C      -0.8391681712    -0.2445549816    -0.0532475976
    3      C       1.6875648825    -0.1439735848    -0.1962459553
    4      C      -0.8354633243     1.2937980866    -0.2378620553
    5      O       2.8133032966    -0.9171492712     0.2315569268
    6      O       1.7678616162     1.0270317398    -0.6437049078
    7      O      -0.3647884420     1.8974895601     0.9752950843
    8      O      -1.2317154577     1.9330482594    -1.2378200865
    9      C      -0.2860210132     3.3670088364     0.8029180707
   10      C       4.0584481200    -0.1378065018     0.0410061205
   11      C       0.4064313443    -2.3561341066     0.1142288547
   12      C      -0.8083968249    -3.0576884705     0.2125453086
   13      C      -2.0327956029    -2.3605882286     0.1687197925
   14      C      -2.0684157409    -0.9529598878     0.0325449951
   15      H       0.4008708830     3.6373093007    -0.0247565030
   16      H       4.2390126596     0.0856920225    -1.0305097716
   17      H      -2.9781270781    -2.9156115461     0.2420842273
   18      H      -1.2820871497     3.8090515637     0.5951578424
   19      H       0.1048662812     3.7661422026     1.7566620831
   20      H       4.8760005912    -0.7717877624     0.4302294652
   21      H       4.0286701259     0.8194454076     0.6001992890
   22      H      -0.8056524548    -4.1510741237     0.3182139232
   23      H       1.3684835230    -2.8853324321     0.1381180095
   24      C      -3.4114097453    -0.2032985952    -0.0243458642
   25      H      -3.5350576585     0.2893467005    -1.0034890336
   26      H      -3.4557172271     0.5781759110     0.7521021007
   27      H      -4.2492267202    -0.8989485440     0.1283500478
 ----------------------------------------------------------------
 Molecular Point Group                 C1    NOp =  1
 Largest Abelian Subgroup              C1    NOp =  1
 Nuclear Repulsion Energy =   989.5322449967 hartrees
 There are       55 alpha and       55 beta electrons
 Applying Cartesian multipole field
    Component          Value
    ---------          -----
     (2,0,0)        1.00000E-11
     (0,2,0)        2.00000E-11
     (0,0,2)       -3.00000E-11
 Nucleus-field energy     =     0.0000000389 hartrees
 Requested basis set is STO-3G
 There are 42 shells and 87 basis functions
 A cutoff of  1.0D-12 yielded    759 shell pairs
 There are      3678 function pairs
 Smallest overlap matrix eigenvalue = 1.82E-01
 Guess MOs from SCF MO coefficient file
 Reading MOs from coefficient file
 Reading MOs from coefficient file
 A restricted hybrid HF-DFT SCF calculation will be
 performed using Pulay DIIS extrapolation
 Exchange:     0.2000 Hartree-Fock + 0.0800 Slater + 0.7200 B88
 Correlation:  0.1900 VWN1RPA + 0.8100 LYP
 Using SG-1 standard quadrature grid
 Dispersion:   Grimme D3
 SCF converges when DIIS error is below 1.0E-08
 Geometry optimization detected.  Setting ReadMinima to 0
 Setting SaveMinima to 0
 -------------------------------------------------------
 OpenMP Integral computing Module                
 Release: version 1.0, May 2013, Q-Chem Inc. Pittsburgh 
 -------------------------------------------------------
 -------------------------------------------------------
 OpenMP BLAS3 based DFT computing Module                
 Release: version 1.0, May 2013, Q-Chem Inc. Pittsburgh 
 -------------------------------------------------------
 ---------------------------------------
  Cycle       Energy         DIIS Error
 ---------------------------------------
    1    -717.9548013514      4.02E-04
    2    -717.9546545136      3.36E-05
    3    -717.9546517271      6.42E-05
    4    -717.9546562498      1.26E-05
    5    -717.9546563954      4.92E-06
    6    -717.9546564221      1.24E-06
    7    -717.9546564239      4.06E-07
    8    -717.9546564240      2.23E-07
    9    -717.9546564241      8.65E-08
   10    -717.9546564241      2.81E-08
   11    -717.9546564241      6.42E-09 Convergence criterion met
 ---------------------------------------
 SCF time:  CPU 41.00 s  wall 1.72 s
 SCF   energy in the final basis set = -717.9546564241
 Total energy in the final basis set = -717.9546564241
 
 --------------------------------------------------------------
 
                    Orbital Energies (a.u.)
 --------------------------------------------------------------
 
 Alpha MOs
 -- Occupied --
-18.940 -18.928 -18.877 -18.870 -10.105 -10.099 -10.067 -10.057
-10.028 -10.028 -10.025 -10.020 -10.016 -10.016 -10.014  -1.014
 -1.003  -0.938  -0.929  -0.816  -0.735  -0.720  -0.672  -0.656
 -0.646  -0.587  -0.563  -0.507  -0.495  -0.457  -0.438  -0.426
 -0.415  -0.413  -0.404  -0.387  -0.379  -0.373  -0.367  -0.359
 -0.350  -0.342  -0.331  -0.312  -0.309  -0.295  -0.287  -0.260
 -0.250  -0.197  -0.192  -0.180  -0.170  -0.156  -0.148
 -- Virtual --
  0.044   0.072   0.113   0.137   0.238   0.247   0.273   0.317
  0.337   0.349   0.368   0.387   0.411   0.420   0.423   0.428
  0.430   0.436   0.437   0.441   0.446   0.453   0.462   0.474
  0.542   0.558   0.564   0.587   0.645   0.656   0.753   0.771
 --------------------------------------------------------------
 
          Ground-State Mulliken Net Atomic Charges

     Atom                 Charge (a.u.)
  ----------------------------------------
      1 C                    -0.017037
      2 C                    -0.014706
      3 C                     0.208406
      4 C                     0.214812
      5 O                    -0.166305
      6 O                    -0.210312
      7 O                    -0.167100
      8 O                    -0.208805
      9 C                    -0.128560
     10 C                    -0.127452
     11 C                    -0.074547
     12 C                    -0.076644
     13 C                    -0.075744
     14 C                     0.010787
     15 H                     0.093602
     16 H                     0.089799
     17 H                     0.081122
     18 H                     0.086391
     19 H                     0.088609
     20 H                     0.091626
     21 H                     0.091429
     22 H                     0.083660
     23 H                     0.092890
     24 C                    -0.225147
     25 H                     0.092382
     26 H                     0.085480
     27 H                     0.081362
  ----------------------------------------
  Sum of atomic charges =     0.000000

 -----------------------------------------------------------------
                    Cartesian Multipole Moments
 -----------------------------------------------------------------
    Charge (ESU x 10^10)
                 0.0000
    Dipole Moment (Debye)
         X       0.5000      Y      -0.7383      Z       1.0490
       Tot       1.3768
    Quadrupole Moments (Debye-Ang)
        XX     -68.6351     XY       1.6850     YY     -74.0111
        XZ      -1.4705     YZ       3.8823     ZZ     -83.4314
    Octopole Moments (Debye-Ang^2)
       XXX      37.6946    XXY       1.8624    XYY      -0.6203
       YYY      27.3891    XXZ      -0.4633    XYZ      -0.4179
       YYZ      10.0698    XZZ      10.2720    YZZ       8.5719
       ZZZ      -8.3743
    Hexadecapole Moments (Debye-Ang^3)
      XXXX   -1861.0982   XXXY     -30.0892   XXYY    -613.1531
      XYYY     -30.0157   YYYY   -1515.4715   XXXZ       0.5784
      XXYZ       2.5158   XYYZ      -7.7408   YYYZ      13.1418
      XXZZ    -382.7141   XYZZ     -11.5720   YYZZ    -319.6542
      XZZZ      -2.3241   YZZZ      -1.3097   ZZZZ    -194.1180
 -----------------------------------------------------------------
 Calculating analytic gradient of the SCF energy
 Gradient of SCF Energy
            1           2           3           4           5           6
    1   0.0000442  -0.0001461   0.0002206   0.0001540  -0.0002988   0.0000313
    2  -0.0003263   0.0002998  -0.0007227  -0.0000141   0.0002077   0.0001620
    3  -0.0006178   0.0016578  -0.0007581  -0.0005066   0.0010044  -0.0002958
            7           8           9          10          11          12
    1  -0.0000610  -0.0001616   0.0001482   0.0005181   0.0000238  -0.0000864
    2   0.0000393   0.0000049   0.0004351   0.0001276  -0.0001104   0.0000438
    3   0.0003575  -0.0000442   0.0001971  -0.0000078  -0.0003461  -0.0000991
           13          14          15          16          17          18
    1   0.0001043  -0.0000844  -0.0000970  -0.0000117   0.0000137  -0.0000091
    2  -0.0001003  -0.0001159  -0.0000250  -0.0000039  -0.0000201   0.0000435
    3  -0.0000869  -0.0003139  -0.0001185  -0.0000169   0.0000101   0.0000583
           19          20          21          22          23          24
    1   0.0000713  -0.0000857  -0.0000622  -0.0000609  -0.0000244  -0.0002570
    2  -0.0000131   0.0000009   0.0000084  -0.0000232   0.0000140  -0.0000891
    3  -0.0001055  -0.0000164  -0.0000253   0.0000469   0.0000235   0.0000550
           25          26          27
    1   0.0000170   0.0000547   0.0000452
    2  -0.0000128   0.0001024   0.0000874
    3  -0.0000135  -0.0001020   0.0000638
 Max gradient component =       1.658E-03
 RMS gradient           =       2.983E-04
 Gradient time:  CPU 12.82 s  wall 0.54 s
 Geometry Optimization Parameters
   NAtoms,    NIC,     NZ,  NCons,   NDum,   NFix, NCnnct, MaxDiis
       27     173       0       2       0       0       0       0

 Cartesian Hessian Update
 Hessian Updated using BFGS Update


** CONSTRAINED OPTIMIZATION IN DELOCALIZED INTERNAL COORDINATES **
   Searching for a Minimum

   Optimization Cycle:   5

                       Coordinates (Angstroms)
     ATOM                X               Y               Z
      1  C         0.3946256432   -0.9479506425   -0.0231162006
      2  C        -0.8391681712   -0.2445549816   -0.0532475976
      3  C         1.6875648825   -0.1439735848   -0.1962459553
      4  C        -0.8354633243    1.2937980866   -0.2378620553
      5  O         2.8133032966   -0.9171492712    0.2315569268
      6  O         1.7678616162    1.0270317398   -0.6437049078
      7  O        -0.3647884420    1.8974895601    0.9752950843
      8  O        -1.2317154577    1.9330482594   -1.2378200865
      9  C        -0.2860210132    3.3670088364    0.8029180707
     10  C         4.0584481200   -0.1378065018    0.0410061205
     11  C         0.4064313443   -2.3561341066    0.1142288547
     12  C        -0.8083968249   -3.0576884705    0.2125453086
     13  C        -2.0327956029   -2.3605882286    0.1687197925
     14  C        -2.0684157409   -0.9529598878    0.0325449951
     15  H         0.4008708830    3.6373093007   -0.0247565030
     16  H         4.2390126596    0.0856920225   -1.0305097716
     17  H        -2.9781270781   -2.9156115461    0.2420842273
     18  H        -1.2820871497    3.8090515637    0.5951578424
     19  H         0.1048662812    3.7661422026    1.7566620831
     20  H         4.8760005912   -0.7717877624    0.4302294652
     21  H         4.0286701259    0.8194454076    0.6001992890
     22  H        -0.8056524548   -4.1510741237    0.3182139232
     23  H         1.3684835230   -2.8853324321    0.1381180095
     24  C        -3.4114097453   -0.2032985952   -0.0243458642
     25  H        -3.5350576585    0.2893467005   -1.0034890336
     26  H        -3.4557172271    0.5781759110    0.7521021007
     27  H        -4.2492267202   -0.8989485440    0.1283500478
   Point Group: c1    Number of degrees of freedom:    75


   Energy is   -717.954656424

              Constraints and their Current Values
                                        Value     Constraint
   Dihedral:        2   1   3   5      163.600      163.600
   Dihedral:        1   2   4   7      -72.300      -72.300
 Hessian Updated using BFGS Update

 63 Hessian modes will be used to form the next step
  Hessian Eigenvalues:
     0.020453    0.044520    0.045000    0.045001    0.045001    0.045002
     0.045007    0.045009    0.045027    0.045086    0.045193    0.047056
     0.093542    0.094219    0.113882    0.114238    0.116949    0.158662
     0.159815    0.159989    0.159995    0.161022    0.162303    0.164193
     0.221289    0.233855    0.242739    0.245197    0.249094    0.249410
     0.249885    0.249993    0.250000    0.251006    0.269829    0.318832
     0.323574    0.336435    0.342447    0.342657    0.342737    0.342883
     0.343457    0.343838    0.344254    0.345116    0.348582    0.349818
     0.350515    0.352727    0.371220    0.410013    0.412029    0.425651
     0.441937    0.451607    0.459560    0.465880    0.478599    0.503902
     0.538357    0.960937    0.992693

 Minimum Search - Taking Simple RFO Step
 Searching for Lamda that Minimizes Along All modes
 Value Taken    Lamda =  -0.00003520
 Step Taken.  Stepsize is  0.038006

                             Maximum     Tolerance    Cnvgd?
         Gradient           0.000695      0.000300      NO
         Displacement       0.018664      0.001200      NO
         Energy change     -0.000035      0.000001      NO


 New Cartesian Coordinates Obtained by Inverse Iteration

 Displacement from previous Coordinates is:  0.084908
 Adding empirical dispersion correction 
 ----------------------------------------------------------------
 Doing -D3(op) with
 s6 =   1.00000
 s8 =   0.78311
 a1 =   0.30000
 a2 =   4.25000
 n  =  10.00000
 -D3 energy without 3body term =     -0.0279386858 hartrees
 ----------------------------------------------------------------
             Standard Nuclear Orientation (Angstroms)
    I     Atom           X                Y                Z
 ----------------------------------------------------------------
    1      C       0.3929220584    -0.9450538021    -0.0330685927
    2      C      -0.8416273898    -0.2441639018    -0.0627076309
    3      C       1.6850255174    -0.1394876460    -0.1995469077
    4      C      -0.8380420444     1.2936073545    -0.2434102960
    5      O       2.8093504298    -0.9155561761     0.2280483919
    6      O       1.7672982331     1.0340428561    -0.6387938122
    7      O      -0.3687460634     1.8919201603     0.9728577956
    8      O      -1.2288683488     1.9367126254    -1.2424728664
    9      C      -0.2800445826     3.3604851915     0.8011546761
   10      C       4.0545026884    -0.1357523558     0.0436023339
   11      C       0.4066720726    -2.3525950182     0.1107779413
   12      C      -0.8068543163    -3.0559055268     0.2130996124
   13      C      -2.0324238130    -2.3605390717     0.1698658594
   14      C      -2.0696189849    -0.9532983191     0.0303753987
   15      H       0.4197908376     3.6270455881    -0.0168726099
   16      H       4.2372845920     0.0926371166    -1.0264887320
   17      H      -2.9770247361    -2.9161071969     0.2484321025
   18      H      -1.2709077667     3.8080225867     0.5807947568
   19      H       0.1004907489     3.7572351964     1.7601708446
   20      H       4.8711887069    -0.7721330871     0.4310281012
   21      H       4.0247795948     0.8185582915     0.6077987839
   22      H      -0.8018329239    -4.1488712854     0.3224971470
   23      H       1.3695965108    -2.8801806692     0.1371151055
   24      C      -3.4132577023    -0.2047647424    -0.0210407234
   25      H      -3.5419184494     0.2885345199    -0.9992338283
   26      H      -3.4557908963     0.5757325836     0.7565639502
   27      H      -4.2498476168    -0.9014443600     0.1342873647
 ----------------------------------------------------------------
 Molecular Point Group                 C1    NOp =  1
 Largest Abelian Subgroup              C1    NOp =  1
 Nuclear Repulsion Energy =   989.9410755838 hartrees
 There are       55 alpha and       55 beta electrons
 Applying Cartesian multipole field
    Component          Value
    ---------          -----
     (2,0,0)        1.00000E-11
     (0,2,0)        2.00000E-11
     (0,0,2)       -3.00000E-11
 Nucleus-field energy     =     0.0000000389 hartrees
 Requested basis set is STO-3G
 There are 42 shells and 87 basis functions
[...]
 IR Intens:       10.541                  3.219                 10.004
 Raman Active:       YES                    YES                    YES
               X      Y      Z        X      Y      Z        X      Y      Z
 C         -0.004 -0.008  0.001    0.074  0.005 -0.000    0.225  0.009  0.000
 C          0.003  0.002 -0.000   -0.033  0.058 -0.007   -0.310 -0.053 -0.000
 C          0.012 -0.001  0.001   -0.026 -0.002  0.000   -0.036 -0.023  0.007
 C         -0.001 -0.001 -0.000    0.005 -0.018 -0.008    0.030  0.012 -0.019
 O         -0.002 -0.017  0.005    0.002 -0.000  0.000   -0.005  0.002 -0.001
 O         -0.004  0.006 -0.002    0.003 -0.001  0.000    0.005  0.012 -0.004
 O         -0.000  0.001 -0.002   -0.001  0.004  0.002   -0.003  0.003  0.003
 O          0.000  0.000  0.001    0.001 -0.001  0.003   -0.003 -0.008  0.013
 C         -0.002  0.002 -0.005   -0.002  0.006 -0.001   -0.001  0.000  0.001
 C         -0.007 -0.054  0.015    0.006  0.005 -0.001    0.003  0.001  0.000
 C         -0.003  0.003 -0.000   -0.031 -0.063  0.008   -0.238 -0.174  0.020
 C          0.009  0.003 -0.000   -0.027  0.038 -0.005    0.402  0.070 -0.006
 C         -0.000 -0.006  0.001    0.043 -0.011  0.001   -0.210  0.024 -0.005
 C         -0.003  0.002  0.000   -0.030 -0.068  0.012    0.227  0.125 -0.011
 H          0.051 -0.024  0.047    0.030 -0.030  0.019   -0.004 -0.015 -0.010
 H          0.095  0.624  0.254   -0.028 -0.031 -0.017   -0.002 -0.010 -0.004
 H         -0.017  0.017 -0.003   -0.065  0.148 -0.019   -0.072 -0.198  0.023
 H         -0.033 -0.034  0.051   -0.023 -0.045  0.011    0.000  0.010  0.001
 H          0.007  0.029 -0.014    0.018 -0.012  0.002   -0.009 -0.006  0.004
 H         -0.136 -0.167  0.026   -0.014 -0.018  0.002    0.009  0.005 -0.002
 H          0.119  0.418 -0.530   -0.032 -0.019  0.027   -0.003 -0.006  0.008
 H         -0.028  0.001 -0.000    0.089  0.056 -0.005   -0.529 -0.001 -0.003
 H         -0.004  0.003  0.000    0.102  0.223 -0.026   -0.022  0.337 -0.039
 C         -0.002 -0.002  0.002   -0.032 -0.018  0.013   -0.028 -0.011  0.001
 H         -0.003  0.024  0.011    0.040  0.495  0.188    0.015 -0.065 -0.023
 H          0.020  0.025 -0.027    0.103  0.380 -0.426    0.063 -0.041  0.050
 H          0.018 -0.025 -0.013    0.333 -0.368  0.012   -0.130  0.085 -0.039
 TransDip  -0.079  0.066 -0.014   -0.007  0.047 -0.033   -0.073 -0.071 -0.002

 Mode:                61                     62                     63
 Frequency:      1629.95                1766.41                1787.52
 Force Cnst:      9.0308                21.5744                22.3170
 Red. Mass:       5.7694                11.7356                11.8545
 IR Active:          YES                    YES                    YES
 IR Intens:        9.923                249.872                272.644
 Raman Active:       YES                    YES                    YES
               X      Y      Z        X      Y      Z        X      Y      Z
 C          0.089 -0.259  0.034   -0.009 -0.115  0.019    0.011  0.004 -0.001
 C         -0.079  0.152 -0.018   -0.025  0.040 -0.007   -0.030  0.078 -0.028
 C         -0.018 -0.034  0.012    0.037  0.758 -0.198   -0.010 -0.054  0.014
 C          0.001 -0.019 -0.032    0.029 -0.013  0.047    0.233 -0.385  0.643
 O         -0.003 -0.004  0.001    0.011 -0.051  0.014    0.001  0.004 -0.001
 O          0.008  0.044 -0.012   -0.006 -0.476  0.128    0.002  0.035 -0.012
 O          0.000  0.004  0.004   -0.006 -0.004 -0.006   -0.015  0.008 -0.049
 O          0.005 -0.008  0.020   -0.013  0.010 -0.028   -0.151  0.227 -0.429
 C         -0.001  0.004  0.001    0.001 -0.002 -0.002    0.004 -0.029  0.009
 C         -0.001  0.001 -0.000    0.024  0.023 -0.006   -0.002 -0.002  0.001
 C          0.063  0.280 -0.034   -0.026  0.016 -0.001    0.001 -0.005  0.003
 C          0.057 -0.161  0.021    0.038 -0.003  0.000    0.007 -0.002 -0.000
 C         -0.175  0.309 -0.042   -0.021  0.017 -0.002   -0.013  0.007  0.001
 C          0.058 -0.273  0.036    0.017 -0.016  0.002    0.017 -0.014  0.007
 H          0.001 -0.014 -0.007    0.016 -0.021  0.009   -0.011  0.111  0.090
 H          0.013  0.001  0.001   -0.144  0.028 -0.041    0.011 -0.002  0.004
 H          0.334 -0.403  0.061    0.010 -0.028  0.005    0.017 -0.030  0.004
 H         -0.004 -0.011 -0.008   -0.003 -0.000  0.024    0.042  0.107  0.093
 H          0.002 -0.014  0.008   -0.010  0.013 -0.006   -0.024  0.216 -0.068
 H          0.004  0.005 -0.002   -0.174 -0.170  0.039    0.012  0.012 -0.004
 H          0.009 -0.001 -0.000   -0.145  0.040  0.009    0.010 -0.002 -0.001
 H         -0.026 -0.193  0.027   -0.041 -0.011  0.001   -0.003 -0.004 -0.003
 H         -0.229 -0.337  0.038   -0.052 -0.011  0.002   -0.001 -0.009  0.005
 C         -0.017  0.022 -0.003   -0.003  0.002 -0.000    0.003  0.007 -0.001
 H         -0.045  0.141  0.049    0.002  0.006 -0.000   -0.072 -0.053 -0.004
 H         -0.088  0.101 -0.109    0.008  0.009 -0.003    0.012 -0.020  0.027
 H          0.126 -0.111  0.036    0.012 -0.013 -0.001   -0.029  0.021 -0.046
 TransDip   0.056 -0.083 -0.016    0.002  0.498 -0.090    0.158 -0.176  0.473

 Mode:                64                     65                     66
 Frequency:      3035.24                3050.18                3050.45
 Force Cnst:      5.6251                 5.6433                 5.6432
 Red. Mass:       1.0363                 1.0295                 1.0293
 IR Active:          YES                    YES                    YES
 IR Intens:       18.037                 31.118                 42.395
 Raman Active:       YES                    YES                    YES
               X      Y      Z        X      Y      Z        X      Y      Z
 C         -0.000  0.000 -0.000    0.000 -0.000  0.000    0.000 -0.000  0.000
 C          0.001  0.000 -0.000   -0.000  0.000 -0.000   -0.000  0.000  0.000
 C          0.000  0.000 -0.000   -0.002  0.002 -0.001   -0.001  0.001 -0.000
 C         -0.000  0.000 -0.000    0.000  0.001  0.001   -0.001 -0.001 -0.002
 O         -0.000 -0.000 -0.000    0.002  0.000 -0.000    0.001  0.000 -0.000
 O         -0.000 -0.000  0.000    0.000 -0.001  0.000   -0.000 -0.000  0.000
 O          0.000 -0.000 -0.000   -0.000 -0.001 -0.000    0.000  0.002  0.001
 O          0.000 -0.000  0.000   -0.000  0.000 -0.000    0.000 -0.000  0.001
 C          0.000 -0.000  0.000    0.002 -0.019  0.007   -0.004  0.037 -0.013
 C         -0.000 -0.000  0.000    0.027  0.028 -0.007    0.014  0.015 -0.003
 C         -0.000 -0.000 -0.000    0.000 -0.000  0.000    0.000 -0.000 -0.000
 C         -0.000  0.000 -0.000    0.000  0.000 -0.000   -0.000  0.000 -0.000
 C          0.001  0.000  0.000    0.000  0.000  0.000    0.000  0.000 -0.000
 C          0.000 -0.000  0.000    0.000  0.000  0.000   -0.000  0.000 -0.000
 H          0.001  0.000 -0.001    0.211  0.083 -0.174   -0.402 -0.159  0.332
 H          0.000  0.001 -0.004   -0.047 -0.184  0.528   -0.025 -0.097  0.277
 H         -0.011 -0.007  0.001   -0.000 -0.000  0.000   -0.001 -0.001  0.000
 H         -0.001  0.000 -0.000   -0.268  0.089 -0.102    0.511 -0.171  0.195
 H          0.000  0.000  0.001    0.034  0.068  0.195   -0.064 -0.129 -0.371
 H          0.002 -0.002  0.001   -0.283  0.260 -0.083   -0.148  0.136 -0.044
 H         -0.000  0.003  0.003   -0.005 -0.426 -0.363   -0.003 -0.223 -0.191
 H         -0.000  0.000  0.000    0.000 -0.001  0.000    0.000 -0.001  0.000
 H          0.001 -0.000  0.000   -0.002  0.000 -0.000   -0.001  0.000 -0.000
 C         -0.041  0.030  0.000   -0.000  0.000 -0.000   -0.000  0.000  0.000
 H          0.081 -0.194  0.524    0.001 -0.001  0.003    0.000 -0.001  0.002
 H          0.064 -0.501 -0.428    0.000 -0.002 -0.001    0.000 -0.004 -0.003
 H          0.337  0.342 -0.098    0.002  0.002 -0.001    0.000  0.000 -0.000
 TransDip  -0.130  0.034  0.019    0.174 -0.033 -0.019    0.066  0.197  0.022

 Mode:                67                     68                     69
 Frequency:      3090.63                3111.55                3123.22
 Force Cnst:      6.1910                 6.2883                 6.3623
 Red. Mass:       1.1001                 1.1024                 1.1070
 IR Active:          YES                    YES                    YES
 IR Intens:        8.522                 15.312                 17.429
 Raman Active:       YES                    YES                    YES
               X      Y      Z        X      Y      Z        X      Y      Z
 C          0.000 -0.000 -0.000    0.000 -0.000  0.000    0.000 -0.000 -0.000
 C          0.000  0.000  0.000   -0.000 -0.000  0.000    0.000  0.000  0.000
 C         -0.000 -0.000  0.000    0.000 -0.000  0.000   -0.000  0.000  0.000
 C          0.000  0.000 -0.000    0.000 -0.000  0.000   -0.000 -0.000 -0.000
 O          0.000  0.000  0.000   -0.000  0.000 -0.000   -0.000  0.000  0.000
 O         -0.000  0.000 -0.000   -0.000  0.000 -0.000   -0.000  0.000  0.000
 O         -0.000  0.000  0.000   -0.000 -0.000 -0.000    0.000  0.000  0.000
 O          0.000  0.000  0.000   -0.000  0.000 -0.000   -0.000  0.000  0.000
 C         -0.000  0.000 -0.000   -0.000  0.000 -0.000    0.001  0.000 -0.000
 C         -0.000  0.000  0.000   -0.000  0.000 -0.000    0.005 -0.026 -0.091
 C          0.000  0.000 -0.000    0.000  0.000 -0.000   -0.000  0.000  0.000
 C         -0.000 -0.000 -0.000   -0.000 -0.000  0.000    0.000 -0.000  0.000
 C          0.001  0.000 -0.000    0.004  0.003 -0.000   -0.000  0.000 -0.000
 C         -0.000 -0.000 -0.001    0.000 -0.001  0.000   -0.000 -0.000  0.000
 H         -0.001 -0.000  0.001    0.000  0.000 -0.000   -0.005 -0.002  0.005
 H          0.000  0.000 -0.000   -0.000 -0.000  0.000   -0.053 -0.246  0.653
 H         -0.006 -0.003  0.000   -0.043 -0.027  0.003    0.000  0.000 -0.000
 H          0.002 -0.001  0.001    0.004 -0.001  0.002   -0.007  0.002 -0.003
 H         -0.000 -0.000 -0.001    0.000  0.000  0.001   -0.000 -0.001 -0.001
 H          0.000 -0.000  0.000    0.000 -0.000  0.000   -0.005  0.001 -0.020
 H          0.000 -0.000 -0.000   -0.000 -0.000 -0.000    0.001  0.549  0.446
 H         -0.000  0.001 -0.000   -0.001  0.008 -0.001   -0.000  0.000 -0.000
 H          0.000 -0.000 -0.000   -0.000  0.000 -0.000    0.000 -0.000 -0.000
 C         -0.011 -0.030 -0.086   -0.042 -0.076  0.032   -0.000 -0.000 -0.000
 H          0.107 -0.265  0.642   -0.076  0.138 -0.397    0.000 -0.000  0.000
 H         -0.076  0.534  0.434   -0.036  0.188  0.181   -0.000  0.000  0.000
 H          0.095  0.090 -0.046    0.600  0.590 -0.172    0.000  0.000 -0.000
 TransDip  -0.013 -0.054 -0.075   -0.086 -0.088  0.023    0.007 -0.037 -0.128

 Mode:                70                     71                     72
 Frequency:      3126.22                3156.30                3156.98
 Force Cnst:      6.3757                 6.4930                 6.4969
 Red. Mass:       1.1072                 1.1062                 1.1064
 IR Active:          YES                    YES                    YES
 IR Intens:       13.555                 14.201                 13.926
 Raman Active:       YES                    YES                    YES
               X      Y      Z        X      Y      Z        X      Y      Z
 C          0.000  0.000 -0.000    0.000 -0.000  0.000    0.000 -0.000 -0.000
 C         -0.000 -0.000  0.000    0.000  0.000  0.000    0.000  0.000  0.000
 C         -0.000 -0.000  0.000    0.001  0.001 -0.000   -0.000  0.000 -0.000
 C          0.000  0.000 -0.000    0.000 -0.000  0.000   -0.000  0.001 -0.001
 O         -0.000  0.000 -0.000    0.000 -0.000  0.000    0.000 -0.000  0.000
 O          0.000  0.000 -0.000   -0.000 -0.000  0.000    0.000 -0.000  0.000
 O          0.000  0.000  0.000   -0.000  0.000 -0.000    0.000  0.000  0.000
 O          0.000 -0.000 -0.000   -0.000  0.000 -0.000    0.000 -0.000  0.000
 C         -0.094 -0.001  0.012    0.000  0.000  0.002   -0.012 -0.009 -0.093
 C         -0.000 -0.000 -0.001   -0.051  0.076 -0.024   -0.001  0.001 -0.001
 C         -0.000 -0.000 -0.000   -0.000  0.000 -0.000    0.000 -0.000 -0.000
 C          0.000  0.000 -0.000    0.000 -0.000  0.000    0.000  0.000 -0.000
 C         -0.000 -0.000 -0.000    0.000  0.000 -0.000   -0.000 -0.000  0.000
 C          0.000 -0.000 -0.000    0.000 -0.000  0.000   -0.000 -0.000 -0.000
 H          0.507  0.207 -0.443    0.004  0.001 -0.003   -0.259 -0.100  0.195
 H         -0.001 -0.003  0.008   -0.033 -0.090  0.297   -0.001 -0.002  0.006
 H          0.000  0.000 -0.000   -0.002 -0.001  0.000    0.003  0.002 -0.000
 H          0.619 -0.210  0.252   -0.006  0.002 -0.002    0.255 -0.084  0.080
 H         -0.010  0.016  0.048   -0.002 -0.005 -0.014    0.141  0.289  0.833
 H          0.001 -0.001  0.000    0.645 -0.593  0.191    0.011 -0.010  0.003
 H          0.000  0.006  0.005   -0.010 -0.217 -0.204   -0.000 -0.003 -0.003
 H          0.000 -0.000  0.000   -0.000  0.004 -0.001    0.000 -0.001  0.000
 H          0.000 -0.000 -0.000    0.004 -0.002  0.000   -0.000  0.000 -0.000
 C          0.000  0.000 -0.000    0.000  0.000 -0.000    0.000  0.000 -0.000
 H          0.000 -0.000  0.001    0.000 -0.000  0.000    0.000 -0.000  0.001
 H          0.000 -0.001 -0.001    0.000 -0.000 -0.000    0.000 -0.000 -0.000
 H         -0.002 -0.002  0.001   -0.000 -0.000  0.000   -0.001 -0.001  0.000
 TransDip  -0.117  0.007  0.013   -0.089  0.078 -0.024   -0.020 -0.038 -0.112

 Mode:                73                     74                     75
 Frequency:      3165.07                3184.61                3220.92
 Force Cnst:      6.4217                 6.5338                 6.6798
 Red. Mass:       1.0880                 1.0935                 1.0928
 IR Active:          YES                    YES                    YES
 IR Intens:        7.097                 15.395                  2.059
 Raman Active:       YES                    YES                    YES
               X      Y      Z        X      Y      Z        X      Y      Z
 C          0.000 -0.000 -0.000   -0.000  0.000  0.000   -0.000 -0.003  0.000
 C          0.000  0.000  0.000    0.000  0.000 -0.000    0.001 -0.000  0.000
 C         -0.000 -0.000  0.000    0.000  0.000 -0.000   -0.001  0.001 -0.000
 C         -0.000  0.000 -0.000   -0.000  0.000 -0.000   -0.000 -0.000  0.000
 O          0.000  0.000  0.000   -0.000 -0.000  0.000   -0.000 -0.001  0.000
 O         -0.000  0.000  0.000   -0.000 -0.000  0.000    0.000  0.000 -0.000
 O          0.000 -0.000 -0.000    0.000 -0.000 -0.000   -0.000  0.000  0.000
 O          0.000 -0.000  0.000    0.000 -0.000  0.000   -0.000  0.000 -0.000
 C          0.000  0.000  0.000    0.000  0.000  0.000    0.000 -0.000 -0.000
 C         -0.000  0.000 -0.000    0.000 -0.000  0.000    0.000 -0.000  0.000
 C          0.004 -0.003  0.000   -0.012  0.009 -0.001   -0.078  0.035 -0.005
 C         -0.001  0.039 -0.005    0.008 -0.075  0.009    0.001  0.019 -0.002
 C         -0.061 -0.044  0.005   -0.036 -0.022  0.002    0.003  0.001 -0.000
 C         -0.001  0.002 -0.000   -0.001  0.002 -0.000    0.000 -0.000  0.000
 H          0.001  0.000 -0.000   -0.000 -0.000  0.000   -0.000 -0.000  0.000
 H         -0.000 -0.000  0.001   -0.000 -0.000 -0.000   -0.000  0.000 -0.000
 H          0.717  0.502 -0.056    0.385  0.264 -0.030   -0.025 -0.016  0.002
 H         -0.001  0.000 -0.000    0.000 -0.000  0.000   -0.000  0.000 -0.000
 H         -0.001 -0.001 -0.003   -0.000 -0.000 -0.001    0.000  0.000  0.000
 H          0.003 -0.002  0.001   -0.003  0.003 -0.001   -0.003  0.003 -0.001
 H         -0.000 -0.001 -0.001   -0.000 -0.000  0.000   -0.000 -0.000  0.000
 H          0.035 -0.461  0.058   -0.074  0.849 -0.106    0.013 -0.191  0.024
 H         -0.060  0.028 -0.004    0.169 -0.080  0.010    0.889 -0.402  0.052
 C         -0.003 -0.003  0.001   -0.001 -0.001  0.000    0.000 -0.000  0.000
 H         -0.001  0.003 -0.009    0.000  0.001 -0.002   -0.000  0.000 -0.001
 H         -0.000  0.007  0.006    0.001  0.001  0.001    0.000  0.001  0.000
 H          0.036  0.031 -0.009    0.014  0.012 -0.004   -0.000 -0.000  0.000
 TransDip  -0.085 -0.010 -0.000   -0.040 -0.118  0.015   -0.004  0.046 -0.004

 STANDARD THERMODYNAMIC QUANTITIES AT   298.15 K  AND     1.00 ATM

   This Molecule has  0 Imaginary Frequencies
   Zero point vibrational energy:      133.290 kcal/mol

   Atom    1 Element C  Has Mass   12.00000
   Atom    2 Element C  Has Mass   12.00000
   Atom    3 Element C  Has Mass   12.00000
   Atom    4 Element C  Has Mass   12.00000
   Atom    5 Element O  Has Mass   15.99491
   Atom    6 Element O  Has Mass   15.99491
   Atom    7 Element O  Has Mass   15.99491
   Atom    8 Element O  Has Mass   15.99491
   Atom    9 Element C  Has Mass   12.00000
   Atom   10 Element C  Has Mass   12.00000
   Atom   11 Element C  Has Mass   12.00000
   Atom   12 Element C  Has Mass   12.00000
   Atom   13 Element C  Has Mass   12.00000
   Atom   14 Element C  Has Mass   12.00000
   Atom   15 Element H  Has Mass    1.00783
   Atom   16 Element H  Has Mass    1.00783
   Atom   17 Element H  Has Mass    1.00783
   Atom   18 Element H  Has Mass    1.00783
   Atom   19 Element H  Has Mass    1.00783
   Atom   20 Element H  Has Mass    1.00783
   Atom   21 Element H  Has Mass    1.00783
   Atom   22 Element H  Has Mass    1.00783
   Atom   23 Element H  Has Mass    1.00783
   Atom   24 Element C  Has Mass   12.00000
   Atom   25 Element H  Has Mass    1.00783
   Atom   26 Element H  Has Mass    1.00783
   Atom   27 Element H  Has Mass    1.00783
   Molecular Mass:   208.073600 amu
   Principal axes and moments of inertia in amu*Bohr^2:
                             1           2           3
    Eigenvalues --     2453.99654  3111.91178  5137.74324
          X               0.99986     0.01653    -0.00183
          Y              -0.01651     0.99982     0.00981
          Z               0.00199    -0.00977     0.99995
   Rotational Symmetry Number is   1
   The Molecule is an Asymmetric Top
   Translational Enthalpy:        0.889 kcal/mol
   Rotational Enthalpy:           0.889 kcal/mol
   Vibrational Enthalpy:        141.064 kcal/mol
   gas constant (RT):             0.592 kcal/mol
   Translational Entropy:        41.902  cal/mol.K
   Rotational Entropy:           32.039  cal/mol.K
   Vibrational Entropy:          51.943  cal/mol.K

   Total Enthalpy:              143.434 kcal/mol
   Total Entropy:               125.885  cal/mol.K
Archival summary:
1\1\nid01146\FREQ\ProcedureUnspecified\BasisUnspecified\41112\junteng\WedOct420:06:542017WedOct420:06:542017\0\\#,FREQ,ProcedureUnspecified,BasisUnspecified,\\0,1\O\C,1,1.34348\O,2,1.20536,1,124.664\C,1,1.44012,2,115.648,3,-9.71832,0\H,4,1.08768,1,105.423,2,179.332,0\H,4,1.09083,1,110.68,2,59.4734,0\H,4,1.09091,1,109.472,2,-61.5122,0\C,2,1.5048,1,111.054,3,-175.628,0\C,8,1.40506,2,117.799,1,103.385,0\C,9,1.3975,8,118.446,2,179.844,0\H,10,1.08504,9,118.938,8,179.562,0\C,10,1.39212,9,121.406,8,-0.492613,0\H,12,1.084,10,120.032,9,-179.815,0\C,12,1.38826,10,119.88,9,0.0248945,0\H,14,1.0809,12,120.675,10,-179.489,0\C,14,1.40017,12,120.072,10,0.247409,0\C,16,1.49128,14,120.49,12,-178.077,0\O,17,1.20992,16,124.891,14,170.243,0\O,17,1.35003,16,112.205,14,-9.12329,0\C,19,1.43818,17,115.979,16,178.59,0\H,20,1.08775,19,105.336,17,-179.264,0\H,20,1.09092,19,110.437,17,61.2557,0\H,20,1.09098,19,110.455,17,-59.7101,0\C,9,1.51014,8,121.33,2,0.093401,0\H,24,1.09119,9,110.727,8,-172.265,0\H,24,1.09298,9,110.893,8,67.3554,0\H,24,1.0936,9,111.527,8,-51.9661,0\\\@

 Total job time:  5851.40s(wall), 31364.22s(cpu) 
 Wed Oct  4 20:06:55 2017

        *************************************************************
        *                                                           *
        *  Thank you very much for using Q-Chem.  Have a nice day.  *
        *                                                           *
        *************************************************************


