nid03058 10.128.12
Q-Chem Developer Version! Running on 10.128.12.*
                  Welcome to Q-Chem
     A Quantum Leap Into The Future Of Chemistry


 Q-Chem 5.0, Q-Chem, Inc., Pleasanton, CA (2017)

 Yihan Shao,  Zhengting Gan,  E. Epifanovsky,  A. T. B. Gilbert,  M. Wormit,  
 J. Kussmann,  A. W. Lange,  A. Behn,  Jia Deng,  Xintian Feng,  D. Ghosh,  
 M. Goldey,  P. R. Horn,  L. D. Jacobson,  I. Kaliman,  T. Kus,  A. Landau,  
 Jie Liu,  E. I. Proynov,  R. M. Richard,  R. P. Steele,  E. J. Sundstrom,  
 H. L. Woodcock III,  P. M. Zimmerman,  D. Zuev,  B. Albrecht,  E. Alguire,  
 S. A. Baeppler,  Z. Benda,  Y. A. Bernard,  E. J. Berquist,  K. B. Bravaya,  
 D. Casanova,  Chun-Min Chang,  Yunqing Chen,  A. Chien,  K. D. Closser,  
 M. P. Coons,  S. Dasgupta,  M. Diedenhofen,  Hainam Do,  R. G. Edgar,  
 Po-Tung Fang,  S. Fatehi,  Qingguo Feng,  Qinghui Ge,  A. Ghysels,  
 J. Gomes,  J. Gonthier,  A. Gunina,  M. W. D. Hanson-Heine,  
 P. H. P. Harbach,  A. W. Hauser,  J. E. Herr,  E. G. Hohenstein,  
 Z. C. Holden,  Kerwin Hui,  T.-C. Jagau,  Hyunjun Ji,  B. Kaduk,  
 K. Khistyaev,  Jaehoon Kim,  P. Klunzinger,  K. Koh,  D. Kosenkov,  
 T. Kowalczyk,  C. M. Krauter,  A. Kunitsa,  Ka Un Lao,  A. Laurent,  
 K. V. Lawler,  Joonho Lee,  D. Lefrancois,  S. Lehtola,  D. S. Levine,  
 Yi-Pei Li,  You-Sheng Lin,  Fenglai Liu,  E. Livshits,  A. Luenser,  
 P. Manohar,  E. Mansoor,  S. F. Manzer,  Shan-Ping Mao,  Yuezhi Mao,  
 N. Mardirossian,  A. V. Marenich,  L. A. Martinez-Martinez,  S. A. Maurer,  
 N. J. Mayhall,  S. C. McKenzie,  J.-M. Mewes,  A. F. Morrison,  K. Nanda,  
 T. S. Nguyen-Beck,  R. Olivares-Amaya,  J. A. Parkhill,  T. M. Perrine,  
 F. Plasser,  S. Prager,  A. Prociuk,  D. R. Rehn,  F. Rob,  M. Schneider,  
 N. Sergueev,  S. M. Sharada,  S. Sharma,  D. W. Small,  T. Stauch,  
 T. Stein,  Yu-Chuan Su,  A. J. W. Thom,  T. Tsuchimochi,  L. Vogt,  
 O. Vydrov,  M. A. Watson,  J. Wenzel,  M. de Wergifosse,  T. A. Wesolowski,  
 A. White,  J. Witte,  A. Yamada,  Jun Yang,  K. Yao,  S. Yeganeh,  
 S. R. Yost,  Zhi-Qiang You,  A. Zech,  Igor Ying Zhang,  Xing Zhang,  
 Yan Zhao,  Ying Zhu,  B. R. Brooks,  G. K. L. Chan,  C. J. Cramer,  
 M. S. Gordon,  W. J. Hehre,  A. Klamt,  M. W. Schmidt,  C. D. Sherrill,  
 D. G. Truhlar,  A. Aspuru-Guzik,  R. Baer,  A. T. Bell,  N. A. Besley,  
 Jeng-Da Chai,  A. Dreuw,  B. D. Dunietz,  T. R. Furlani,  Chao-Ping Hsu,  
 Yousung Jung,  Jing Kong,  D. S. Lambrecht,  WanZhen Liang,  C. Ochsenfeld,  
 V. A. Rassolov,  L. V. Slipchenko,  J. E. Subotnik,  T. Van Voorhis,  
 J. M. Herbert,  A. I. Krylov,  P. M. W. Gill,  M. Head-Gordon

 Contributors to earlier versions of Q-Chem not listed above: 
 R. D. Adamson,  B. Austin,  J. Baker,  G. J. O. Beran,  K. Brandhorst,  
 S. T. Brown,  E. F. C. Byrd,  A. K. Chakraborty,  C.-L. Cheng,  
 Siu Hung Chien,  D. M. Chipman,  D. L. Crittenden,  H. Dachsel,  
 R. A. DiStasio Jr.,  R. J. Doerksen,  A. D. Dutoi,  L. Fusti-Molnar,  
 W. A. Goddard III,  A. Golubeva-Zadorozhnaya,  S. R. Gwaltney,  G. Hawkins,  
 A. Heyden,  S. Hirata,  G. Kedziora,  F. J. Keil,  C. Kelley,  Jihan Kim,  
 R. A. King,  R. Z. Khaliullin,  P. P. Korambath,  W. Kurlancheek,  
 A. M. Lee,  M. S. Lee,  S. V. Levchenko,  Ching Yeh Lin,  D. Liotard,  
 R. C. Lochan,  I. Lotan,  P. E. Maslen,  N. Nair,  D. P. O'Neill,  
 D. Neuhauser,  E. Neuscamman,  C. M. Oana,  R. Olson,  B. Peters,  
 R. Peverati,  P. A. Pieniazek,  Y. M. Rhee,  J. Ritchie,  M. A. Rohrdanz,  
 E. Rosta,  N. J. Russ,  H. F. Schaefer III,  N. E. Schultz,  N. Shenvi,  
 A. C. Simmonett,  A. Sodt,  D. Stuck,  K. S. Thanthiriwatte,  V. Vanovschi,  
 Tao Wang,  A. Warshel,  C. F. Williams,  Q. Wu,  X. Xu,  W. Zhang

 Please cite Q-Chem as follows:
 Y. Shao et al., Mol. Phys. 113, 184-215 (2015)
 DOI: 10.1080/00268976.2014.952696

 Q-Chem 5.0.0 for Intel X86 EM64T Linux

 Parts of Q-Chem use Armadillo 5.200.1 (Boston Tea Smuggler).
 http://arma.sourceforge.net/

 Q-Chem begins on Wed Oct  4 18:26:26 2017  

Host: nid03058
0

     Scratch files written to /global/cscratch1/sd/junteng/scratch/18/opt_11n11--.save//

Checking the input file for inconsistencies... 	...done.

--------------------------------------------------------------
User input:
--------------------------------------------------------------
$molecule
0  1
C    0.304  -2.425   0.241
C   -0.187  -2.670   1.539
C    0.664  -1.037  -0.131
C   -0.223  -1.586   2.547
O    1.892  -1.027  -0.706
O   -0.050  -0.071   0.073
O    1.036  -1.102   2.698
O   -1.208  -1.281   3.197
C    1.131  -0.051   3.659
C    2.346   0.277  -1.069
C    0.337  -3.468  -0.713
C   -0.078  -4.750  -0.324
C   -0.556  -4.992   0.965
C   -0.619  -3.961   1.912
H    0.496   0.792   3.371
H    1.683   0.717  -1.820
H   -0.885  -5.997   1.223
H    0.862  -0.417   4.655
H    2.169   0.291   3.685
H    3.345   0.180  -1.503
H    2.413   0.921  -0.186
H   -0.050  -5.576  -1.034
C   -1.153  -4.262   3.286
C    0.800  -3.263  -2.130
H    0.377  -2.346  -2.553
H    0.472  -4.085  -2.776
H    1.893  -3.221  -2.170
H   -2.134  -3.796   3.422
H   -0.464  -3.904   4.057
H   -1.273  -5.340   3.441
$end


$opt
CONSTRAINT
tors    2    1    3    5    130.2
tors    1    2    4    7    -62.3
ENDCONSTRAINT
$end

$rem
JOBTYPE                   OPT
METHOD                    B3LYP
DFT_D                     D3_OP
BASIS                     STO-3G
GEOM_OPT_MAX_CYCLES       500
SYMMETRY                  False
THRESH                    12
SCF_CONVERGENCE           8
MAX_SUB_FILE_NUM          128
MEM_STATIC                400
MEM_TOTAL                 4000
$end

--------------------------------------------------------------
 Adding empirical dispersion correction 
 ----------------------------------------------------------------
 Doing -D3(op) with
 s6 =   1.00000
 s8 =   0.78311
 a1 =   0.30000
 a2 =   4.25000
 n  =  10.00000
 -D3 energy without 3body term =     -0.0331083887 hartrees
 ----------------------------------------------------------------
             Standard Nuclear Orientation (Angstroms)
    I     Atom           X                Y                Z
 ----------------------------------------------------------------
    1      C       0.4125011125    -0.6355076896    -0.1241194854
    2      C      -0.9199718424    -0.1775825584    -0.0970935988
    3      C       1.4909203662     0.3367582974    -0.4177838583
    4      C      -1.2227722681     1.2652754643    -0.2345295060
    5      O       2.4794071129     0.2069212582     0.5013164054
    6      O       1.4599007613     1.1281261782    -1.3437118584
    7      O      -0.5671603921     1.9341318938     0.7477851812
    8      O      -2.0192894914     1.7300109239    -1.0316062059
    9      C      -0.7911410252     3.3435492204     0.7249274575
   10      C       3.5538033154     1.1302705963     0.3241165186
   11      C       0.6908325096    -2.0150972909     0.0112251320
   12      C      -0.3765806243    -2.9000235158     0.2224235647
   13      C      -1.6950140119    -2.4427633611     0.2572883515
   14      C      -1.9865449822    -1.0814074782     0.0977300441
   15      H      -0.4624112412     3.7697958433    -0.2274740049
   16      H       4.0453282984     0.9641147078    -0.6391930950
   17      H      -2.4970302573    -3.1634910569     0.4061222542
   18      H      -1.8474376543     3.5666794906     0.9059890877
   19      H      -0.2002982988     3.7931790170     1.5273126011
   20      H       4.2838919982     0.9582831261     1.1198280401
   21      H       3.1925407862     2.1609409489     0.4023597877
   22      H      -0.1906002296    -3.9666582263     0.3443320837
   23      C      -3.4222635693    -0.6326602424     0.1288918324
   24      C       2.0849910947    -2.5767940219    -0.0602005081
   25      H       2.6449814024    -2.1343937269    -0.8905256458
   26      H       2.0671057384    -3.6580417916    -0.2367433488
   27      H       2.6144009167    -2.3996751371     0.8812702249
   28      H      -3.7454857248    -0.3261374563    -0.8709002559
   29      H      -3.5543120453     0.1968300833     0.8302013215
   30      H      -4.0860980650    -1.4390523749     0.4598971058
 ----------------------------------------------------------------
 Molecular Point Group                 C1    NOp =  1
 Largest Abelian Subgroup              C1    NOp =  1
 Nuclear Repulsion Energy =  1141.1730988225 hartrees
 There are       59 alpha and       59 beta electrons
 Requested basis set is STO-3G
 There are 46 shells and 94 basis functions

 Total QAlloc Memory Limit   4000 MB
 Mega-Array Size       392 MB
 MEM_STATIC part       400 MB
 A cutoff of  1.0D-12 yielded    921 shell pairs
 There are      4311 function pairs
 
 -------------------------------------------------------
 OpenMP Integral Computing Module                       
 Release: version 1.0, May 2013, Q-Chem Inc. Pittsburgh 
 -------------------------------------------------------
 Integral Job Info:
 Integral job number is                      11
 Integral operator is                         1
 short-range coefficients                     0
 long-range coefficients              100000000
 Omega coefficients                           0
 if combine SR and LR in K                    0
 Integral screening is                        0
 Integral computing path is                   2
 max size of driver memory is            800000
 size of driver memory is                 45569
 size of scratch memory is               945100
 max col of scratch BK array                289
 max len of scratch array in speh3           22
 max len of scratch index in speh4            8
 max int batch size is                      520
 min int batch size is                       52
 fixed nKL is                                52
 max L of basis functions is                  1
 order of int derivative is                   0
 number of shells is                         46
 number of basis is                          94
 number of cartesian basis is                94
 number of contracted shell pairs           921
 number of primitive shell pairs           4930
 maxK2 (contraction) of shell pair            9
 max number of K2 of shell pair               1
 max number of CS2 of shell pair            151
 max number of PS2 of shell pair            660
 mem total for path MDJ                   29642
 -------------------------------------------------------
 Smallest overlap matrix eigenvalue = 1.76E-01

 Scale SEOQF with 1.000000e-01/1.000000e-01/1.000000e+00

 Standard Electronic Orientation quadrupole field applied
 Nucleus-field energy     =    -0.0000000013 hartrees
 Guess from superposition of atomic densities
 Warning:  Energy on first SCF cycle will be non-variational
 A restricted hybrid HF-DFT SCF calculation will be
 performed using Pulay DIIS extrapolation
 Exchange:     0.2000 Hartree-Fock + 0.0800 Slater + 0.7200 B88
 Correlation:  0.1900 VWN1RPA + 0.8100 LYP
 Using SG-1 standard quadrature grid
 Dispersion:   Grimme D3
 SCF converges when DIIS error is below 1.0E-08
 -------------------------------------------------------
 OpenMP Integral computing Module                
 Release: version 1.0, May 2013, Q-Chem Inc. Pittsburgh 
 -------------------------------------------------------
 -------------------------------------------------------
 OpenMP BLAS3 based DFT computing Module                
 Release: version 1.0, May 2013, Q-Chem Inc. Pittsburgh 
 -------------------------------------------------------
 ---------------------------------------
  Cycle       Energy         DIIS Error
 ---------------------------------------
    1    -756.4854003916      1.14E-01
    2    -756.5487627268      1.27E-02
    3    -755.4707920431      3.40E-02
    4    -756.7513971877      4.53E-03
    5    -756.7739817500      1.66E-03
    6    -756.7772694929      3.92E-04
    7    -756.7774746141      1.05E-04
    8    -756.7774914576      3.18E-05
    9    -756.7774924185      1.90E-05
   10    -756.7774928824      3.60E-06
   11    -756.7774928987      8.95E-07
   12    -756.7774928997      2.23E-07
   13    -756.7774928998      8.13E-08
   14    -756.7774928998      3.01E-08
   15    -756.7774928998      6.43E-09 Convergence criterion met
 ---------------------------------------
 SCF time:  CPU 83.41 s  wall 3.64 s
 SCF   energy in the final basis set = -756.7774928998
 Total energy in the final basis set = -756.7774928998
 
 --------------------------------------------------------------
 
                    Orbital Energies (a.u.)
 --------------------------------------------------------------
 
 Alpha MOs
 -- Occupied --
-18.949 -18.946 -18.868 -18.867 -10.115 -10.112 -10.075 -10.072
-10.020 -10.019 -10.017 -10.016 -10.015 -10.013 -10.004 -10.003
 -1.048  -1.042  -0.958  -0.955  -0.820  -0.752  -0.730  -0.692
 -0.683  -0.672  -0.622  -0.590  -0.562  -0.506  -0.500  -0.461
 -0.453  -0.447  -0.432  -0.425  -0.415  -0.398  -0.392  -0.385
 -0.382  -0.369  -0.357  -0.350  -0.346  -0.339  -0.326  -0.321
 -0.309  -0.293  -0.287  -0.250  -0.248  -0.197  -0.184  -0.181
 -0.180  -0.152  -0.148
 -- Virtual --
  0.062   0.077   0.130   0.142   0.242   0.288   0.309   0.353
  0.372   0.389   0.394   0.406   0.410   0.436   0.440   0.445
  0.446   0.452   0.455   0.457   0.460   0.468   0.471   0.475
  0.484   0.492   0.504   0.577   0.590   0.602   0.627   0.702
  0.709   0.786   0.800
 --------------------------------------------------------------
 
          Ground-State Mulliken Net Atomic Charges

     Atom                 Charge (a.u.)
  ----------------------------------------
      1 C                    -0.020315
      2 C                    -0.018928
      3 C                     0.235748
      4 C                     0.236538
      5 O                    -0.181275
      6 O                    -0.229574
      7 O                    -0.184253
      8 O                    -0.224009
      9 C                    -0.127614
     10 C                    -0.126341
     11 C                     0.009809
     12 C                    -0.080336
     13 C                    -0.080433
     14 C                     0.010066
     15 H                     0.096676
     16 H                     0.093049
     17 H                     0.079304
     18 H                     0.092734
     19 H                     0.094731
     20 H                     0.096134
     21 H                     0.093638
     22 H                     0.078551
     23 C                    -0.231252
     24 C                    -0.229602
     25 H                     0.082934
     26 H                     0.080995
     27 H                     0.092446
     28 H                     0.095901
     29 H                     0.084121
     30 H                     0.080559
  ----------------------------------------
  Sum of atomic charges =    -0.000000

 -----------------------------------------------------------------
                    Cartesian Multipole Moments
 -----------------------------------------------------------------
    Charge (ESU x 10^10)
                -0.0000
    Dipole Moment (Debye)
         X       1.2962      Y      -0.1010      Z       1.7364
       Tot       2.1692
    Quadrupole Moments (Debye-Ang)
        XX     -77.8750     XY       2.5850     YY     -77.1677
        XZ      -2.0609     YZ       4.6538     ZZ     -90.4602
    Octopole Moments (Debye-Ang^2)
       XXX      31.3988    XXY       6.2045    XYY       3.2220
       YYY      33.1978    XXZ       7.9534    XYZ      -0.8801
       YYZ      11.8410    XZZ       4.7944    YZZ       7.2816
       ZZZ      -1.5429
    Hexadecapole Moments (Debye-Ang^3)
      XXXX   -1962.7992   XXXY      47.3519   XXYY    -646.4083
      XYYY     -13.2508   YYYY   -1735.6892   XXXZ      -1.7022
      XXYZ      17.5216   XYYZ      -9.7525   YYYZ      13.7299
      XXZZ    -388.8525   XYZZ      -6.2694   YYZZ    -361.9148
      XZZZ       9.5993   YZZZ       1.8299   ZZZZ    -235.9432
 -----------------------------------------------------------------
 Calculating analytic gradient of the SCF energy
 Gradient of SCF Energy
            1           2           3           4           5           6
    1   0.0213257  -0.0080944   0.0219533   0.0038728  -0.0213627  -0.0049191
    2   0.0280999   0.0335195   0.0130442   0.0252676   0.0316096  -0.0513407
    3  -0.0060298  -0.0071836  -0.0015978   0.0068760  -0.0526758   0.0521430
            7           8           9          10          11          12
    1  -0.0435928   0.0411236   0.0034144  -0.0167356   0.0111495   0.0041761
    2   0.0026304  -0.0357710  -0.0228437  -0.0142570   0.0022105   0.0017290
    3  -0.0483522   0.0435054  -0.0000375   0.0032563  -0.0024467   0.0009026
           13          14          15          16          17          18
    1  -0.0031860  -0.0059502   0.0008837  -0.0064515   0.0072787   0.0118702
    2   0.0033800   0.0100336  -0.0081916  -0.0041587   0.0033181  -0.0067733
    3  -0.0007584   0.0006345   0.0113512   0.0120997  -0.0015351   0.0021588
           19          20          21          22          23          24
    1  -0.0064546  -0.0051214   0.0007536  -0.0036346   0.0171200  -0.0151163
    2  -0.0018106   0.0037889  -0.0128389   0.0064391  -0.0027253   0.0083908
    3  -0.0085387  -0.0084767   0.0036917  -0.0000443  -0.0037533   0.0048797
           25          26          27          28          29          30
    1  -0.0053769   0.0027466  -0.0067816   0.0030568   0.0020212   0.0000315
    2  -0.0049794   0.0040361  -0.0027634  -0.0060541  -0.0076737   0.0046841
    3   0.0005309  -0.0013090  -0.0034106   0.0044744  -0.0000072  -0.0003474
 Max gradient component =       5.268E-02
 RMS gradient           =       1.699E-02
 Gradient time:  CPU 18.71 s  wall 0.88 s
 Geometry Optimization Parameters
   NAtoms,    NIC,     NZ,  NCons,   NDum,   NFix, NCnnct, MaxDiis
       30     194       0       2       0       0       0       0


** CONSTRAINED OPTIMIZATION IN DELOCALIZED INTERNAL COORDINATES **
   Searching for a Minimum

   Optimization Cycle:   1

                       Coordinates (Angstroms)
     ATOM                X               Y               Z
      1  C         0.4125011125   -0.6355076896   -0.1241194854
      2  C        -0.9199718424   -0.1775825584   -0.0970935988
      3  C         1.4909203662    0.3367582974   -0.4177838583
      4  C        -1.2227722681    1.2652754643   -0.2345295060
      5  O         2.4794071129    0.2069212582    0.5013164054
      6  O         1.4599007613    1.1281261782   -1.3437118584
      7  O        -0.5671603921    1.9341318938    0.7477851812
      8  O        -2.0192894914    1.7300109239   -1.0316062059
      9  C        -0.7911410252    3.3435492204    0.7249274575
     10  C         3.5538033154    1.1302705963    0.3241165186
     11  C         0.6908325096   -2.0150972909    0.0112251320
     12  C        -0.3765806243   -2.9000235158    0.2224235647
     13  C        -1.6950140119   -2.4427633611    0.2572883515
     14  C        -1.9865449822   -1.0814074782    0.0977300441
     15  H        -0.4624112412    3.7697958433   -0.2274740049
     16  H         4.0453282984    0.9641147078   -0.6391930950
     17  H        -2.4970302573   -3.1634910569    0.4061222542
     18  H        -1.8474376543    3.5666794906    0.9059890877
     19  H        -0.2002982988    3.7931790170    1.5273126011
     20  H         4.2838919982    0.9582831261    1.1198280401
     21  H         3.1925407862    2.1609409489    0.4023597877
     22  H        -0.1906002296   -3.9666582263    0.3443320837
     23  C        -3.4222635693   -0.6326602424    0.1288918324
     24  C         2.0849910947   -2.5767940219   -0.0602005081
     25  H         2.6449814024   -2.1343937269   -0.8905256458
     26  H         2.0671057384   -3.6580417916   -0.2367433488
     27  H         2.6144009167   -2.3996751371    0.8812702249
     28  H        -3.7454857248   -0.3261374563   -0.8709002559
     29  H        -3.5543120453    0.1968300833    0.8302013215
     30  H        -4.0860980650   -1.4390523749    0.4598971058
   Point Group: c1    Number of degrees of freedom:    84


   Energy is   -756.777492900

              Constraints and their Current Values
                                        Value     Constraint
   Dihedral:        2   1   3   5      131.435      130.200
   Dihedral:        1   2   4   7      -57.239      -62.300

 Attempting to Generate Delocalized Internal Coordinates

   Using Lagrange Multiplier Algorithm


 86 Hessian modes will be used to form the next step
  Hessian Eigenvalues:
    -0.977753   -0.977753    0.045000    0.045000    0.045000    0.045000
     0.045000    0.045000    0.045000    0.045000    0.045000    0.045001
     0.045002    0.045003    0.045005    0.045012    0.045013    0.045137
     0.045284    0.093755    0.094007    0.094234    0.094419    0.113828
     0.113875    0.116854    0.116890    0.159975    0.159998    0.160000
     0.160000    0.160000    0.160000    0.160000    0.160000    0.160000
     0.160000    0.160000    0.160000    0.160000    0.160000    0.224723
     0.244737    0.248923    0.249138    0.249624    0.249908    0.249990
     0.249993    0.250000    0.250000    0.250000    0.250000    0.250000
     0.318837    0.319059    0.341608    0.341647    0.342469    0.342555
     0.342769    0.342935    0.342935    0.343290    0.343371    0.343554
     0.344100    0.344105    0.344456    0.344917    0.348625    0.349867
     0.408089    0.409183    0.413229    0.413817    0.437594    0.446154
     0.449565    0.458786    0.535065    0.537664    0.958663    0.960829
     1.022753    1.022753

 Minimum Search - Taking P-RFO Step
 Searching for Lamda that Maximizes Along the Constraint modes Only
 Value Taken    Lamda =   0.00505491
 Searching for Lamda that Minimizes Along All other modes
 Value Taken    Lamda =  -0.05875253
 Calculated Step too Large.  Step scaled by  0.839115
 Step Taken.  Stepsize is  0.300000

                             Maximum     Tolerance    Cnvgd?
         Gradient            0.096534       0.000300      NO
         Displacement        0.129413       0.001200      NO
         Energy change     *********       0.000001      NO


 New Cartesian Coordinates Obtained by Inverse Iteration

 Displacement from previous Coordinates is:  0.773196
 Adding empirical dispersion correction 
 ----------------------------------------------------------------
 Doing -D3(op) with
 s6 =   1.00000
 s8 =   0.78311
 a1 =   0.30000
 a2 =   4.25000
 n  =  10.00000
 -D3 energy without 3body term =     -0.0326233973 hartrees
 ----------------------------------------------------------------
             Standard Nuclear Orientation (Angstroms)
    I     Atom           X                Y                Z
 ----------------------------------------------------------------
    1      C       0.4057638083    -0.6922208470    -0.1187894442
    2      C      -0.9331525635    -0.2200005531    -0.0723160552
    3      C       1.5147198417     0.3250059011    -0.4141272093
    4      C      -1.2194262508     1.2785264797    -0.2400244387
    5      O       2.5453801182     0.2024452006     0.5314035220
    6      O       1.4945647570     1.1623501154    -1.3422098734
    7      O      -0.5880721995     1.9822386892     0.8014610654
    8      O      -1.9950807204     1.7890335658    -1.0753514940
    9      C      -0.8223424960     3.4271733662     0.7295851040
   10      C       3.6203461460     1.1759785976     0.3231502452
   11      C       0.6835993842    -2.0827495105     0.0074825305
   12      C      -0.3990834115    -2.9657842738     0.2159900554
   13      C      -1.7244557419    -2.4972788092     0.2604979310
   14      C      -2.0167049498    -1.1236634108     0.1122162447
   15      H      -0.4520160856     3.8546843969    -0.2233468629
   16      H       4.1173718518     1.0360946100    -0.6576852513
   17      H      -2.5418099635    -3.2142597403     0.4059564732
   18      H      -1.8969022019     3.6742942745     0.8434823660
   19      H      -0.2640078374     3.8870536399     1.5646040270
   20      H       4.3641489998     1.0107553352     1.1230649415
   21      H       3.2485920531     2.2176820028     0.3938030560
   22      H      -0.2089334697    -4.0405581529     0.3272615188
   23      C      -3.4730226083    -0.6439285727     0.1421081047
   24      C       2.1081082910    -2.6446184809    -0.0756126896
   25      H       2.6729678894    -2.1867864946    -0.9018114573
   26      H       2.0828937388    -3.7292999016    -0.2564773909
   27      H       2.6570128207    -2.4699326013     0.8637385288
   28      H      -3.7972315573    -0.3123067780    -0.8574531104
   29      H      -3.6060336991     0.1921602426     0.8459023418
   30      H      -4.1410002542    -1.4565071701     0.4626328439
 ----------------------------------------------------------------
 Molecular Point Group                 C1    NOp =  1
 Largest Abelian Subgroup              C1    NOp =  1
 Nuclear Repulsion Energy =  1118.5796603266 hartrees
 There are       59 alpha and       59 beta electrons
 Applying Cartesian multipole field
    Component          Value
    ---------          -----
     (2,0,0)        1.00000E-11
     (0,2,0)        2.00000E-11
     (0,0,2)       -3.00000E-10
 Nucleus-field energy     =    -0.0000000011 hartrees
 Requested basis set is STO-3G
 There are 46 shells and 94 basis functions
 A cutoff of  1.0D-12 yielded    915 shell pairs
 There are      4293 function pairs
 Smallest overlap matrix eigenvalue = 1.82E-01
 Guess MOs from SCF MO coefficient file
 Reading MOs from coefficient file
 Reading MOs from coefficient file
 A restricted hybrid HF-DFT SCF calculation will be
 performed using Pulay DIIS extrapolation
 Exchange:     0.2000 Hartree-Fock + 0.0800 Slater + 0.7200 B88
 Correlation:  0.1900 VWN1RPA + 0.8100 LYP
 Using SG-1 standard quadrature grid
 Dispersion:   Grimme D3
 SCF converges when DIIS error is below 1.0E-08
 Geometry optimization detected.  Setting ReadMinima to 0
 Setting SaveMinima to 0
 -------------------------------------------------------
 OpenMP Integral computing Module                
 Release: version 1.0, May 2013, Q-Chem Inc. Pittsburgh 
 -------------------------------------------------------
 -------------------------------------------------------
 OpenMP BLAS3 based DFT computing Module                
 Release: version 1.0, May 2013, Q-Chem Inc. Pittsburgh 
 -------------------------------------------------------
 ---------------------------------------
  Cycle       Energy         DIIS Error
 ---------------------------------------
    1    -756.6364267071      6.22E-03
    2    -756.7966081258      2.43E-03
    3    -756.7826721320      4.14E-03
    4    -756.8037064383      6.37E-04
    5    -756.8042429332      1.64E-04
    6    -756.8042776191      4.97E-05
    7    -756.8042806476      2.17E-05
    8    -756.8042811501      1.06E-05
    9    -756.8042813004      1.71E-06
   10    -756.8042813051      3.99E-07
   11    -756.8042813053      1.28E-07
   12    -756.8042813053      3.44E-08
   13    -756.8042813053      1.56E-08
   14    -756.8042813053      4.47E-09 Convergence criterion met
 ---------------------------------------
 SCF time:  CPU 91.68 s  wall 3.94 s
 SCF   energy in the final basis set = -756.8042813053
 Total energy in the final basis set = -756.8042813053
 
 --------------------------------------------------------------
 
                    Orbital Energies (a.u.)
 --------------------------------------------------------------
 
 Alpha MOs
 -- Occupied --
-18.942 -18.938 -18.870 -18.869 -10.106 -10.103 -10.070 -10.066
-10.023 -10.023 -10.022 -10.021 -10.018 -10.016 -10.008 -10.007
 -1.020  -1.015  -0.939  -0.936  -0.814  -0.745  -0.720  -0.681
 -0.675  -0.662  -0.621  -0.585  -0.557  -0.498  -0.492  -0.450
 -0.443  -0.435  -0.416  -0.413  -0.409  -0.391  -0.384  -0.379
 -0.375  -0.369  -0.355  -0.347  -0.345  -0.337  -0.318  -0.312
 -0.307  -0.291  -0.285  -0.251  -0.248  -0.195  -0.182  -0.179
 -0.176  -0.151  -0.147
 -- Virtual --
  0.058   0.072   0.117   0.127   0.230   0.256   0.281   0.326
  0.352   0.355   0.375   0.388   0.401   0.420   0.422   0.426
  0.431   0.433   0.438   0.441   0.443   0.447   0.458   0.461
  0.469   0.480   0.484   0.552   0.565   0.578   0.604   0.656
  0.658   0.759   0.772
 --------------------------------------------------------------
 
          Ground-State Mulliken Net Atomic Charges

     Atom                 Charge (a.u.)
  ----------------------------------------
      1 C                    -0.018476
      2 C                    -0.016938
      3 C                     0.215058
      4 C                     0.216260
      5 O                    -0.169890
      6 O                    -0.215526
      7 O                    -0.173060
      8 O                    -0.211265
      9 C                    -0.125496
     10 C                    -0.124555
     11 C                     0.008967
     12 C                    -0.079236
     13 C                    -0.078934
     14 C                     0.009011
     15 H                     0.092500
     16 H                     0.089178
     17 H                     0.079460
     18 H                     0.088884
     19 H                     0.091059
     20 H                     0.092357
     21 H                     0.090443
     22 H                     0.078946
     23 C                    -0.225268
     24 C                    -0.223784
     25 H                     0.082696
     26 H                     0.080049
     27 H                     0.090793
     28 H                     0.093245
     29 H                     0.083569
     30 H                     0.079953
  ----------------------------------------
  Sum of atomic charges =     0.000000

 -----------------------------------------------------------------
                    Cartesian Multipole Moments
 -----------------------------------------------------------------
    Charge (ESU x 10^10)
                -0.0000
    Dipole Moment (Debye)
         X       1.1072      Y      -0.2816      Z       1.5751
       Tot       1.9458
    Quadrupole Moments (Debye-Ang)
        XX     -77.2584     XY       2.5899     YY     -76.6854
        XZ      -2.1032     YZ       4.4664     ZZ     -90.7091
    Octopole Moments (Debye-Ang^2)
       XXX      29.5117    XXY       7.6304    XYY       3.0750
       YYY      35.0582    XXZ       6.9809    XYZ      -0.7922
       YYZ      11.6673    XZZ       5.1151    YZZ       7.8974
       ZZZ      -2.7850
    Hexadecapole Moments (Debye-Ang^3)
      XXXX   -2006.7378   XXXY      46.5542   XXYY    -666.5936
      XYYY     -19.0321   YYYY   -1811.8920   XXXZ       0.4980
      XXYZ      15.8407   XYYZ      -9.7680   YYYZ      13.8921
      XXZZ    -400.8576   XYZZ      -6.7872   YYZZ    -379.9615
      XZZZ      11.0319   YZZZ       0.3109   ZZZZ    -241.7690
 -----------------------------------------------------------------
 Calculating analytic gradient of the SCF energy
 Gradient of SCF Energy
            1           2           3           4           5           6
    1   0.0033909  -0.0037664   0.0102738   0.0159467  -0.0078732  -0.0015624
    2   0.0064697   0.0062475  -0.0039683   0.0057234   0.0123993  -0.0074337
    3  -0.0011152  -0.0008621   0.0084717   0.0074986  -0.0183605   0.0048556
            7           8           9          10          11          12
    1  -0.0178716   0.0017837   0.0028117  -0.0054573   0.0022355   0.0018938
    2   0.0013963  -0.0057841  -0.0084228  -0.0069904   0.0001746  -0.0011769
    3  -0.0167133   0.0061859   0.0030704   0.0038253  -0.0018936   0.0012299
           13          14          15          16          17          18
    1  -0.0025310  -0.0016377   0.0010970   0.0005430   0.0014489   0.0013295
    2  -0.0002066   0.0019421  -0.0002008  -0.0009642  -0.0000092  -0.0001405
    3  -0.0001734   0.0005497   0.0016961   0.0016955  -0.0005205   0.0016694
           19          20          21          22          23          24
    1  -0.0012112   0.0007736   0.0007199  -0.0011318   0.0044515  -0.0032721
    2   0.0019249   0.0019778  -0.0010311   0.0008698   0.0001297   0.0031876
    3  -0.0014931  -0.0015789   0.0016168   0.0003548  -0.0018775   0.0020182
           25          26          27          28          29          30
    1  -0.0006065   0.0015688  -0.0010295  -0.0006133  -0.0008871  -0.0008170
    2  -0.0025122   0.0007245  -0.0018098  -0.0020182  -0.0020665   0.0015682
    3  -0.0008963  -0.0010242  -0.0001620   0.0005659   0.0010162   0.0003503
 Max gradient component =       1.836E-02
 RMS gradient           =       5.032E-03
 Gradient time:  CPU 17.86 s  wall 0.76 s
 Geometry Optimization Parameters
   NAtoms,    NIC,     NZ,  NCons,   NDum,   NFix, NCnnct, MaxDiis
       30     194       0       2       0       0       0       0

 Cartesian Hessian Update
 Hessian Updated using BFGS Update


** CONSTRAINED OPTIMIZATION IN DELOCALIZED INTERNAL COORDINATES **
   Searching for a Minimum

   Optimization Cycle:   2

                       Coordinates (Angstroms)
     ATOM                X               Y               Z
      1  C         0.4057638083   -0.6922208470   -0.1187894442
      2  C        -0.9331525635   -0.2200005531   -0.0723160552
      3  C         1.5147198417    0.3250059011   -0.4141272093
      4  C        -1.2194262508    1.2785264797   -0.2400244387
      5  O         2.5453801182    0.2024452006    0.5314035220
      6  O         1.4945647570    1.1623501154   -1.3422098734
      7  O        -0.5880721995    1.9822386892    0.8014610654
      8  O        -1.9950807204    1.7890335658   -1.0753514940
      9  C        -0.8223424960    3.4271733662    0.7295851040
     10  C         3.6203461460    1.1759785976    0.3231502452
     11  C         0.6835993842   -2.0827495105    0.0074825305
     12  C        -0.3990834115   -2.9657842738    0.2159900554
     13  C        -1.7244557419   -2.4972788092    0.2604979310
     14  C        -2.0167049498   -1.1236634108    0.1122162447
     15  H        -0.4520160856    3.8546843969   -0.2233468629
     16  H         4.1173718518    1.0360946100   -0.6576852513
     17  H        -2.5418099635   -3.2142597403    0.4059564732
     18  H        -1.8969022019    3.6742942745    0.8434823660
     19  H        -0.2640078374    3.8870536399    1.5646040270
     20  H         4.3641489998    1.0107553352    1.1230649415
     21  H         3.2485920531    2.2176820028    0.3938030560
     22  H        -0.2089334697   -4.0405581529    0.3272615188
     23  C        -3.4730226083   -0.6439285727    0.1421081047
     24  C         2.1081082910   -2.6446184809   -0.0756126896
     25  H         2.6729678894   -2.1867864946   -0.9018114573
     26  H         2.0828937388   -3.7292999016   -0.2564773909
     27  H         2.6570128207   -2.4699326013    0.8637385288
     28  H        -3.7972315573   -0.3123067780   -0.8574531104
     29  H        -3.6060336991    0.1921602426    0.8459023418
     30  H        -4.1410002542   -1.4565071701    0.4626328439
   Point Group: c1    Number of degrees of freedom:    84


   Energy is   -756.804281305

              Constraints and their Current Values
                                        Value     Constraint
   Dihedral:        2   1   3   5      130.428      130.200
   Dihedral:        1   2   4   7      -61.371      -62.300
 Hessian Updated using BFGS Update

   Using Lagrange Multiplier Algorithm


 70 Hessian modes will be used to form the next step
  Hessian Eigenvalues:
    -0.977858   -0.977741    0.044821    0.045000    0.045000    0.045000
     0.045001    0.045001    0.045001    0.045003    0.045005    0.045013
     0.045024    0.045093    0.045196    0.093602    0.093944    0.094234
     0.094416    0.113764    0.113858    0.116855    0.116890    0.158455
     0.159976    0.159999    0.162545    0.224721    0.237131    0.244904
     0.248944    0.249477    0.249635    0.249914    0.249992    0.249997
     0.250000    0.252693    0.318940    0.321879    0.341612    0.341650
     0.342501    0.342565    0.342805    0.342935    0.342960    0.343294
     0.343398    0.343577    0.344092    0.344413    0.344557    0.348588
     0.349808    0.371568    0.407222    0.408531    0.413484    0.423533
     0.438601    0.446252    0.457618    0.465202    0.522490    0.536478
     0.959692    0.990756    1.022728    1.022871

 Minimum Search - Taking P-RFO Step
 Searching for Lamda that Maximizes Along the Constraint modes Only
 Value Taken    Lamda =   0.00008812
 Searching for Lamda that Minimizes Along All other modes
 Value Taken    Lamda =  -0.00573529
 Step Taken.  Stepsize is  0.198748

                             Maximum     Tolerance    Cnvgd?
         Gradient            0.021438       0.000300      NO
         Displacement        0.064369       0.001200      NO
         Energy change     -0.026788       0.000001      NO


 New Cartesian Coordinates Obtained by Inverse Iteration

 Displacement from previous Coordinates is:  0.656871
 Adding empirical dispersion correction 
 ----------------------------------------------------------------
 Doing -D3(op) with
 s6 =   1.00000
 s8 =   0.78311
 a1 =   0.30000
 a2 =   4.25000
 n  =  10.00000
 -D3 energy without 3body term =     -0.0327542523 hartrees
 ----------------------------------------------------------------
             Standard Nuclear Orientation (Angstroms)
    I     Atom           X                Y                Z
 ----------------------------------------------------------------
    1      C       0.3923552663    -0.7117729207    -0.1055520657
    2      C      -0.9428444602    -0.2406076860    -0.0308802779
    3      C       1.4967862119     0.3343732492    -0.3641856451
    4      C      -1.2187272769     1.2687302089    -0.2115289499
    5      O       2.5434640579     0.1728083939     0.5880076088
    6      O       1.4783744838     1.2261694489    -1.2483144247
    7      O      -0.5590649055     1.9756539428     0.8382092516
    8      O      -1.9455982824     1.8083278607    -1.0794934409
    9      C      -0.7748615471     3.4259268553     0.6638358957
   10      C       3.5823645521     1.1956778631     0.3533671799
   11      C       0.6769911243    -2.1013282501    -0.0087532005
   12      C      -0.4053532357    -2.9897775171     0.1828024876
   13      C      -1.7312230794    -2.5214748349     0.2525431273
   14      C      -2.0261698951    -1.1442527077     0.1378187356
   15      H      -0.3856728221     3.7835699333    -0.3121474454
   16      H       4.0440155130     1.0907308661    -0.6507761766
   17      H      -2.5531659674    -3.2377210924     0.3894764004
   18      H      -1.8505757392     3.6916267516     0.7329895189
   19      H      -0.2194028249     3.9139861517     1.4865426675
   20      H       4.3495765107     1.0297694197     1.1326478611
   21      H       3.1732978695     2.2233032834     0.4464941654
   22      H      -0.2070013599    -4.0672700042     0.2661156277
   23      C      -3.4810121923    -0.6466802017     0.1814545196
   24      C       2.1138039909    -2.6427541921    -0.1057454780
   25      H       2.6685430457    -2.1472222889    -0.9184038764
   26      H       2.0967590110    -3.7259378479    -0.3017987420
   27      H       2.6622496578    -2.4667610341     0.8354219761
   28      H      -3.7936439603    -0.2791410697    -0.8108854045
   29      H      -3.5945020409     0.1823800322     0.8989361239
   30      H      -4.1535680157    -1.4647514919     0.4809376033
 ----------------------------------------------------------------
 Molecular Point Group                 C1    NOp =  1
 Largest Abelian Subgroup              C1    NOp =  1
 Nuclear Repulsion Energy =  1118.6406790006 hartrees
 There are       59 alpha and       59 beta electrons
 Applying Cartesian multipole field
    Component          Value
    ---------          -----
     (2,0,0)        1.00000E-11
     (0,2,0)        2.00000E-11
     (0,0,2)       -3.00000E-10
 Nucleus-field energy     =     0.0000000011 hartrees
 Requested basis set is STO-3G
 There are 46 shells and 94 basis functions
 A cutoff of  1.0D-12 yielded    917 shell pairs
 There are      4298 function pairs
 Smallest overlap matrix eigenvalue = 1.82E-01
 Guess MOs from SCF MO coefficient file
 Reading MOs from coefficient file
 Reading MOs from coefficient file
 A restricted hybrid HF-DFT SCF calculation will be
 performed using Pulay DIIS extrapolation
 Exchange:     0.2000 Hartree-Fock + 0.0800 Slater + 0.7200 B88
 Correlation:  0.1900 VWN1RPA + 0.8100 LYP
 Using SG-1 standard quadrature grid
 Dispersion:   Grimme D3
 SCF converges when DIIS error is below 1.0E-08
 Geometry optimization detected.  Setting ReadMinima to 0
 Setting SaveMinima to 0
 -------------------------------------------------------
 OpenMP Integral computing Module                
 Release: version 1.0, May 2013, Q-Chem Inc. Pittsburgh 
 -------------------------------------------------------
 -------------------------------------------------------
 OpenMP BLAS3 based DFT computing Module                
 Release: version 1.0, May 2013, Q-Chem Inc. Pittsburgh 
 -------------------------------------------------------
 ---------------------------------------
  Cycle       Energy         DIIS Error
 ---------------------------------------
    1    -756.7530021817      3.91E-03
    2    -756.8059229944      9.58E-04
    3    -756.8023535709      1.97E-03
    4    -756.8070702599      2.68E-04
    5    -756.8071626085      8.28E-05
    6    -756.8071710710      2.92E-05
    7    -756.8071719522      1.65E-05
    8    -756.8071722863      5.19E-06
    9    -756.8071723225      1.30E-06
   10    -756.8071723253      2.47E-07
   11    -756.8071723254      7.44E-08
   12    -756.8071723254      3.01E-08
   13    -756.8071723254      1.20E-08
   14    -756.8071723253      3.15E-09 Convergence criterion met
 ---------------------------------------
 SCF time:  CPU 82.78 s  wall 3.53 s
 SCF   energy in the final basis set = -756.8071723253
 Total energy in the final basis set = -756.8071723253
 
 --------------------------------------------------------------
 
                    Orbital Energies (a.u.)
 --------------------------------------------------------------
 
 Alpha MOs
 -- Occupied --
-18.940 -18.935 -18.873 -18.873 -10.103 -10.100 -10.066 -10.062
-10.024 -10.023 -10.022 -10.021 -10.018 -10.018 -10.009 -10.009
 -1.015  -1.009  -0.936  -0.933  -0.815  -0.745  -0.719  -0.680
 -0.670  -0.657  -0.621  -0.584  -0.556  -0.495  -0.490  -0.448
 -0.442  -0.433  -0.412  -0.410  -0.407  -0.390  -0.382  -0.376
 -0.371  -0.368  -0.356  -0.347  -0.346  -0.338  -0.316  -0.310
 -0.306  -0.290  -0.284  -0.256  -0.253  -0.195  -0.183  -0.179
 -0.175  -0.154  -0.150
 -- Virtual --
  0.057   0.071   0.114   0.124   0.230   0.253   0.277   0.315
  0.340   0.346   0.370   0.382   0.401   0.416   0.421   0.424
  0.430   0.432   0.434   0.437   0.441   0.445   0.454   0.457
  0.464   0.475   0.481   0.549   0.561   0.576   0.602   0.646
  0.649   0.757   0.771
 --------------------------------------------------------------
 
          Ground-State Mulliken Net Atomic Charges

     Atom                 Charge (a.u.)
  ----------------------------------------
      1 C                    -0.019050
      2 C                    -0.017690
      3 C                     0.209558
      4 C                     0.210997
      5 O                    -0.164248
      6 O                    -0.212226
      7 O                    -0.167678
      8 O                    -0.206762
      9 C                    -0.127836
     10 C                    -0.126803
     11 C                     0.008719
     12 C                    -0.079114
     13 C                    -0.078651
     14 C                     0.008492
     15 H                     0.092558
     16 H                     0.088500
     17 H                     0.079454
     18 H                     0.088182
     19 H                     0.089043
     20 H                     0.090524
     21 H                     0.090286
     22 H                     0.079170
     23 C                    -0.224146
     24 C                    -0.222403
     25 H                     0.082929
     26 H                     0.080119
     27 H                     0.091271
     28 H                     0.092705
     29 H                     0.083673
     30 H                     0.080426
  ----------------------------------------
  Sum of atomic charges =     0.000000

 -----------------------------------------------------------------
                    Cartesian Multipole Moments
 -----------------------------------------------------------------
    Charge (ESU x 10^10)
                -0.0000
    Dipole Moment (Debye)
         X       0.9662      Y      -0.3992      Z       1.3758
       Tot       1.7279
    Quadrupole Moments (Debye-Ang)
        XX     -77.5188     XY       2.5275     YY     -77.1884
        XZ      -2.1269     YZ       4.1807     ZZ     -90.6156
    Octopole Moments (Debye-Ang^2)
       XXX      26.0436    XXY       7.9007    XYY       2.9606
       YYY      33.4294    XXZ       5.2217    XYZ      -0.4392
       YYZ       9.5272    XZZ       5.6712    YZZ       8.2417
       ZZZ      -6.8539
    Hexadecapole Moments (Debye-Ang^3)
      XXXX   -1996.6171   XXXY      34.9005   XXYY    -666.1969
      XYYY     -26.6246   YYYY   -1835.4758   XXXZ      -1.4335
      XXYZ      13.6620   XYYZ      -9.1994   YYYZ      12.6483
      XXZZ    -395.8765   XYZZ      -8.4974   YYZZ    -383.5155
      XZZZ       6.8781   YZZZ      -1.9034   ZZZZ    -233.1351
 -----------------------------------------------------------------
 Calculating analytic gradient of the SCF energy
 Gradient of SCF Energy
            1           2           3           4           5           6
    1  -0.0015197   0.0009502   0.0062422   0.0081180  -0.0019617  -0.0004728
    2  -0.0011355  -0.0003578  -0.0015112   0.0038784   0.0014126   0.0018505
    3  -0.0005169   0.0041938   0.0037457   0.0029694  -0.0008576  -0.0030318
            7           8           9          10          11          12
    1  -0.0035343  -0.0032801  -0.0006354  -0.0041914  -0.0001103   0.0004896
    2  -0.0008064   0.0012172  -0.0045370  -0.0021097   0.0001923  -0.0001109
    3  -0.0000123  -0.0026849  -0.0015880  -0.0010877  -0.0016556   0.0004995
           13          14          15          16          17          18
    1  -0.0002324  -0.0002440   0.0000932   0.0004220  -0.0001979  -0.0006238
    2   0.0001437   0.0010716   0.0005333   0.0000195  -0.0001050   0.0002206
    3  -0.0002226   0.0000894  -0.0004485  -0.0005622  -0.0001805   0.0001354
           19          20          21          22          23          24
    1   0.0004943  -0.0000563  -0.0001226   0.0000706   0.0005439   0.0001585
    2  -0.0004272  -0.0005115   0.0006666  -0.0001927   0.0006957   0.0012330
    3   0.0004372   0.0004879   0.0000990   0.0003003  -0.0006927   0.0005408
           25          26          27          28          29          30
    1   0.0000736  -0.0001837   0.0001172  -0.0002589  -0.0001309  -0.0000170
    2   0.0000162  -0.0003694  -0.0004114  -0.0002228   0.0001337  -0.0004765
    3  -0.0003529  -0.0003458   0.0002728  -0.0001563   0.0002574   0.0003677
 Max gradient component =       8.118E-03
 RMS gradient           =       1.759E-03
 Gradient time:  CPU 18.32 s  wall 0.78 s
 Geometry Optimization Parameters
   NAtoms,    NIC,     NZ,  NCons,   NDum,   NFix, NCnnct, MaxDiis
       30     194       0       2       0       0       0       0

 Cartesian Hessian Update
 Hessian Updated using BFGS Update


** CONSTRAINED OPTIMIZATION IN DELOCALIZED INTERNAL COORDINATES **
   Searching for a Minimum

   Optimization Cycle:   3

                       Coordinates (Angstroms)
     ATOM                X               Y               Z
      1  C         0.3923552663   -0.7117729207   -0.1055520657
      2  C        -0.9428444602   -0.2406076860   -0.0308802779
      3  C         1.4967862119    0.3343732492   -0.3641856451
      4  C        -1.2187272769    1.2687302089   -0.2115289499
      5  O         2.5434640579    0.1728083939    0.5880076088
      6  O         1.4783744838    1.2261694489   -1.2483144247
      7  O        -0.5590649055    1.9756539428    0.8382092516
      8  O        -1.9455982824    1.8083278607   -1.0794934409
      9  C        -0.7748615471    3.4259268553    0.6638358957
     10  C         3.5823645521    1.1956778631    0.3533671799
     11  C         0.6769911243   -2.1013282501   -0.0087532005
     12  C        -0.4053532357   -2.9897775171    0.1828024876
     13  C        -1.7312230794   -2.5214748349    0.2525431273
     14  C        -2.0261698951   -1.1442527077    0.1378187356
     15  H        -0.3856728221    3.7835699333   -0.3121474454
     16  H         4.0440155130    1.0907308661   -0.6507761766
     17  H        -2.5531659674   -3.2377210924    0.3894764004
     18  H        -1.8505757392    3.6916267516    0.7329895189
     19  H        -0.2194028249    3.9139861517    1.4865426675
     20  H         4.3495765107    1.0297694197    1.1326478611
     21  H         3.1732978695    2.2233032834    0.4464941654
     22  H        -0.2070013599   -4.0672700042    0.2661156277
     23  C        -3.4810121923   -0.6466802017    0.1814545196
     24  C         2.1138039909   -2.6427541921   -0.1057454780
     25  H         2.6685430457   -2.1472222889   -0.9184038764
     26  H         2.0967590110   -3.7259378479   -0.3017987420
     27  H         2.6622496578   -2.4667610341    0.8354219761
     28  H        -3.7936439603   -0.2791410697   -0.8108854045
     29  H        -3.5945020409    0.1823800322    0.8989361239
     30  H        -4.1535680157   -1.4647514919    0.4809376033
   Point Group: c1    Number of degrees of freedom:    84


   Energy is   -756.807172325

              Constraints and their Current Values
                                        Value     Constraint
   Dihedral:        2   1   3   5      130.201      130.200
   Dihedral:        1   2   4   7      -62.297      -62.300
 Hessian Updated using BFGS Update

   Using Lagrange Multiplier Algorithm


 73 Hessian modes will be used to form the next step
  Hessian Eigenvalues:
    -0.977754   -0.977195    0.040295    0.045000    0.045000    0.045000
     0.045001    0.045001    0.045001    0.045003    0.045004    0.045008
     0.045014    0.045058    0.045079    0.045420    0.092628    0.093901
     0.094233    0.094408    0.113133    0.113853    0.116855    0.116891
     0.159373    0.159980    0.159999    0.161334    0.164215    0.224668
     0.240011    0.244864    0.248960    0.249472    0.249640    0.249932
     0.249993    0.249999    0.250000    0.250570    0.293787    0.318945
     0.321955    0.341624    0.341778    0.342492    0.342610    0.342812
     0.342935    0.343043    0.343278    0.343474    0.343821    0.344097
     0.344410    0.344530    0.348617    0.349821    0.376390    0.394094
     0.408433    0.413510    0.420137    0.438596    0.446304    0.457769
     0.466349    0.479890    0.536405    0.959678    1.012242    1.022761
     1.033464

 Minimum Search - Taking P-RFO Step
 Searching for Lamda that Maximizes Along the Constraint modes Only
 Value Taken    Lamda =   0.00000574
 Searching for Lamda that Minimizes Along All other modes
 Value Taken    Lamda =  -0.00066942
 Step Taken.  Stepsize is  0.084299

                             Maximum     Tolerance    Cnvgd?
         Gradient            0.006871       0.000300      NO
         Displacement        0.029327       0.001200      NO
         Energy change     -0.002891       0.000001      NO


 New Cartesian Coordinates Obtained by Inverse Iteration

 Displacement from previous Coordinates is:  0.310583
 Adding empirical dispersion correction 
 ----------------------------------------------------------------
 Doing -D3(op) with
 s6 =   1.00000
 s8 =   0.78311
 a1 =   0.30000
 a2 =   4.25000
 n  =  10.00000
 -D3 energy without 3body term =     -0.0327961219 hartrees
 ----------------------------------------------------------------
             Standard Nuclear Orientation (Angstroms)
    I     Atom           X                Y                Z
 ----------------------------------------------------------------
    1      C       0.3811250850    -0.7125479135    -0.1136592281
    2      C      -0.9567596718    -0.2480803726    -0.0250555387
    3      C       1.4811139331     0.3433489703    -0.3548449544
    4      C      -1.2369461820     1.2599003533    -0.2144925658
    5      O       2.5397592910     0.1694399699     0.5938276779
    6      O       1.4590694461     1.2545457724    -1.2166295701
    7      O      -0.5625160016     1.9823877455     0.8261015239
    8      O      -1.9488871929     1.7975194013    -1.0929563249
    9      C      -0.7481463803     3.4411395686     0.6355283618
   10      C       3.5865052949     1.1986487401     0.3822850908
   11      C       0.6716827482    -2.1019097064    -0.0216261303
   12      C      -0.4062930121    -2.9957425446     0.1686852350
   13      C      -1.7328916737    -2.5343920807     0.2527169976
   14      C      -2.0344608995    -1.1583551729     0.1474337016
   15      H      -0.3503118504     3.7736777173    -0.3448020791
   16      H       4.0442887273     1.1135627005    -0.6243502113
   17      H      -2.5504967765    -3.2545579306     0.3936542872
   18      H      -1.8180652126     3.7273571804     0.6953841518
   19      H      -0.1866354935     3.9316761887     1.4518418366
   20      H       4.3549810321     1.0177949126     1.1561354499
   21      H       3.1771589320     2.2230989441     0.4946423826
   22      H      -0.2021816750    -4.0725613690     0.2431888605
   23      C      -3.4903853174    -0.6640031505     0.2040532915
   24      C       2.1107215281    -2.6373245549    -0.1235135393
   25      H       2.6605916454    -2.1361542153    -0.9354448032
   26      H       2.1006593645    -3.7203947056    -0.3171809776
   27      H       2.6590381206    -2.4538937649     0.8159996394
   28      H      -3.8053380787    -0.2869493125    -0.7838252061
   29      H      -3.5975606365     0.1611845946     0.9264159487
   30      H      -4.1626254038    -1.4828348444     0.4996223149
 ----------------------------------------------------------------
 Molecular Point Group                 C1    NOp =  1
 Largest Abelian Subgroup              C1    NOp =  1
 Nuclear Repulsion Energy =  1117.7661363535 hartrees
 There are       59 alpha and       59 beta electrons
 Applying Cartesian multipole field
    Component          Value
    ---------          -----
     (2,0,0)        1.00000E-11
     (0,2,0)        2.00000E-11
     (0,0,2)       -3.00000E-10
 Nucleus-field energy     =     0.0000000019 hartrees
 Requested basis set is STO-3G
 There are 46 shells and 94 basis functions
 A cutoff of  1.0D-12 yielded    914 shell pairs
 There are      4289 function pairs
 Smallest overlap matrix eigenvalue = 1.82E-01
 Guess MOs from SCF MO coefficient file
 Reading MOs from coefficient file
 Reading MOs from coefficient file
 A restricted hybrid HF-DFT SCF calculation will be
 performed using Pulay DIIS extrapolation
 Exchange:     0.2000 Hartree-Fock + 0.0800 Slater + 0.7200 B88
 Correlation:  0.1900 VWN1RPA + 0.8100 LYP
 Using SG-1 standard quadrature grid
 Dispersion:   Grimme D3
 SCF converges when DIIS error is below 1.0E-08
 Geometry optimization detected.  Setting ReadMinima to 0
 Setting SaveMinima to 0
 -------------------------------------------------------
 OpenMP Integral computing Module                
 Release: version 1.0, May 2013, Q-Chem Inc. Pittsburgh 
 -------------------------------------------------------
 -------------------------------------------------------
 OpenMP BLAS3 based DFT computing Module                
 Release: version 1.0, May 2013, Q-Chem Inc. Pittsburgh 
 -------------------------------------------------------
 ---------------------------------------
  Cycle       Energy         DIIS Error
 ---------------------------------------
    1    -756.8003695450      1.52E-03
    2    -756.8073600785      3.35E-04
    3    -756.8067227142      7.84E-04
    4    -756.8075113652      6.57E-05
    5    -756.8075164080      2.30E-05
    6    -756.8075170593      7.26E-06
    7    -756.8075171305      3.37E-06
    8    -756.8075171445      1.26E-06
    9    -756.8075171463      5.01E-07
   10    -756.8075171467      8.48E-08
   11    -756.8075171467      2.18E-08
   12    -756.8075171467      1.06E-08
   13    -756.8075171467      3.92E-09 Convergence criterion met
 ---------------------------------------
 SCF time:  CPU 71.60 s  wall 3.09 s
 SCF   energy in the final basis set = -756.8075171467
 Total energy in the final basis set = -756.8075171467
 
 --------------------------------------------------------------
 
                    Orbital Energies (a.u.)
 --------------------------------------------------------------
 
 Alpha MOs
 -- Occupied --
-18.936 -18.931 -18.875 -18.874 -10.103 -10.100 -10.065 -10.061
-10.024 -10.024 -10.023 -10.022 -10.019 -10.018 -10.010 -10.009
 -1.011  -1.005  -0.935  -0.932  -0.816  -0.745  -0.719  -0.681
 -0.668  -0.657  -0.621  -0.584  -0.556  -0.494  -0.489  -0.447
 -0.442  -0.432  -0.411  -0.409  -0.406  -0.390  -0.382  -0.376
 -0.371  -0.368  -0.356  -0.348  -0.346  -0.338  -0.317  -0.311
 -0.306  -0.290  -0.284  -0.254  -0.252  -0.195  -0.183  -0.178
 -0.173  -0.154  -0.150
 -- Virtual --
  0.057   0.070   0.114   0.124   0.229   0.248   0.273   0.314
  0.338   0.346   0.369   0.381   0.400   0.415   0.421   0.426
  0.431   0.432   0.434   0.438   0.442   0.445   0.454   0.456
  0.464   0.475   0.481   0.548   0.561   0.575   0.602   0.646
  0.650   0.756   0.770
 --------------------------------------------------------------
 
          Ground-State Mulliken Net Atomic Charges

     Atom                 Charge (a.u.)
  ----------------------------------------
      1 C                    -0.018661
      2 C                    -0.017413
      3 C                     0.209000
      4 C                     0.210581
      5 O                    -0.164452
      6 O                    -0.211838
      7 O                    -0.167835
      8 O                    -0.205905
      9 C                    -0.129428
     10 C                    -0.128362
     11 C                     0.009150
     12 C                    -0.079070
     13 C                    -0.078659
     14 C                     0.008709
     15 H                     0.092640
     16 H                     0.088332
     17 H                     0.079772
     18 H                     0.087973
     19 H                     0.089323
     20 H                     0.090887
     21 H                     0.090262
     22 H                     0.079366
     23 C                    -0.224502
     24 C                    -0.222693
     25 H                     0.083250
     26 H                     0.080312
     27 H                     0.091758
     28 H                     0.092682
     29 H                     0.083994
     30 H                     0.080827
  ----------------------------------------
  Sum of atomic charges =     0.000000

 -----------------------------------------------------------------
                    Cartesian Multipole Moments
 -----------------------------------------------------------------
    Charge (ESU x 10^10)
                -0.0000
    Dipole Moment (Debye)
         X       0.9538      Y      -0.4401      Z       1.3412
       Tot       1.7035
    Quadrupole Moments (Debye-Ang)
        XX     -77.4703     XY       2.6127     YY     -77.1671
        XZ      -2.1209     YZ       4.1422     ZZ     -90.5447
    Octopole Moments (Debye-Ang^2)
       XXX      27.0335    XXY       8.0480    XYY       3.2728
       YYY      33.6610    XXZ       5.4797    XYZ      -0.2072
       YYZ       9.3931    XZZ       6.3827    YZZ       8.3448
       ZZZ      -7.0683
    Hexadecapole Moments (Debye-Ang^3)
      XXXX   -1995.9449   XXXY      30.4415   XXYY    -667.4617
      XYYY     -32.1041   YYYY   -1842.1984   XXXZ      -2.6776
      XXYZ      13.4514   XYYZ      -9.5025   YYYZ      13.1848
      XXZZ    -395.4724   XYZZ      -9.7000   YYZZ    -385.1855
      XZZZ       4.2263   YZZZ      -2.2563   ZZZZ    -230.8715
 -----------------------------------------------------------------
 Calculating analytic gradient of the SCF energy
 Gradient of SCF Energy
            1           2           3           4           5           6
    1  -0.0017097   0.0006577   0.0002686   0.0024797  -0.0011065  -0.0000005
    2  -0.0010500  -0.0004394  -0.0019588  -0.0011652   0.0008845   0.0008464
    3  -0.0025982   0.0046559   0.0000489  -0.0015154   0.0003744  -0.0009926
            7           8           9          10          11          12
    1  -0.0016672  -0.0006059   0.0004296   0.0014612  -0.0002164  -0.0002805
    2  -0.0005151   0.0008058   0.0013439   0.0004356  -0.0000755   0.0001554
    3   0.0007685  -0.0010356   0.0006720   0.0006594  -0.0009212   0.0002605
           13          14          15          16          17          18
    1   0.0003652  -0.0000698  -0.0003293  -0.0001472  -0.0001087   0.0000914
    2  -0.0000130   0.0001815  -0.0000047   0.0001611   0.0000075  -0.0000065
    3  -0.0001505   0.0000240  -0.0000014   0.0000361  -0.0000807  -0.0001453
           19          20          21          22          23          24
    1   0.0000893   0.0002479   0.0000431   0.0000695  -0.0004689   0.0004014
    2   0.0002830   0.0001698  -0.0000746  -0.0000147  -0.0000720  -0.0000284
    3   0.0000037   0.0000022  -0.0002151   0.0001658   0.0000020  -0.0000654
           25          26          27          28          29          30
    1  -0.0000587  -0.0001125  -0.0000504   0.0000644   0.0001555   0.0001077
    2   0.0002536  -0.0000305  -0.0001130  -0.0000398   0.0001567  -0.0000834
    3   0.0001735  -0.0000989   0.0000386  -0.0000024  -0.0001948   0.0001321
 Max gradient component =       4.656E-03
 RMS gradient           =       8.430E-04
 Gradient time:  CPU 16.58 s  wall 0.70 s
 Geometry Optimization Parameters
   NAtoms,    NIC,     NZ,  NCons,   NDum,   NFix, NCnnct, MaxDiis
       30     194       0       2       0       0       0       0

 Cartesian Hessian Update
 Hessian Updated using BFGS Update


** CONSTRAINED OPTIMIZATION IN DELOCALIZED INTERNAL COORDINATES **
   Searching for a Minimum

   Optimization Cycle:   4

                       Coordinates (Angstroms)
     ATOM                X               Y               Z
      1  C         0.3811250850   -0.7125479135   -0.1136592281
      2  C        -0.9567596718   -0.2480803726   -0.0250555387
      3  C         1.4811139331    0.3433489703   -0.3548449544
      4  C        -1.2369461820    1.2599003533   -0.2144925658
      5  O         2.5397592910    0.1694399699    0.5938276779
      6  O         1.4590694461    1.2545457724   -1.2166295701
      7  O        -0.5625160016    1.9823877455    0.8261015239
      8  O        -1.9488871929    1.7975194013   -1.0929563249
      9  C        -0.7481463803    3.4411395686    0.6355283618
     10  C         3.5865052949    1.1986487401    0.3822850908
     11  C         0.6716827482   -2.1019097064   -0.0216261303
     12  C        -0.4062930121   -2.9957425446    0.1686852350
     13  C        -1.7328916737   -2.5343920807    0.2527169976
     14  C        -2.0344608995   -1.1583551729    0.1474337016
     15  H        -0.3503118504    3.7736777173   -0.3448020791
     16  H         4.0442887273    1.1135627005   -0.6243502113
     17  H        -2.5504967765   -3.2545579306    0.3936542872
     18  H        -1.8180652126    3.7273571804    0.6953841518
     19  H        -0.1866354935    3.9316761887    1.4518418366
     20  H         4.3549810321    1.0177949126    1.1561354499
     21  H         3.1771589320    2.2230989441    0.4946423826
     22  H        -0.2021816750   -4.0725613690    0.2431888605
     23  C        -3.4903853174   -0.6640031505    0.2040532915
     24  C         2.1107215281   -2.6373245549   -0.1235135393
     25  H         2.6605916454   -2.1361542153   -0.9354448032
     26  H         2.1006593645   -3.7203947056   -0.3171809776
     27  H         2.6590381206   -2.4538937649    0.8159996394
     28  H        -3.8053380787   -0.2869493125   -0.7838252061
     29  H        -3.5975606365    0.1611845946    0.9264159487
     30  H        -4.1626254038   -1.4828348444    0.4996223149
   Point Group: c1    Number of degrees of freedom:    84


   Energy is   -756.807517147

              Constraints and their Current Values
                                        Value     Constraint
   Dihedral:        2   1   3   5      130.200      130.200
   Dihedral:        1   2   4   7      -62.300      -62.300
 Hessian Updated using BFGS Update

   Using Lagrange Multiplier Algorithm


 74 Hessian modes will be used to form the next step
  Hessian Eigenvalues:
    -0.975179    0.035186    0.045000    0.045000    0.045000    0.045001
     0.045001    0.045001    0.045002    0.045003    0.045005    0.045012
     0.045032    0.045074    0.045094    0.046448    0.093209    0.093943
     0.094234    0.094408    0.113853    0.114704    0.116853    0.116882
     0.159414    0.159980    0.159999    0.160309    0.161379    0.164261
     0.224433    0.240036    0.245161    0.249112    0.249443    0.249652
     0.249939    0.249993    0.250000    0.250000    0.250294    0.250553
     0.302913    0.318943    0.321932    0.341621    0.341708    0.342530
     0.342613    0.342881    0.342933    0.343059    0.343295    0.343480
     0.343968    0.344362    0.344498    0.347096    0.348702    0.349836
     0.373218    0.408079    0.410104    0.413550    0.436904    0.446008
     0.453083    0.460040    0.467600    0.522730    0.536392    0.959393
     0.992748    1.029541

 Minimum Search - Taking P-RFO Step
 Searching for Lamda that Maximizes Along the Constraint modes Only
 Value Taken    Lamda =   0.00000124
 Searching for Lamda that Minimizes Along All other modes
 Value Taken    Lamda =  -0.00006726
 Step Taken.  Stepsize is  0.024744

                             Maximum     Tolerance    Cnvgd?
         Gradient            0.002665       0.000300      NO
         Displacement        0.008812       0.001200      NO
         Energy change     -0.000345       0.000001      NO


 New Cartesian Coordinates Obtained by Inverse Iteration

 Displacement from previous Coordinates is:  0.068197
 Adding empirical dispersion correction 
 ----------------------------------------------------------------
 Doing -D3(op) with
 s6 =   1.00000
 s8 =   0.78311
 a1 =   0.30000
 a2 =   4.25000
 n  =  10.00000
 -D3 energy without 3body term =     -0.0327980043 hartrees
 ----------------------------------------------------------------
             Standard Nuclear Orientation (Angstroms)
    I     Atom           X                Y                Z
 ----------------------------------------------------------------
    1      C       0.3822079986    -0.7088854829    -0.1180687172
    2      C      -0.9569617733    -0.2453963460    -0.0272311208
    3      C       1.4835339923     0.3455795266    -0.3534029906
    4      C      -1.2403620784     1.2613543430    -0.2150879780
    5      O       2.5401455251     0.1632333797     0.5957780187
    6      O       1.4652913315     1.2608011012    -1.2099836993
    7      O      -0.5654733519     1.9835361968     0.8251881856
    8      O      -1.9551287967     1.7975506281    -1.0909786512
    9      C      -0.7523550806     3.4402992397     0.6291802292
   10      C       3.5861528906     1.1917629382     0.3854455001
   11      C       0.6730305779    -2.0985612929    -0.0242252617
   12      C      -0.4043592677    -2.9933133066     0.1653069669
   13      C      -1.7312531611    -2.5330838160     0.2515623693
   14      C      -2.0333841621    -1.1571230226     0.1476522045
   15      H      -0.3498718288     3.7702203446    -0.3503261878
   16      H       4.0436378521     1.1085840348    -0.6216517512
   17      H      -2.5477433835    -3.2540124676     0.3944617480
   18      H      -1.8226410803     3.7262953803     0.6854940022
   19      H      -0.1938926536     3.9324509829     1.4463135390
   20      H       4.3543794547     1.0066806808     1.1582613363
   21      H       3.1782051819     2.2163721173     0.5025254595
   22      H      -0.1997907996    -4.0700993947     0.2382598327
   23      C      -3.4892277330    -0.6630662669     0.2092756092
   24      C       2.1116978687    -2.6349644197    -0.1253152986
   25      H       2.6620996146    -2.1381061786    -0.9395862738
   26      H       2.1017804530    -3.7186691290    -0.3147914646
   27      H       2.6607702949    -2.4481839394     0.8131079383
   28      H      -3.8071345841    -0.2829232474    -0.7765191286
   29      H      -3.5956519243     0.1594291059     0.9348783995
   30      H      -4.1615076871    -1.4821805684     0.5036128071
 ----------------------------------------------------------------
 Molecular Point Group                 C1    NOp =  1
 Largest Abelian Subgroup              C1    NOp =  1
 Nuclear Repulsion Energy =  1117.9604216369 hartrees
 There are       59 alpha and       59 beta electrons
 Applying Cartesian multipole field
    Component          Value
    ---------          -----
     (2,0,0)        1.00000E-11
     (0,2,0)        2.00000E-11
     (0,0,2)       -3.00000E-10
 Nucleus-field energy     =     0.0000000021 hartrees
 Requested basis set is STO-3G
 There are 46 shells and 94 basis functions
 A cutoff of  1.0D-12 yielded    914 shell pairs
 There are      4289 function pairs
 Smallest overlap matrix eigenvalue = 1.83E-01
 Guess MOs from SCF MO coefficient file
 Reading MOs from coefficient file
 Reading MOs from coefficient file
 A restricted hybrid HF-DFT SCF calculation will be
 performed using Pulay DIIS extrapolation
 Exchange:     0.2000 Hartree-Fock + 0.0800 Slater + 0.7200 B88
 Correlation:  0.1900 VWN1RPA + 0.8100 LYP
 Using SG-1 standard quadrature grid
 Dispersion:   Grimme D3
 SCF converges when DIIS error is below 1.0E-08
 Geometry optimization detected.  Setting ReadMinima to 0
 Setting SaveMinima to 0
 -------------------------------------------------------
 OpenMP Integral computing Module                
 Release: version 1.0, May 2013, Q-Chem Inc. Pittsburgh 
 -------------------------------------------------------
 -------------------------------------------------------
 OpenMP BLAS3 based DFT computing Module                
 Release: version 1.0, May 2013, Q-Chem Inc. Pittsburgh 
 -------------------------------------------------------
 ---------------------------------------
  Cycle       Energy         DIIS Error
 ---------------------------------------
    1    -756.8086713299      3.41E-04
    2    -756.8075487814      2.40E-05
    3    -756.8075493748      2.19E-05
    4    -756.8075498449      1.28E-05
    5    -756.8075500369      4.52E-06
    6    -756.8075500596      1.86E-06
    7    -756.8075500649      3.19E-07
    8    -756.8075500649      2.63E-07
    9    -756.8075500650      4.37E-08
   10    -756.8075500650      1.41E-08
   11    -756.8075500650      3.50E-09 Convergence criterion met
 ---------------------------------------
 SCF time:  CPU 64.54 s  wall 2.75 s
 SCF   energy in the final basis set = -756.8075500650
 Total energy in the final basis set = -756.8075500650
 
 --------------------------------------------------------------
 
                    Orbital Energies (a.u.)
 --------------------------------------------------------------
 
 Alpha MOs
 -- Occupied --
-18.936 -18.932 -18.875 -18.874 -10.103 -10.101 -10.065 -10.061
-10.024 -10.024 -10.023 -10.022 -10.018 -10.018 -10.010 -10.009
 -1.012  -1.006  -0.935  -0.933  -0.815  -0.745  -0.719  -0.681
 -0.668  -0.657  -0.621  -0.584  -0.556  -0.494  -0.489  -0.447
 -0.442  -0.433  -0.411  -0.409  -0.407  -0.390  -0.382  -0.376
 -0.370  -0.368  -0.356  -0.348  -0.346  -0.338  -0.317  -0.311
 -0.306  -0.290  -0.284  -0.255  -0.252  -0.195  -0.183  -0.178
 -0.173  -0.154  -0.150
 -- Virtual --
  0.056   0.070   0.114   0.125   0.229   0.249   0.274   0.314
  0.338   0.346   0.369   0.381   0.400   0.415   0.422   0.426
  0.431   0.432   0.435   0.438   0.442   0.445   0.454   0.456
  0.464   0.475   0.481   0.548   0.561   0.575   0.602   0.647
  0.651   0.756   0.770
 --------------------------------------------------------------
 
          Ground-State Mulliken Net Atomic Charges

     Atom                 Charge (a.u.)
  ----------------------------------------
      1 C                    -0.018756
      2 C                    -0.017457
      3 C                     0.209258
      4 C                     0.210949
      5 O                    -0.164420
      6 O                    -0.211944
      7 O                    -0.167779
      8 O                    -0.205964
      9 C                    -0.129353
     10 C                    -0.128283
     11 C                     0.009202
     12 C                    -0.079048
     13 C                    -0.078668
     14 C                     0.008706
     15 H                     0.092594
     16 H                     0.088299
     17 H                     0.079825
     18 H                     0.088031
     19 H                     0.089208
     20 H                     0.090713
     21 H                     0.090264
     22 H                     0.079354
     23 C                    -0.224567
     24 C                    -0.222742
     25 H                     0.083159
     26 H                     0.080248
     27 H                     0.091819
     28 H                     0.092629
     29 H                     0.083938
     30 H                     0.080785
  ----------------------------------------
  Sum of atomic charges =     0.000000

 -----------------------------------------------------------------
                    Cartesian Multipole Moments
 -----------------------------------------------------------------
    Charge (ESU x 10^10)
                -0.0000
    Dipole Moment (Debye)
         X       0.9488      Y      -0.4462      Z       1.3340
       Tot       1.6967
    Quadrupole Moments (Debye-Ang)
        XX     -77.5228     XY       2.5774     YY     -77.2327
        XZ      -2.1282     YZ       4.1226     ZZ     -90.5186
    Octopole Moments (Debye-Ang^2)
       XXX      26.9326    XXY       7.8429    XYY       3.1525
       YYY      33.2988    XXZ       5.5525    XYZ      -0.1736
       YYZ       9.3355    XZZ       6.3927    YZZ       8.2983
       ZZZ      -7.0723
    Hexadecapole Moments (Debye-Ang^3)
      XXXX   -1998.3313   XXXY      31.3172   XXYY    -667.7548
      XYYY     -30.8123   YYYY   -1840.7802   XXXZ      -2.8652
      XXYZ      13.5048   XYYZ      -9.4996   YYYZ      13.0909
      XXZZ    -395.6434   XYZZ      -9.2028   YYZZ    -384.7589
      XZZZ       4.1237   YZZZ      -2.2686   ZZZZ    -230.1089
 -----------------------------------------------------------------
 Calculating analytic gradient of the SCF energy
 Gradient of SCF Energy
            1           2           3           4           5           6
    1  -0.0005751  -0.0000247   0.0008835   0.0016839  -0.0007000   0.0000404
    2  -0.0004662   0.0005134  -0.0009309  -0.0001097   0.0005687   0.0001043
    3  -0.0031840   0.0047611  -0.0004909  -0.0024372   0.0008994  -0.0002876
            7           8           9          10          11          12
    1  -0.0014048   0.0000138   0.0000776   0.0003910  -0.0000692  -0.0001452
    2  -0.0002656   0.0001450   0.0004801   0.0002381  -0.0001443   0.0000265
    3   0.0013098  -0.0001383   0.0001297   0.0000480  -0.0005408   0.0002161
           13          14          15          16          17          18
    1   0.0001198  -0.0000437  -0.0000916  -0.0000212  -0.0000197  -0.0000130
    2  -0.0000855  -0.0000117  -0.0000413   0.0000024  -0.0000037   0.0000113
    3  -0.0001694   0.0000453  -0.0000896  -0.0000527  -0.0000286   0.0000441
           19          20          21          22          23          24
    1   0.0000279  -0.0000622  -0.0000280   0.0000051  -0.0001998   0.0000920
    2  -0.0000401  -0.0000169   0.0000142   0.0000015  -0.0001274  -0.0000746
    3  -0.0000806  -0.0000477  -0.0000417   0.0000962   0.0000732  -0.0000623
           25          26          27          28          29          30
    1   0.0000322   0.0000323  -0.0000337  -0.0000284   0.0000286   0.0000323
    2   0.0001332   0.0000649  -0.0001278  -0.0000760   0.0001181   0.0001003
    3   0.0001550  -0.0001210   0.0000621  -0.0000293  -0.0001442   0.0001056
 Max gradient component =       4.761E-03
 RMS gradient           =       7.528E-04
 Gradient time:  CPU 17.24 s  wall 0.73 s
 Geometry Optimization Parameters
   NAtoms,    NIC,     NZ,  NCons,   NDum,   NFix, NCnnct, MaxDiis
       30     194       0       2       0       0       0       0

 Cartesian Hessian Update
 Hessian Updated using BFGS Update


** CONSTRAINED OPTIMIZATION IN DELOCALIZED INTERNAL COORDINATES **
   Searching for a Minimum

   Optimization Cycle:   5

                       Coordinates (Angstroms)
     ATOM                X               Y               Z
      1  C         0.3822079986   -0.7088854829   -0.1180687172
      2  C        -0.9569617733   -0.2453963460   -0.0272311208
      3  C         1.4835339923    0.3455795266   -0.3534029906
      4  C        -1.2403620784    1.2613543430   -0.2150879780
      5  O         2.5401455251    0.1632333797    0.5957780187
      6  O         1.4652913315    1.2608011012   -1.2099836993
      7  O        -0.5654733519    1.9835361968    0.8251881856
      8  O        -1.9551287967    1.7975506281   -1.0909786512
      9  C        -0.7523550806    3.4402992397    0.6291802292
     10  C         3.5861528906    1.1917629382    0.3854455001
     11  C         0.6730305779   -2.0985612929   -0.0242252617
     12  C        -0.4043592677   -2.9933133066    0.1653069669
     13  C        -1.7312531611   -2.5330838160    0.2515623693
     14  C        -2.0333841621   -1.1571230226    0.1476522045
     15  H        -0.3498718288    3.7702203446   -0.3503261878
     16  H         4.0436378521    1.1085840348   -0.6216517512
     17  H        -2.5477433835   -3.2540124676    0.3944617480
     18  H        -1.8226410803    3.7262953803    0.6854940022
     19  H        -0.1938926536    3.9324509829    1.4463135390
     20  H         4.3543794547    1.0066806808    1.1582613363
     21  H         3.1782051819    2.2163721173    0.5025254595
     22  H        -0.1997907996   -4.0700993947    0.2382598327
     23  C        -3.4892277330   -0.6630662669    0.2092756092
     24  C         2.1116978687   -2.6349644197   -0.1253152986
     25  H         2.6620996146   -2.1381061786   -0.9395862738
     26  H         2.1017804530   -3.7186691290   -0.3147914646
     27  H         2.6607702949   -2.4481839394    0.8131079383
     28  H        -3.8071345841   -0.2829232474   -0.7765191286
     29  H        -3.5956519243    0.1594291059    0.9348783995
     30  H        -4.1615076871   -1.4821805684    0.5036128071
   Point Group: c1    Number of degrees of freedom:    84


   Energy is   -756.807550065

              Constraints and their Current Values
                                        Value     Constraint
   Dihedral:        2   1   3   5      130.200      130.200
   Dihedral:        1   2   4   7      -62.300      -62.300
 Hessian Updated using BFGS Update

 71 Hessian modes will be used to form the next step
  Hessian Eigenvalues:
     0.024666    0.042263    0.045000    0.045000    0.045001    0.045001
     0.045002    0.045003    0.045005    0.045009    0.045033    0.045055
     0.045081    0.045871    0.092560    0.093888    0.094238    0.094409
[...]
 H         -0.004  0.004  0.000   -0.003 -0.006  0.006    0.003 -0.098  0.023
 H         -0.005 -0.002  0.006   -0.002 -0.009  0.000    0.180  0.102 -0.076
 H         -0.011  0.002  0.005   -0.012 -0.001 -0.004    0.126 -0.021  0.057
 H         -0.325  0.181  0.023   -0.491 -0.046  0.057    0.007 -0.001  0.000
 C         -0.002 -0.027  0.002   -0.030  0.008  0.004   -0.000 -0.006  0.001
 C          0.022  0.014 -0.003    0.023 -0.022 -0.003   -0.003 -0.001  0.001
 H          0.192 -0.056  0.099    0.052 -0.000  0.028    0.016 -0.014  0.008
 H         -0.238  0.096 -0.026   -0.001 -0.014  0.015   -0.006  0.008 -0.025
 H          0.150  0.057 -0.093    0.055 -0.017 -0.031    0.008  0.037 -0.005
 H          0.010 -0.180 -0.071   -0.012  0.048  0.023    0.029  0.019  0.003
 H          0.118 -0.146  0.121    0.001  0.041 -0.040    0.010  0.013 -0.019
 H         -0.179  0.191 -0.030   -0.020 -0.005 -0.012    0.013 -0.014  0.007
 TransDip  -0.062  0.096 -0.011   -0.046  0.004 -0.017   -0.198 -0.122  0.263

 Mode:                70                     71                     72
 Frequency:      1778.81                3035.80                3041.04
 Force Cnst:     21.8146                 5.6255                 5.6424
 Red. Mass:      11.7015                 1.0360                 1.0355
 IR Active:          YES                    YES                    YES
 IR Intens:      397.707                 24.731                 22.954
 Raman Active:       YES                    YES                    YES
               X      Y      Z        X      Y      Z        X      Y      Z
 C         -0.042 -0.030  0.017   -0.000  0.001 -0.000   -0.000  0.000 -0.000
 C          0.047 -0.072  0.013    0.000 -0.000  0.000    0.001  0.000 -0.000
 C          0.094  0.173 -0.247    0.000 -0.000  0.000    0.000  0.000  0.000
 C         -0.400  0.461 -0.374    0.000  0.000  0.000   -0.000  0.000 -0.000
 O         -0.001 -0.010  0.018   -0.000  0.000 -0.000   -0.000 -0.000 -0.000
 O         -0.047 -0.109  0.165   -0.000 -0.000  0.000   -0.000 -0.000  0.000
 O          0.030 -0.020  0.026   -0.000 -0.000 -0.000   -0.000 -0.000  0.000
 O          0.265 -0.275  0.254    0.000 -0.000  0.000    0.000 -0.000  0.000
 C         -0.001  0.028 -0.007   -0.000 -0.000  0.000    0.000 -0.000  0.000
 C          0.011  0.006 -0.005   -0.000  0.000  0.000   -0.000 -0.000  0.000
 C          0.009  0.015 -0.003   -0.001  0.000 -0.000    0.000 -0.000 -0.000
 C         -0.013  0.004  0.001   -0.001  0.001 -0.000   -0.000  0.000 -0.000
 C          0.016 -0.013 -0.002    0.000  0.000  0.000    0.002  0.000 -0.000
 C         -0.030  0.019 -0.003   -0.000  0.000  0.000    0.000 -0.001  0.000
 H         -0.061 -0.098 -0.069    0.001  0.001 -0.003    0.002  0.001 -0.006
 H         -0.048 -0.006 -0.038    0.000 -0.000 -0.000    0.002 -0.002 -0.005
 H         -0.014  0.042  0.000    0.000 -0.000 -0.000   -0.016 -0.006  0.003
 H         -0.105 -0.081 -0.038   -0.003  0.002  0.001   -0.006  0.004  0.001
 H         -0.002 -0.205  0.051    0.002  0.000  0.002    0.003  0.001  0.003
 H         -0.078 -0.043  0.034   -0.000  0.000 -0.000    0.002 -0.001  0.003
 H         -0.051  0.009 -0.026    0.000 -0.002  0.000   -0.000  0.006 -0.000
 H          0.012  0.002  0.000   -0.000 -0.012  0.000   -0.000  0.000  0.000
 C         -0.005 -0.008  0.003    0.000 -0.000 -0.000   -0.041  0.028  0.008
 C          0.001 -0.001 -0.000    0.044 -0.023 -0.009    0.000 -0.000 -0.000
 H         -0.016  0.009 -0.010   -0.368 -0.174  0.511   -0.003 -0.001  0.004
 H          0.011 -0.008  0.011    0.157  0.478  0.061    0.001  0.003  0.000
 H         -0.011 -0.017  0.008   -0.306 -0.035 -0.467   -0.003 -0.000 -0.004
 H          0.081  0.048 -0.001   -0.001  0.001 -0.003    0.102 -0.207  0.471
 H          0.031  0.038 -0.045    0.001  0.003  0.003   -0.063 -0.463 -0.408
 H          0.044 -0.051  0.020   -0.004 -0.003  0.001    0.439  0.345 -0.160
 TransDip  -0.287  0.367 -0.437    0.113 -0.109 -0.026   -0.142  0.037  0.044

 Mode:                73                     74                     75
 Frequency:      3050.36                3050.67                3091.72
 Force Cnst:      5.6430                 5.6447                 6.1962
 Red. Mass:       1.0293                 1.0294                 1.1002
 IR Active:          YES                    YES                    YES
 IR Intens:       15.531                 52.612                 11.212
 Raman Active:       YES                    YES                    YES
               X      Y      Z        X      Y      Z        X      Y      Z
 C         -0.000  0.000 -0.000    0.000 -0.000  0.000   -0.000 -0.000  0.000
 C          0.000  0.000  0.000    0.000  0.000  0.000    0.000 -0.000 -0.000
 C          0.001 -0.001  0.002   -0.001  0.001 -0.002   -0.000 -0.000 -0.000
 C         -0.001 -0.000 -0.001   -0.002 -0.000 -0.001    0.000  0.000 -0.000
 O         -0.002 -0.000 -0.000    0.002  0.000  0.000   -0.000 -0.000  0.000
 O          0.000  0.000 -0.001   -0.000 -0.000  0.001   -0.000 -0.000  0.000
 O          0.001  0.002  0.000    0.001  0.002  0.000   -0.000  0.000  0.000
 O          0.000 -0.000  0.000    0.000 -0.000  0.000   -0.000 -0.000  0.000
 C          0.002  0.028 -0.010    0.002  0.031 -0.011   -0.000 -0.000  0.000
 C         -0.026 -0.015  0.013    0.024  0.014 -0.012    0.000  0.000  0.000
 C          0.000  0.000 -0.000   -0.000 -0.000  0.000   -0.000  0.000 -0.001
 C          0.000  0.000 -0.000   -0.000  0.000 -0.000    0.000 -0.001 -0.000
 C          0.000  0.000 -0.000    0.000  0.000 -0.000   -0.000  0.000 -0.000
 C         -0.000  0.000  0.000   -0.000  0.000 -0.000   -0.000 -0.000  0.000
 H         -0.136 -0.069  0.405   -0.151 -0.077  0.451    0.000  0.000 -0.001
 H          0.186 -0.179 -0.401   -0.168  0.161  0.361   -0.000  0.000  0.000
 H         -0.000 -0.000  0.000   -0.001 -0.000  0.000   -0.001 -0.001  0.000
 H          0.332 -0.222 -0.085    0.370 -0.248 -0.095    0.000 -0.000 -0.000
 H         -0.221 -0.054 -0.200   -0.245 -0.060 -0.222    0.000  0.000  0.000
 H          0.172 -0.096  0.264   -0.155  0.086 -0.237   -0.001  0.000 -0.001
 H         -0.030  0.464 -0.021    0.026 -0.416  0.018    0.000 -0.003  0.000
 H         -0.000 -0.000  0.000   -0.000 -0.001  0.000   -0.000  0.007 -0.001
 C          0.000  0.000  0.000   -0.000  0.000  0.000    0.000  0.000  0.001
 C         -0.000 -0.000 -0.000    0.000  0.000  0.000    0.005  0.024 -0.088
 H         -0.002 -0.001  0.003   -0.001 -0.001  0.002   -0.411 -0.184  0.538
 H          0.002  0.005  0.001   -0.000 -0.002 -0.000   -0.046 -0.144 -0.038
 H          0.000  0.000  0.001   -0.003 -0.001 -0.004    0.399  0.049  0.560
 H          0.000 -0.000  0.000    0.001 -0.003  0.007   -0.001  0.002 -0.005
 H         -0.000 -0.001 -0.001   -0.001 -0.007 -0.006   -0.000 -0.004 -0.003
 H         -0.000 -0.000  0.000    0.005  0.004 -0.002   -0.000 -0.000  0.000
 TransDip  -0.099  0.078  0.008    0.161  0.167  0.011    0.012  0.045 -0.096

 Mode:                76                     77                     78
 Frequency:      3099.46                3108.25                3111.21
 Force Cnst:      6.2269                 6.2743                 6.2902
 Red. Mass:       1.1002                 1.1023                 1.1030
 IR Active:          YES                    YES                    YES
 IR Intens:       11.385                 17.195                 14.206
 Raman Active:       YES                    YES                    YES
               X      Y      Z        X      Y      Z        X      Y      Z
 C          0.000 -0.000 -0.000   -0.000 -0.000 -0.000    0.000 -0.000  0.000
 C          0.000 -0.000  0.000   -0.000  0.000 -0.000    0.000 -0.000 -0.000
 C         -0.000 -0.000  0.000   -0.000  0.000 -0.000   -0.000 -0.000  0.000
 C          0.000  0.000  0.000   -0.000 -0.000 -0.000    0.001 -0.000  0.000
 O          0.000  0.000  0.000    0.000 -0.000  0.000   -0.000  0.000 -0.000
 O          0.000  0.000 -0.000    0.000 -0.000  0.000   -0.000  0.000 -0.000
 O          0.000 -0.000 -0.000    0.000  0.000  0.000   -0.000 -0.000 -0.000
 O          0.000  0.000  0.000    0.000 -0.000  0.000   -0.000  0.000 -0.000
 C         -0.000  0.000  0.000    0.000 -0.000 -0.000   -0.000  0.000 -0.000
 C         -0.000  0.000  0.000    0.001 -0.001 -0.001   -0.000  0.000  0.000
 C          0.000  0.000 -0.000   -0.001 -0.000 -0.000    0.000  0.000 -0.000
 C         -0.000 -0.000  0.000    0.000  0.004 -0.000   -0.000 -0.001  0.000
 C          0.001  0.000 -0.000   -0.000 -0.000  0.000    0.004  0.002 -0.001
 C         -0.001 -0.000 -0.000    0.000  0.000 -0.000    0.000 -0.001  0.000
 H          0.001  0.000 -0.002   -0.001 -0.000  0.002   -0.000 -0.000  0.002
 H          0.000 -0.000 -0.001   -0.005  0.005  0.011    0.000 -0.000 -0.001
 H         -0.015 -0.006  0.002    0.007  0.003 -0.001   -0.044 -0.019  0.007
 H          0.004 -0.002 -0.001   -0.002  0.001  0.000    0.002 -0.001 -0.000
 H          0.000  0.000  0.000   -0.001 -0.000 -0.000    0.001  0.000  0.001
 H          0.000  0.000  0.000   -0.001  0.000 -0.002    0.000 -0.000  0.000
 H          0.000 -0.001  0.000   -0.001  0.005 -0.000    0.000 -0.002  0.000
 H          0.000  0.004 -0.000   -0.002 -0.038  0.001    0.001  0.009 -0.000
 C         -0.032 -0.039 -0.076   -0.000  0.000 -0.000   -0.039 -0.068  0.050
 C          0.000  0.000 -0.001   -0.052 -0.073 -0.023   -0.000 -0.000  0.000
 H         -0.003 -0.002  0.005    0.139  0.054 -0.213    0.001  0.000 -0.001
 H         -0.001 -0.004 -0.001    0.249  0.801  0.103    0.001  0.004  0.001
 H          0.002  0.000  0.003    0.249  0.011  0.381   -0.000 -0.000 -0.000
 H          0.116 -0.259  0.519    0.001 -0.002  0.004   -0.137  0.238 -0.545
 H          0.064  0.570  0.486    0.000  0.001  0.001    0.011  0.136  0.146
 H          0.207  0.158 -0.093   -0.000 -0.000 -0.000    0.580  0.444 -0.207
 TransDip  -0.047 -0.066 -0.072   -0.057 -0.117 -0.024   -0.088 -0.072  0.042

 Mode:                79                     80                     81
 Frequency:      3122.77                3125.98                3156.44
 Force Cnst:      6.3594                 6.3748                 6.4950
 Red. Mass:       1.1068                 1.1072                 1.1065
 IR Active:          YES                    YES                    YES
 IR Intens:       17.883                 13.654                 13.147
 Raman Active:       YES                    YES                    YES
               X      Y      Z        X      Y      Z        X      Y      Z
 C          0.000 -0.000 -0.000   -0.000 -0.000  0.000    0.000 -0.000 -0.000
 C          0.000  0.000  0.000    0.000 -0.000 -0.000    0.000 -0.000  0.000
 C         -0.000  0.000  0.000    0.000  0.000 -0.000   -0.000  0.000 -0.000
 C         -0.000 -0.000 -0.000    0.000 -0.000  0.000   -0.000  0.001 -0.000
 O         -0.000  0.000  0.000   -0.000 -0.000  0.000    0.000  0.000  0.000
 O         -0.000  0.000  0.000   -0.000 -0.000  0.000    0.000 -0.000  0.000
 O          0.000  0.000  0.000   -0.000 -0.000  0.000    0.000 -0.000  0.000
 O          0.000  0.000  0.000   -0.000  0.000  0.000    0.000 -0.000  0.000
 C          0.002 -0.001 -0.002    0.063 -0.023 -0.067   -0.068  0.005 -0.066
 C          0.026 -0.079 -0.046   -0.001  0.002  0.002   -0.000 -0.000 -0.001
 C         -0.000 -0.000  0.000    0.000  0.000  0.000   -0.000 -0.000  0.000
 C          0.000 -0.000  0.000   -0.000 -0.000  0.000    0.000  0.000 -0.000
 C         -0.000  0.000 -0.000    0.000  0.000  0.000   -0.000 -0.000  0.000
 C         -0.000 -0.000  0.000   -0.000  0.000  0.000   -0.000  0.000  0.000
 H         -0.005 -0.003  0.017   -0.202 -0.117  0.652   -0.108 -0.045  0.273
 H         -0.268  0.245  0.595    0.008 -0.008 -0.018   -0.002  0.002  0.005
 H          0.000  0.000 -0.000   -0.000 -0.000  0.000    0.002  0.001 -0.000
 H         -0.019  0.013  0.004   -0.583  0.390  0.132    0.261 -0.179 -0.082
 H         -0.002 -0.001 -0.003    0.035  0.002  0.009    0.651  0.158  0.589
 H          0.011 -0.019 -0.000   -0.002  0.001 -0.003    0.004 -0.002  0.006
 H         -0.044  0.706 -0.051    0.001 -0.019  0.001    0.000  0.002 -0.000
 H          0.000  0.001 -0.000    0.000  0.001 -0.000   -0.000 -0.001  0.000
 C         -0.000 -0.000  0.000   -0.000 -0.000 -0.000    0.000  0.000 -0.000
 C          0.001  0.001  0.000    0.000  0.000  0.000   -0.000 -0.000 -0.000
 H         -0.003 -0.001  0.005   -0.001 -0.000  0.001    0.000  0.000 -0.000
 H         -0.003 -0.009 -0.001   -0.001 -0.002 -0.000    0.000  0.000  0.000
 H         -0.003  0.000 -0.005   -0.000  0.000 -0.001    0.000 -0.000  0.000
 H         -0.000  0.000 -0.001    0.000 -0.001  0.002    0.000 -0.000  0.001
 H          0.000  0.001  0.001    0.000  0.003  0.003   -0.000 -0.001 -0.001
 H          0.001  0.001 -0.001    0.001  0.001 -0.000   -0.001 -0.001  0.001
 TransDip   0.038 -0.112 -0.067    0.071 -0.041 -0.085   -0.087 -0.017 -0.075

 Mode:                82                     83                     84
 Frequency:      3158.23                3160.77                3177.83
 Force Cnst:      6.5017                 6.3991                 6.5127
 Red. Mass:       1.1063                 1.0871                 1.0946
 IR Active:          YES                    YES                    YES
 IR Intens:       12.613                  8.194                 20.379
 Raman Active:       YES                    YES                    YES
               X      Y      Z        X      Y      Z        X      Y      Z
 C         -0.000 -0.000  0.000   -0.000  0.000 -0.000   -0.000  0.001 -0.000
 C         -0.000 -0.000  0.000   -0.001  0.000  0.000    0.001  0.000 -0.000
 C          0.001  0.001 -0.001    0.000  0.000  0.000    0.000  0.000 -0.000
 C          0.000 -0.000  0.000    0.000 -0.000  0.000   -0.000  0.000 -0.000
 O          0.000 -0.000  0.000   -0.000  0.000 -0.000   -0.000 -0.000 -0.000
 O         -0.000 -0.000  0.000   -0.000 -0.000  0.000   -0.000 -0.000  0.000
 O         -0.000  0.000  0.000    0.000  0.000  0.000   -0.000 -0.000 -0.000
 O         -0.000  0.000 -0.000   -0.000  0.000 -0.000    0.000 -0.000  0.000
 C          0.001 -0.000  0.000   -0.000 -0.000 -0.000    0.000  0.000  0.000
 C         -0.031  0.037 -0.081    0.000 -0.000  0.001    0.000 -0.000  0.000
 C         -0.000  0.000  0.000    0.002 -0.000 -0.000    0.003  0.000 -0.000
 C         -0.000 -0.001  0.000   -0.008 -0.058  0.003   -0.004 -0.064  0.003
 C          0.000  0.000 -0.000    0.054  0.028 -0.008   -0.056 -0.025  0.008
 C          0.000 -0.000 -0.000    0.001 -0.002  0.000   -0.001  0.003 -0.000
 H          0.000 -0.000  0.000   -0.000  0.000  0.000   -0.000 -0.000  0.000
 H         -0.123  0.123  0.244    0.001 -0.001 -0.002    0.000 -0.000 -0.000
 H         -0.005 -0.003  0.001   -0.641 -0.309  0.088    0.618  0.292 -0.084
 H         -0.004  0.003  0.001    0.001 -0.000 -0.000    0.000 -0.000 -0.000
 H         -0.005 -0.001 -0.005    0.002  0.000  0.001   -0.001 -0.000 -0.001
 H          0.470 -0.261  0.719   -0.005  0.003 -0.007   -0.001  0.001 -0.002
 H          0.017 -0.308 -0.001   -0.000  0.003  0.000   -0.000 -0.000  0.000
 H          0.001  0.009 -0.000    0.068  0.685 -0.037    0.065  0.714 -0.038
 C          0.000  0.000 -0.000    0.003  0.003 -0.001   -0.002 -0.002  0.001
 C          0.000  0.000  0.000   -0.001 -0.003 -0.000   -0.001 -0.002 -0.000
 H          0.000  0.000 -0.000    0.004  0.003 -0.006    0.001  0.002 -0.002
 H         -0.000 -0.000  0.000    0.008  0.031  0.004    0.006  0.024  0.003
 H         -0.000 -0.000 -0.000    0.003  0.000  0.005    0.000  0.001  0.002
 H          0.000 -0.000  0.000    0.002 -0.003  0.009   -0.000  0.001 -0.005
 H         -0.000 -0.000 -0.000   -0.001 -0.007 -0.007    0.002  0.003  0.003
 H         -0.001 -0.000  0.000   -0.034 -0.023  0.012    0.024  0.016 -0.008
 TransDip  -0.058  0.036 -0.091    0.078 -0.049 -0.006   -0.081 -0.119  0.015

 STANDARD THERMODYNAMIC QUANTITIES AT   298.15 K  AND     1.00 ATM

   This Molecule has  0 Imaginary Frequencies
   Zero point vibrational energy:      150.455 kcal/mol

   Atom    1 Element C  Has Mass   12.00000
   Atom    2 Element C  Has Mass   12.00000
   Atom    3 Element C  Has Mass   12.00000
   Atom    4 Element C  Has Mass   12.00000
   Atom    5 Element O  Has Mass   15.99491
   Atom    6 Element O  Has Mass   15.99491
   Atom    7 Element O  Has Mass   15.99491
   Atom    8 Element O  Has Mass   15.99491
   Atom    9 Element C  Has Mass   12.00000
   Atom   10 Element C  Has Mass   12.00000
   Atom   11 Element C  Has Mass   12.00000
   Atom   12 Element C  Has Mass   12.00000
   Atom   13 Element C  Has Mass   12.00000
   Atom   14 Element C  Has Mass   12.00000
   Atom   15 Element H  Has Mass    1.00783
   Atom   16 Element H  Has Mass    1.00783
   Atom   17 Element H  Has Mass    1.00783
   Atom   18 Element H  Has Mass    1.00783
   Atom   19 Element H  Has Mass    1.00783
   Atom   20 Element H  Has Mass    1.00783
   Atom   21 Element H  Has Mass    1.00783
   Atom   22 Element H  Has Mass    1.00783
   Atom   23 Element C  Has Mass   12.00000
   Atom   24 Element C  Has Mass   12.00000
   Atom   25 Element H  Has Mass    1.00783
   Atom   26 Element H  Has Mass    1.00783
   Atom   27 Element H  Has Mass    1.00783
   Atom   28 Element H  Has Mass    1.00783
   Atom   29 Element H  Has Mass    1.00783
   Atom   30 Element H  Has Mass    1.00783
   Molecular Mass:   222.089260 amu
   Principal axes and moments of inertia in amu*Bohr^2:
                             1           2           3
    Eigenvalues --     2857.71545  3195.21841  5565.52480
          X               0.99994     0.01115     0.00077
          Y              -0.01115     0.99990     0.00824
          Z              -0.00068    -0.00825     0.99997
   Rotational Symmetry Number is   1
   The Molecule is an Asymmetric Top
   Translational Enthalpy:        0.889 kcal/mol
   Rotational Enthalpy:           0.889 kcal/mol
   Vibrational Enthalpy:        159.306 kcal/mol
   gas constant (RT):             0.592 kcal/mol
   Translational Entropy:        42.096  cal/mol.K
   Rotational Entropy:           32.296  cal/mol.K
   Vibrational Entropy:          58.952  cal/mol.K

   Total Enthalpy:              161.676 kcal/mol
   Total Entropy:               133.345  cal/mol.K
Archival summary:
1\1\nid03058\FREQ\ProcedureUnspecified\BasisUnspecified\41214\junteng\WedOct421:23:012017WedOct421:23:012017\0\\#,FREQ,ProcedureUnspecified,BasisUnspecified,\\0,1\O\C,1,1.35008\O,2,1.20697,1,123.515\C,1,1.43889,2,115.886,3,-8.11111,0\H,4,1.08774,1,105.411,2,178.203,0\H,4,1.09058,1,110.598,2,58.5004,0\H,4,1.09119,1,109.838,2,-62.4883,0\C,2,1.4963,1,111.429,3,-178.895,0\C,8,1.40682,2,120.133,1,-45.8035,0\C,9,1.40441,8,120.963,2,-178.751,0\C,10,1.39574,9,117.595,8,-0.935023,0\H,11,1.08504,10,119.114,9,179.691,0\C,11,1.38885,10,121.519,9,0.155193,0\H,13,1.08491,11,119.397,10,-179.621,0\C,13,1.39588,11,121.586,10,0.880679,0\C,9,1.50059,8,119.322,2,-4.4638,0\O,16,1.20765,9,124.339,8,-58.1347,0\O,16,1.34536,9,111.872,8,123.451,0\C,18,1.4398,16,115.724,9,178.813,0\H,19,1.08759,18,105.444,16,179.763,0\H,19,1.09085,18,110.206,16,60.2683,0\H,19,1.09112,18,110.493,16,-60.4939,0\C,15,1.51022,13,119.452,11,179.223,0\H,23,1.09161,15,110.129,13,9.957,0\H,23,1.09187,15,111.044,13,-110.462,0\H,23,1.09257,15,112.007,13,130.377,0\C,10,1.51067,9,122.496,8,177.849,0\H,27,1.09147,10,110.387,9,-167.296,0\H,27,1.09261,10,111.216,9,72.4167,0\H,27,1.0932,10,111.673,9,-47.4111,0\\\@

 Total job time:  8330.48s(wall), 47113.79s(cpu) 
 Wed Oct  4 21:23:02 2017

        *************************************************************
        *                                                           *
        *  Thank you very much for using Q-Chem.  Have a nice day.  *
        *                                                           *
        *************************************************************


