nid04265 10.128.16
Q-Chem Developer Version! Running on 10.128.16.*
                  Welcome to Q-Chem
     A Quantum Leap Into The Future Of Chemistry


 Q-Chem 5.0, Q-Chem, Inc., Pleasanton, CA (2017)

 Yihan Shao,  Zhengting Gan,  E. Epifanovsky,  A. T. B. Gilbert,  M. Wormit,  
 J. Kussmann,  A. W. Lange,  A. Behn,  Jia Deng,  Xintian Feng,  D. Ghosh,  
 M. Goldey,  P. R. Horn,  L. D. Jacobson,  I. Kaliman,  T. Kus,  A. Landau,  
 Jie Liu,  E. I. Proynov,  R. M. Richard,  R. P. Steele,  E. J. Sundstrom,  
 H. L. Woodcock III,  P. M. Zimmerman,  D. Zuev,  B. Albrecht,  E. Alguire,  
 S. A. Baeppler,  Z. Benda,  Y. A. Bernard,  E. J. Berquist,  K. B. Bravaya,  
 D. Casanova,  Chun-Min Chang,  Yunqing Chen,  A. Chien,  K. D. Closser,  
 M. P. Coons,  S. Dasgupta,  M. Diedenhofen,  Hainam Do,  R. G. Edgar,  
 Po-Tung Fang,  S. Fatehi,  Qingguo Feng,  Qinghui Ge,  A. Ghysels,  
 J. Gomes,  J. Gonthier,  A. Gunina,  M. W. D. Hanson-Heine,  
 P. H. P. Harbach,  A. W. Hauser,  J. E. Herr,  E. G. Hohenstein,  
 Z. C. Holden,  Kerwin Hui,  T.-C. Jagau,  Hyunjun Ji,  B. Kaduk,  
 K. Khistyaev,  Jaehoon Kim,  P. Klunzinger,  K. Koh,  D. Kosenkov,  
 T. Kowalczyk,  C. M. Krauter,  A. Kunitsa,  Ka Un Lao,  A. Laurent,  
 K. V. Lawler,  Joonho Lee,  D. Lefrancois,  S. Lehtola,  D. S. Levine,  
 Yi-Pei Li,  You-Sheng Lin,  Fenglai Liu,  E. Livshits,  A. Luenser,  
 P. Manohar,  E. Mansoor,  S. F. Manzer,  Shan-Ping Mao,  Yuezhi Mao,  
 N. Mardirossian,  A. V. Marenich,  L. A. Martinez-Martinez,  S. A. Maurer,  
 N. J. Mayhall,  S. C. McKenzie,  J.-M. Mewes,  A. F. Morrison,  K. Nanda,  
 T. S. Nguyen-Beck,  R. Olivares-Amaya,  J. A. Parkhill,  T. M. Perrine,  
 F. Plasser,  S. Prager,  A. Prociuk,  D. R. Rehn,  F. Rob,  M. Schneider,  
 N. Sergueev,  S. M. Sharada,  S. Sharma,  D. W. Small,  T. Stauch,  
 T. Stein,  Yu-Chuan Su,  A. J. W. Thom,  T. Tsuchimochi,  L. Vogt,  
 O. Vydrov,  M. A. Watson,  J. Wenzel,  M. de Wergifosse,  T. A. Wesolowski,  
 A. White,  J. Witte,  A. Yamada,  Jun Yang,  K. Yao,  S. Yeganeh,  
 S. R. Yost,  Zhi-Qiang You,  A. Zech,  Igor Ying Zhang,  Xing Zhang,  
 Yan Zhao,  Ying Zhu,  B. R. Brooks,  G. K. L. Chan,  C. J. Cramer,  
 M. S. Gordon,  W. J. Hehre,  A. Klamt,  M. W. Schmidt,  C. D. Sherrill,  
 D. G. Truhlar,  A. Aspuru-Guzik,  R. Baer,  A. T. Bell,  N. A. Besley,  
 Jeng-Da Chai,  A. Dreuw,  B. D. Dunietz,  T. R. Furlani,  Chao-Ping Hsu,  
 Yousung Jung,  Jing Kong,  D. S. Lambrecht,  WanZhen Liang,  C. Ochsenfeld,  
 V. A. Rassolov,  L. V. Slipchenko,  J. E. Subotnik,  T. Van Voorhis,  
 J. M. Herbert,  A. I. Krylov,  P. M. W. Gill,  M. Head-Gordon

 Contributors to earlier versions of Q-Chem not listed above: 
 R. D. Adamson,  B. Austin,  J. Baker,  G. J. O. Beran,  K. Brandhorst,  
 S. T. Brown,  E. F. C. Byrd,  A. K. Chakraborty,  C.-L. Cheng,  
 Siu Hung Chien,  D. M. Chipman,  D. L. Crittenden,  H. Dachsel,  
 R. A. DiStasio Jr.,  R. J. Doerksen,  A. D. Dutoi,  L. Fusti-Molnar,  
 W. A. Goddard III,  A. Golubeva-Zadorozhnaya,  S. R. Gwaltney,  G. Hawkins,  
 A. Heyden,  S. Hirata,  G. Kedziora,  F. J. Keil,  C. Kelley,  Jihan Kim,  
 R. A. King,  R. Z. Khaliullin,  P. P. Korambath,  W. Kurlancheek,  
 A. M. Lee,  M. S. Lee,  S. V. Levchenko,  Ching Yeh Lin,  D. Liotard,  
 R. C. Lochan,  I. Lotan,  P. E. Maslen,  N. Nair,  D. P. O'Neill,  
 D. Neuhauser,  E. Neuscamman,  C. M. Oana,  R. Olson,  B. Peters,  
 R. Peverati,  P. A. Pieniazek,  Y. M. Rhee,  J. Ritchie,  M. A. Rohrdanz,  
 E. Rosta,  N. J. Russ,  H. F. Schaefer III,  N. E. Schultz,  N. Shenvi,  
 A. C. Simmonett,  A. Sodt,  D. Stuck,  K. S. Thanthiriwatte,  V. Vanovschi,  
 Tao Wang,  A. Warshel,  C. F. Williams,  Q. Wu,  X. Xu,  W. Zhang

 Please cite Q-Chem as follows:
 Y. Shao et al., Mol. Phys. 113, 184-215 (2015)
 DOI: 10.1080/00268976.2014.952696

 Q-Chem 5.0.0 for Intel X86 EM64T Linux

 Parts of Q-Chem use Armadillo 5.200.1 (Boston Tea Smuggler).
 http://arma.sourceforge.net/

 Q-Chem begins on Wed Oct  4 17:59:30 2017  

Host: nid04265
0

     Scratch files written to /global/cscratch1/sd/junteng/scratch/15/opt_1111+-.save//

Checking the input file for inconsistencies... 	...done.

--------------------------------------------------------------
User input:
--------------------------------------------------------------
$molecule
0  1
C    0.579  -1.978   0.499
C   -0.345  -1.987   1.740
C    0.941  -0.610  -0.048
C   -0.562  -0.630   2.386
O    2.215  -0.645  -0.542
O    0.210   0.366  -0.087
O    0.648  -0.161   2.826
O   -1.631  -0.088   2.617
C    0.572   1.116   3.461
C    2.652   0.593  -1.106
C   -0.242  -2.782  -0.524
C   -0.292  -4.259  -0.098
C   -1.265  -4.223   1.081
C   -1.594  -2.718   1.188
O   -1.591  -2.362  -0.216
H    1.516  -2.494   0.747
H    0.090  -2.606   2.538
H   -0.024   1.052   4.377
H    2.622   1.389  -0.356
H   -0.708  -4.895  -0.888
H    0.690  -4.657   0.174
H   -2.154  -4.811   0.825
H   -0.840  -4.639   1.999
H    1.587   1.422   3.729
H    0.156   1.863   2.777
H    2.039   0.852  -1.975
H    3.687   0.467  -1.436
C   -2.945  -2.478   1.828
H   -3.699  -3.155   1.411
H   -2.911  -2.635   2.910
H   -3.320  -1.473   1.614
C    0.085  -2.603  -1.994
H   -0.579  -3.214  -2.616
H   -0.074  -1.570  -2.320
H    1.119  -2.890  -2.210
$end


$opt
CONSTRAINT
tors    2    1    3    5    152.3
tors    1    2    4    7    -69.6
ENDCONSTRAINT
$end

$rem
JOBTYPE                   OPT
METHOD                    B3LYP
DFT_D                     D3_OP
BASIS                     STO-3G
GEOM_OPT_MAX_CYCLES       500
SYMMETRY                  False
THRESH                    12
SCF_CONVERGENCE           8
MAX_SUB_FILE_NUM          128
MEM_STATIC                400
MEM_TOTAL                 4000
$end

--------------------------------------------------------------
 Adding empirical dispersion correction 
 ----------------------------------------------------------------
 Doing -D3(op) with
 s6 =   1.00000
 s8 =   0.78311
 a1 =   0.30000
 a2 =   4.25000
 n  =  10.00000
 -D3 energy without 3body term =     -0.0411703493 hartrees
 ----------------------------------------------------------------
             Standard Nuclear Orientation (Angstroms)
    I     Atom           X                Y                Z
 ----------------------------------------------------------------
    1      C       0.0405485511     0.6575719166     0.6279970458
    2      C       0.4485580788    -0.8348816956     0.6210370951
    3      C      -1.2236982091     1.0027230799    -0.1363509142
    4      C      -0.5983616521    -1.7818052351     0.0614400192
    5      O      -1.8727982861     2.0215992616     0.5030999569
    6      O      -1.5961984503     0.4914952944    -1.1795899671
    7      O      -1.7171432315    -1.7052423029     0.8489213808
    8      O      -0.4521119641    -2.5882506495    -0.8430724586
    9      C      -2.7784272181    -2.5607562126     0.4228905721
   10      C      -3.0723596472     2.4436939349    -0.1485116050
   11      C       1.2695511140     1.3340043222    -0.0036499292
   12      C       2.4565832498     1.2598809157     0.9715246343
   13      C       2.8623527980    -0.2112841170     0.8761804153
   14      C       1.8144140588    -0.7767714946    -0.1070608698
   15      O       1.6672726917     0.3585939812    -0.9943351534
   16      H      -0.1006442077     0.9849117819     1.6665740614
   17      H       0.6216642017    -1.1903109685     1.6471434747
   18      H      -2.4797608129    -3.6105469360     0.5071865717
   19      H      -3.7802435395     1.6131239838    -0.2264214976
   20      H       3.2933331402     1.8856898890     0.6400661152
   21      H       2.1911460006     1.5619689502     1.9888730929
   22      H       3.8755559769    -0.2734341450     0.4624683269
   23      H       2.8636012425    -0.7181800102     1.8454378604
   24      H      -3.6353600821    -2.3906923623     1.0804841802
   25      H      -3.0783059100    -2.3222438675    -0.6028314328
   26      H      -2.8433670294     2.8555358485    -1.1364182905
   27      H      -3.5276066382     3.2308286629     0.4590820891
   28      C       2.3256610058    -2.0007489527    -0.8370654871
   29      H       3.3506780532    -1.8430305545    -1.1909001368
   30      H       2.3227728949    -2.8841446677    -0.1919820277
   31      H       1.7440132593    -2.2037087567    -1.7409123862
   32      C       1.0880301320     2.7130571330    -0.6079126850
   33      H       2.0289460417     3.0747186755    -1.0380047444
   34      H       0.3716132743     2.6999266795    -1.4356931372
   35      H       0.7526844869     3.4359215512     0.1425480610
 ----------------------------------------------------------------
 Molecular Point Group                 C1    NOp =  1
 Largest Abelian Subgroup              C1    NOp =  1
 Nuclear Repulsion Energy =  1395.7531872986 hartrees
 There are       65 alpha and       65 beta electrons
 Requested basis set is STO-3G
 There are 52 shells and 103 basis functions

 Total QAlloc Memory Limit   4000 MB
 Mega-Array Size       392 MB
 MEM_STATIC part       400 MB
 A cutoff of  1.0D-12 yielded   1204 shell pairs
 There are      5194 function pairs
 
 -------------------------------------------------------
 OpenMP Integral Computing Module                       
 Release: version 1.0, May 2013, Q-Chem Inc. Pittsburgh 
 -------------------------------------------------------
 Integral Job Info:
 Integral job number is                      11
 Integral operator is                         1
 short-range coefficients                     0
 long-range coefficients              100000000
 Omega coefficients                           0
 if combine SR and LR in K                    0
 Integral screening is                        0
 Integral computing path is                   2
 max size of driver memory is            800000
 size of driver memory is                 45569
 size of scratch memory is               945100
 max col of scratch BK array                289
 max len of scratch array in speh3           22
 max len of scratch index in speh4            8
 max int batch size is                      520
 min int batch size is                       52
 fixed nKL is                                52
 max L of basis functions is                  1
 order of int derivative is                   0
 number of shells is                         52
 number of basis is                         103
 number of cartesian basis is               103
 number of contracted shell pairs          1204
 number of primitive shell pairs           6556
 maxK2 (contraction) of shell pair            9
 max number of K2 of shell pair               1
 max number of CS2 of shell pair            185
 max number of PS2 of shell pair            828
 mem total for path MDJ                   33898
 -------------------------------------------------------
 Smallest overlap matrix eigenvalue = 1.95E-01

 Scale SEOQF with 1.000000e-01/1.000000e-01/1.000000e-01

 Standard Electronic Orientation quadrupole field applied
 Nucleus-field energy     =     0.0000000384 hartrees
 Guess from superposition of atomic densities
 Warning:  Energy on first SCF cycle will be non-variational
 A restricted hybrid HF-DFT SCF calculation will be
 performed using Pulay DIIS extrapolation
 Exchange:     0.2000 Hartree-Fock + 0.0800 Slater + 0.7200 B88
 Correlation:  0.1900 VWN1RPA + 0.8100 LYP
 Using SG-1 standard quadrature grid
 Dispersion:   Grimme D3
 SCF converges when DIIS error is below 1.0E-08
 -------------------------------------------------------
 OpenMP Integral computing Module                
 Release: version 1.0, May 2013, Q-Chem Inc. Pittsburgh 
 -------------------------------------------------------
 -------------------------------------------------------
 OpenMP BLAS3 based DFT computing Module                
 Release: version 1.0, May 2013, Q-Chem Inc. Pittsburgh 
 -------------------------------------------------------
 ---------------------------------------
  Cycle       Energy         DIIS Error
 ---------------------------------------
    1    -832.4613427662      1.05E-01
    2    -833.1370762580      1.27E-02
    3    -832.1370895692      3.08E-02
    4    -833.3782765538      4.55E-03
    5    -833.4066960607      1.46E-03
    6    -833.4098473704      2.71E-04
    7    -833.4099544728      7.62E-05
    8    -833.4099606041      4.17E-05
    9    -833.4099632398      4.63E-06
   10    -833.4099632746      1.22E-06
   11    -833.4099632769      3.03E-07
   12    -833.4099632770      8.71E-08
   13    -833.4099632770      1.56E-08
   14    -833.4099632771      3.41E-09 Convergence criterion met
 ---------------------------------------
 SCF time:  CPU 139.26 s  wall 7.02 s
 SCF   energy in the final basis set = -833.4099632771
 Total energy in the final basis set = -833.4099632771
 
 --------------------------------------------------------------
 
                    Orbital Energies (a.u.)
 --------------------------------------------------------------
 
 Alpha MOs
 -- Occupied --
-18.942 -18.934 -18.865 -18.864 -18.861 -10.107 -10.103 -10.074
-10.068 -10.064 -10.060 -10.030 -10.029 -10.013 -10.007 -10.005
-10.002  -1.042  -1.034  -0.985  -0.951  -0.945  -0.773  -0.753
 -0.733  -0.690  -0.680  -0.671  -0.624  -0.593  -0.545  -0.520
 -0.491  -0.482  -0.466  -0.447  -0.439  -0.429  -0.428  -0.422
 -0.411  -0.391  -0.387  -0.379  -0.371  -0.369  -0.364  -0.345
 -0.341  -0.334  -0.309  -0.305  -0.304  -0.292  -0.287  -0.281
 -0.271  -0.247  -0.241  -0.214  -0.181  -0.175  -0.151  -0.141
 -0.130
 -- Virtual --
  0.111   0.129   0.243   0.280   0.295   0.311   0.331   0.354
  0.372   0.379   0.388   0.400   0.403   0.413   0.419   0.432
  0.439   0.444   0.449   0.451   0.456   0.457   0.463   0.467
  0.475   0.480   0.487   0.492   0.498   0.506   0.510   0.513
  0.537   0.546   0.583   0.586   0.707   0.709
 --------------------------------------------------------------
 
          Ground-State Mulliken Net Atomic Charges

     Atom                 Charge (a.u.)
  ----------------------------------------
      1 C                    -0.084595
      2 C                    -0.084928
      3 C                     0.236932
      4 C                     0.238677
      5 O                    -0.187608
      6 O                    -0.231157
      7 O                    -0.194162
      8 O                    -0.225991
      9 C                    -0.126414
     10 C                    -0.126312
     11 C                     0.111091
     12 C                    -0.148495
     13 C                    -0.147098
     14 C                     0.111557
     15 O                    -0.214092
     16 H                     0.087026
     17 H                     0.085427
     18 H                     0.091170
     19 H                     0.093535
     20 H                     0.075293
     21 H                     0.069960
     22 H                     0.075299
     23 H                     0.068530
     24 H                     0.092479
     25 H                     0.096380
     26 H                     0.092817
     27 H                     0.095226
     28 C                    -0.230291
     29 H                     0.078853
     30 H                     0.081177
     31 H                     0.098540
     32 C                    -0.231645
     33 H                     0.084746
     34 H                     0.083765
     35 H                     0.084309
  ----------------------------------------
  Sum of atomic charges =    -0.000000

 -----------------------------------------------------------------
                    Cartesian Multipole Moments
 -----------------------------------------------------------------
    Charge (ESU x 10^10)
                 0.0000
    Dipole Moment (Debye)
         X      -0.8782      Y       1.1630      Z       2.3527
       Tot       2.7675
    Quadrupole Moments (Debye-Ang)
        XX     -83.8071     XY      -0.7113     YY     -88.8934
        XZ       0.9767     YZ      -3.9015     ZZ     -96.9292
    Octopole Moments (Debye-Ang^2)
       XXX     -46.3966    XXY      -1.7284    XYY     -21.3534
       YYY       5.1219    XXZ      -0.4018    XYZ       3.8207
       YYZ       2.3429    XZZ      -3.9993    YZZ      -0.3880
       ZZZ      -3.3241
    Hexadecapole Moments (Debye-Ang^3)
      XXXX   -2091.2066   XXXY      -6.0688   XXYY    -600.9185
      XYYY      -2.1704   YYYY   -1803.7757   XXXZ     -28.9029
      XXYZ      -4.3762   XYYZ      -7.7605   YYYZ     -36.1812
      XXZZ    -448.9289   XYZZ      -3.9821   YYZZ    -373.8865
      XZZZ      -5.3102   YZZZ       4.7161   ZZZZ    -389.6427
 -----------------------------------------------------------------
 Calculating analytic gradient of the SCF energy
 Gradient of SCF Energy
            1           2           3           4           5           6
    1   0.0068753  -0.0046877  -0.0166998  -0.0197001  -0.0083837   0.0221746
    2  -0.0061405   0.0027730   0.0136587  -0.0050542  -0.0333299   0.0277086
    3  -0.0439619  -0.0259477  -0.0049261   0.0059897  -0.0526228   0.0536548
            7           8           9          10          11          12
    1   0.0189254  -0.0015472   0.0137487   0.0155365  -0.0147881  -0.0140183
    2  -0.0354658   0.0374925   0.0122788  -0.0053058  -0.0088645  -0.0163340
    3  -0.0479698   0.0469183   0.0073292   0.0104380   0.0044710  -0.0276032
           13          14          15          16          17          18
    1  -0.0188788  -0.0134132   0.0002181   0.0010425   0.0008687  -0.0002796
    2   0.0098466   0.0013371  -0.0017583  -0.0047971  -0.0026952   0.0134481
    3  -0.0239240   0.0041002   0.0591838  -0.0036425  -0.0066526   0.0045960
           19          20          21          22          23          24
    1   0.0096437   0.0015668   0.0018289  -0.0016174   0.0000789   0.0064180
    2   0.0080000  -0.0065480  -0.0026222   0.0062579   0.0036352  -0.0035888
    3   0.0068064   0.0026614  -0.0056205   0.0037838  -0.0055836  -0.0080883
           25          26          27          28          29          30
    1   0.0035522   0.0029766   0.0019587  -0.0076661  -0.0055637   0.0022017
    2   0.0031584  -0.0020146  -0.0071906   0.0172553  -0.0035201   0.0034711
    3   0.0127123   0.0138624  -0.0075342   0.0224771  -0.0038969  -0.0029576
           31          32          33          34          35
    1   0.0094985   0.0042312  -0.0054129   0.0069380   0.0023733
    2   0.0036308  -0.0187618   0.0004390   0.0011666  -0.0015662
    3  -0.0003602   0.0173100  -0.0021302   0.0011114  -0.0039838
 Max gradient component =       5.918E-02
 RMS gradient           =       1.675E-02
 Gradient time:  CPU 26.87 s  wall 1.20 s
 Geometry Optimization Parameters
   NAtoms,    NIC,     NZ,  NCons,   NDum,   NFix, NCnnct, MaxDiis
       35     275       0       2       0       0       0       0


** CONSTRAINED OPTIMIZATION IN DELOCALIZED INTERNAL COORDINATES **
   Searching for a Minimum

   Optimization Cycle:   1

                       Coordinates (Angstroms)
     ATOM                X               Y               Z
      1  C         0.0405485511    0.6575719166    0.6279970458
      2  C         0.4485580788   -0.8348816956    0.6210370951
      3  C        -1.2236982091    1.0027230799   -0.1363509142
      4  C        -0.5983616521   -1.7818052351    0.0614400192
      5  O        -1.8727982861    2.0215992616    0.5030999569
      6  O        -1.5961984503    0.4914952944   -1.1795899671
      7  O        -1.7171432315   -1.7052423029    0.8489213808
      8  O        -0.4521119641   -2.5882506495   -0.8430724586
      9  C        -2.7784272181   -2.5607562126    0.4228905721
     10  C        -3.0723596472    2.4436939349   -0.1485116050
     11  C         1.2695511140    1.3340043222   -0.0036499292
     12  C         2.4565832498    1.2598809157    0.9715246343
     13  C         2.8623527980   -0.2112841170    0.8761804153
     14  C         1.8144140588   -0.7767714946   -0.1070608698
     15  O         1.6672726917    0.3585939812   -0.9943351534
     16  H        -0.1006442077    0.9849117819    1.6665740614
     17  H         0.6216642017   -1.1903109685    1.6471434747
     18  H        -2.4797608129   -3.6105469360    0.5071865717
     19  H        -3.7802435395    1.6131239838   -0.2264214976
     20  H         3.2933331402    1.8856898890    0.6400661152
     21  H         2.1911460006    1.5619689502    1.9888730929
     22  H         3.8755559769   -0.2734341450    0.4624683269
     23  H         2.8636012425   -0.7181800102    1.8454378604
     24  H        -3.6353600821   -2.3906923623    1.0804841802
     25  H        -3.0783059100   -2.3222438675   -0.6028314328
     26  H        -2.8433670294    2.8555358485   -1.1364182905
     27  H        -3.5276066382    3.2308286629    0.4590820891
     28  C         2.3256610058   -2.0007489527   -0.8370654871
     29  H         3.3506780532   -1.8430305545   -1.1909001368
     30  H         2.3227728949   -2.8841446677   -0.1919820277
     31  H         1.7440132593   -2.2037087567   -1.7409123862
     32  C         1.0880301320    2.7130571330   -0.6079126850
     33  H         2.0289460417    3.0747186755   -1.0380047444
     34  H         0.3716132743    2.6999266795   -1.4356931372
     35  H         0.7526844869    3.4359215512    0.1425480610
   Point Group: c1    Number of degrees of freedom:    99


   Energy is   -833.409963277

              Constraints and their Current Values
                                        Value     Constraint
   Dihedral:        2   1   3   5      145.794      152.300
   Dihedral:        1   2   4   7      -61.913      -69.600

 Attempting to Generate Delocalized Internal Coordinates

   Using Lagrange Multiplier Algorithm


101 Hessian modes will be used to form the next step
  Hessian Eigenvalues:
    -0.977753   -0.977753    0.045000    0.045000    0.045000    0.045000
     0.045000    0.045000    0.045023    0.045263    0.045502    0.048606
     0.060298    0.061777    0.067925    0.070278    0.071449    0.071695
     0.075522    0.076606    0.078244    0.080811    0.081377    0.081808
     0.083396    0.083502    0.083514    0.083675    0.084645    0.090017
     0.091538    0.091907    0.106339    0.109001    0.113820    0.113949
     0.116299    0.116905    0.116996    0.126894    0.131265    0.139894
     0.144501    0.160000    0.160000    0.160000    0.160000    0.160000
     0.160000    0.160000    0.160000    0.160000    0.160000    0.160000
     0.160000    0.165730    0.185925    0.241736    0.248635    0.249881
     0.250000    0.250000    0.250000    0.250000    0.250633    0.260748
     0.267050    0.282050    0.285547    0.305111    0.306449    0.307030
     0.309452    0.327325    0.337229    0.338979    0.340712    0.341060
     0.341086    0.341343    0.341531    0.342465    0.342607    0.342751
     0.342848    0.342936    0.343451    0.343609    0.343704    0.343747
     0.343768    0.343978    0.344143    0.411501    0.412503    0.509233
     0.515826    0.951140    0.953727    1.022753    1.022753

 Minimum Search - Taking P-RFO Step
 Searching for Lamda that Maximizes Along the Constraint modes Only
 Value Taken    Lamda =   0.01658015
 Searching for Lamda that Minimizes Along All other modes
 Value Taken    Lamda =  -0.07628614
 Calculated Step too Large.  Step scaled by  0.689660
 Step Taken.  Stepsize is  0.300000

                             Maximum     Tolerance    Cnvgd?
         Gradient            0.134155       0.000300      NO
         Displacement        0.096716       0.001200      NO
         Energy change     *********       0.000001      NO


 New Cartesian Coordinates Obtained by Inverse Iteration

 Displacement from previous Coordinates is:  0.883156
 Adding empirical dispersion correction 
 ----------------------------------------------------------------
 Doing -D3(op) with
 s6 =   1.00000
 s8 =   0.78311
 a1 =   0.30000
 a2 =   4.25000
 n  =  10.00000
 -D3 energy without 3body term =     -0.0407153315 hartrees
 ----------------------------------------------------------------
             Standard Nuclear Orientation (Angstroms)
    I     Atom           X                Y                Z
 ----------------------------------------------------------------
    1      C       0.0391511693     0.6757275719     0.6802953673
    2      C       0.4539599647    -0.8424070689     0.6572129277
    3      C      -1.2524534683     1.0058119587    -0.1063560574
    4      C      -0.6174054968    -1.7866936712     0.0462383576
    5      O      -1.8802101671     2.1025493570     0.4959508248
    6      O      -1.6415607712     0.4602373966    -1.1530090933
    7      O      -1.7222428987    -1.7865511836     0.9116213658
    8      O      -0.4954583821    -2.5651014331    -0.9136263275
    9      C      -2.7882839352    -2.6669871441     0.4545378235
   10      C      -3.0822000323     2.5194461781    -0.2147848828
   11      C       1.2938095531     1.3559591193     0.0128519619
   12      C       2.4999462687     1.2787823684     1.0147928024
   13      C       2.9052815565    -0.2211677354     0.9042847415
   14      C       1.8344473313    -0.7732367266    -0.1099029011
   15      O       1.6833551242     0.3775123766    -1.0085351653
   16      H      -0.0925945908     1.0273933391     1.7168238329
   17      H       0.6464057438    -1.2213785131     1.6763547627
   18      H      -2.4645541508    -3.7241894552     0.4449376537
   19      H      -3.8248915483     1.7026675313    -0.2676405288
   20      H       3.3310766835     1.9161750200     0.6815910071
   21      H       2.2312564492     1.5823663017     2.0368332770
   22      H       3.9165250850    -0.2993978086     0.4810241258
   23      H       2.9039110238    -0.7453451087     1.8708701770
   24      H      -3.6237968301    -2.5617064455     1.1661678350
   25      H      -3.1451925378    -2.3818882742    -0.5522650724
   26      H      -2.8464054918     2.8696020384    -1.2365634568
   27      H      -3.5199861351     3.3573542808     0.3523515046
   28      C       2.3154430626    -2.0126063908    -0.8821141301
   29      H       3.3417610033    -1.8568382084    -1.2450137076
   30      H       2.3054650567    -2.9064631493    -0.2448415740
   31      H       1.6969849667    -2.1930707570    -1.7718917509
   32      C       1.0898601583     2.7470936702    -0.6113709483
   33      H       2.0314280533     3.1081702716    -1.0486310481
   34      H       0.3560823488     2.7166954099    -1.4296654004
   35      H       0.7536792076     3.4706978174     0.1437139268
 ----------------------------------------------------------------
 Molecular Point Group                 C1    NOp =  1
 Largest Abelian Subgroup              C1    NOp =  1
 Nuclear Repulsion Energy =  1374.4421723080 hartrees
 There are       65 alpha and       65 beta electrons
 Applying Cartesian multipole field
    Component          Value
    ---------          -----
     (2,0,0)        1.00000E-11
     (0,2,0)        2.00000E-11
     (0,0,2)       -3.00000E-11
 Nucleus-field energy     =     0.0000000393 hartrees
 Requested basis set is STO-3G
 There are 52 shells and 103 basis functions
 A cutoff of  1.0D-12 yielded   1200 shell pairs
 There are      5181 function pairs
 Smallest overlap matrix eigenvalue = 2.07E-01
 Guess MOs from SCF MO coefficient file
 Reading MOs from coefficient file
 Reading MOs from coefficient file
 A restricted hybrid HF-DFT SCF calculation will be
 performed using Pulay DIIS extrapolation
 Exchange:     0.2000 Hartree-Fock + 0.0800 Slater + 0.7200 B88
 Correlation:  0.1900 VWN1RPA + 0.8100 LYP
 Using SG-1 standard quadrature grid
 Dispersion:   Grimme D3
 SCF converges when DIIS error is below 1.0E-08
 Geometry optimization detected.  Setting ReadMinima to 0
 Setting SaveMinima to 0
 -------------------------------------------------------
 OpenMP Integral computing Module                
 Release: version 1.0, May 2013, Q-Chem Inc. Pittsburgh 
 -------------------------------------------------------
 -------------------------------------------------------
 OpenMP BLAS3 based DFT computing Module                
 Release: version 1.0, May 2013, Q-Chem Inc. Pittsburgh 
 -------------------------------------------------------
 ---------------------------------------
  Cycle       Energy         DIIS Error
 ---------------------------------------
    1    -833.2753529099      5.30E-03
    2    -833.4338217072      1.81E-03
    3    -833.4269849110      2.84E-03
    4    -833.4383370058      5.99E-04
    5    -833.4388961939      1.07E-04
    6    -833.4389145195      2.67E-05
    7    -833.4389149098      2.32E-05
    8    -833.4389157198      4.50E-06
    9    -833.4389157558      7.75E-07
   10    -833.4389157568      3.62E-07
   11    -833.4389157570      6.55E-08
   12    -833.4389157571      2.74E-08
   13    -833.4389157571      4.35E-09 Convergence criterion met
 ---------------------------------------
 SCF time:  CPU 120.46 s  wall 6.23 s
 SCF   energy in the final basis set = -833.4389157571
 Total energy in the final basis set = -833.4389157571
 
 --------------------------------------------------------------
 
                    Orbital Energies (a.u.)
 --------------------------------------------------------------
 
 Alpha MOs
 -- Occupied --
-18.940 -18.929 -18.869 -18.868 -18.863 -10.101 -10.096 -10.070
-10.063 -10.063 -10.058 -10.032 -10.030 -10.013 -10.010 -10.008
-10.003  -1.023  -1.014  -0.971  -0.940  -0.933  -0.762  -0.742
 -0.722  -0.680  -0.675  -0.661  -0.619  -0.589  -0.536  -0.515
 -0.484  -0.475  -0.456  -0.438  -0.429  -0.420  -0.420  -0.411
 -0.403  -0.385  -0.383  -0.378  -0.368  -0.364  -0.359  -0.341
 -0.338  -0.331  -0.307  -0.300  -0.296  -0.291  -0.287  -0.277
 -0.266  -0.249  -0.242  -0.219  -0.179  -0.171  -0.151  -0.141
 -0.133
 -- Virtual --
  0.102   0.119   0.238   0.263   0.279   0.296   0.316   0.338
  0.355   0.359   0.372   0.379   0.391   0.398   0.411   0.416
  0.426   0.428   0.431   0.433   0.439   0.442   0.445   0.450
  0.453   0.466   0.472   0.479   0.486   0.487   0.494   0.500
  0.520   0.525   0.559   0.565   0.669   0.672
 --------------------------------------------------------------
 
          Ground-State Mulliken Net Atomic Charges

     Atom                 Charge (a.u.)
  ----------------------------------------
      1 C                    -0.081273
      2 C                    -0.081545
      3 C                     0.220467
      4 C                     0.223095
      5 O                    -0.177622
      6 O                    -0.219528
      7 O                    -0.184568
      8 O                    -0.216624
      9 C                    -0.125546
     10 C                    -0.125372
     11 C                     0.108232
     12 C                    -0.146883
     13 C                    -0.145915
     14 C                     0.108332
     15 O                    -0.204522
     16 H                     0.085754
     17 H                     0.084210
     18 H                     0.088045
     19 H                     0.090776
     20 H                     0.074564
     21 H                     0.069958
     22 H                     0.074146
     23 H                     0.068367
     24 H                     0.089154
     25 H                     0.092743
     26 H                     0.090019
     27 H                     0.092248
     28 C                    -0.227980
     29 H                     0.077857
     30 H                     0.079480
     31 H                     0.098657
     32 C                    -0.228712
     33 H                     0.083553
     34 H                     0.083275
     35 H                     0.083158
  ----------------------------------------
  Sum of atomic charges =    -0.000000

 -----------------------------------------------------------------
                    Cartesian Multipole Moments
 -----------------------------------------------------------------
    Charge (ESU x 10^10)
                -0.0000
    Dipole Moment (Debye)
         X      -0.7017      Y       1.1476      Z       2.2559
       Tot       2.6265
    Quadrupole Moments (Debye-Ang)
        XX     -83.8893     XY      -0.8828     YY     -88.4474
        XZ       1.3514     YZ      -3.8487     ZZ     -96.7801
    Octopole Moments (Debye-Ang^2)
       XXX     -45.7204    XXY      -1.7354    XYY     -21.6416
       YYY       2.2381    XXZ      -1.2616    XYZ       4.6406
       YYZ       1.0773    XZZ      -3.6908    YZZ       0.4391
       ZZZ      -4.6550
    Hexadecapole Moments (Debye-Ang^3)
      XXXX   -2124.8269   XXXY     -12.5784   XXYY    -613.0651
      XYYY      -6.2887   YYYY   -1860.9960   XXXZ     -30.7730
      XXYZ      -6.1324   XYYZ      -7.7473   YYYZ     -32.7311
      XXZZ    -457.1409   XYZZ      -6.7056   YYZZ    -390.1548
      XZZZ      -9.4881   YZZZ       6.1914   ZZZZ    -409.2533
 -----------------------------------------------------------------
 Calculating analytic gradient of the SCF energy
 Gradient of SCF Energy
            1           2           3           4           5           6
    1   0.0019692  -0.0031757  -0.0086072  -0.0143865  -0.0033006   0.0085575
    2  -0.0010501  -0.0011153   0.0099409   0.0083376  -0.0158363   0.0101057
    3  -0.0213201  -0.0059985   0.0082908   0.0066626  -0.0241997   0.0126333
            7           8           9          10          11          12
    1   0.0104182   0.0025148   0.0072548   0.0086602  -0.0093315  -0.0048206
    2  -0.0169932   0.0062718   0.0067642  -0.0020345  -0.0042784  -0.0028480
    3  -0.0228728   0.0158079   0.0051718   0.0066741   0.0029216  -0.0115916
           13          14          15          16          17          18
    1  -0.0056689  -0.0092334   0.0037055   0.0004849   0.0032365  -0.0006698
    2   0.0020776  -0.0003996  -0.0006335  -0.0017277  -0.0030984   0.0033993
    3  -0.0104508   0.0006049   0.0237518  -0.0009969  -0.0028436   0.0026163
           19          20          21          22          23          24
    1   0.0021503   0.0013809   0.0019842  -0.0004741   0.0017340   0.0008672
    2   0.0026273  -0.0034679   0.0001125   0.0034045   0.0010742  -0.0016898
    3   0.0027435   0.0021998  -0.0015485   0.0025764  -0.0016318  -0.0032299
           25          26          27          28          29          30
    1   0.0001993   0.0007049  -0.0006174  -0.0044489  -0.0022537   0.0013534
    2   0.0013170   0.0008314  -0.0020687   0.0064502  -0.0016977   0.0010249
    3   0.0039648   0.0042327  -0.0029523   0.0120067  -0.0030680  -0.0014019
           31          32          33          34          35
    1   0.0058413   0.0020747  -0.0025691   0.0033148   0.0011503
    2   0.0016834  -0.0083093   0.0004863   0.0014404  -0.0001006
    3  -0.0026030   0.0087484  -0.0020422  -0.0012115  -0.0016443
 Max gradient component =       2.420E-02
 RMS gradient           =       7.199E-03
 Gradient time:  CPU 24.49 s  wall 1.13 s
 Geometry Optimization Parameters
   NAtoms,    NIC,     NZ,  NCons,   NDum,   NFix, NCnnct, MaxDiis
       35     275       0       2       0       0       0       0

 Cartesian Hessian Update
 Hessian Updated using BFGS Update


** CONSTRAINED OPTIMIZATION IN DELOCALIZED INTERNAL COORDINATES **
   Searching for a Minimum

   Optimization Cycle:   2

                       Coordinates (Angstroms)
     ATOM                X               Y               Z
      1  C         0.0391511693    0.6757275719    0.6802953673
      2  C         0.4539599647   -0.8424070689    0.6572129277
      3  C        -1.2524534683    1.0058119587   -0.1063560574
      4  C        -0.6174054968   -1.7866936712    0.0462383576
      5  O        -1.8802101671    2.1025493570    0.4959508248
      6  O        -1.6415607712    0.4602373966   -1.1530090933
      7  O        -1.7222428987   -1.7865511836    0.9116213658
      8  O        -0.4954583821   -2.5651014331   -0.9136263275
      9  C        -2.7882839352   -2.6669871441    0.4545378235
     10  C        -3.0822000323    2.5194461781   -0.2147848828
     11  C         1.2938095531    1.3559591193    0.0128519619
     12  C         2.4999462687    1.2787823684    1.0147928024
     13  C         2.9052815565   -0.2211677354    0.9042847415
     14  C         1.8344473313   -0.7732367266   -0.1099029011
     15  O         1.6833551242    0.3775123766   -1.0085351653
     16  H        -0.0925945908    1.0273933391    1.7168238329
     17  H         0.6464057438   -1.2213785131    1.6763547627
     18  H        -2.4645541508   -3.7241894552    0.4449376537
     19  H        -3.8248915483    1.7026675313   -0.2676405288
     20  H         3.3310766835    1.9161750200    0.6815910071
     21  H         2.2312564492    1.5823663017    2.0368332770
     22  H         3.9165250850   -0.2993978086    0.4810241258
     23  H         2.9039110238   -0.7453451087    1.8708701770
     24  H        -3.6237968301   -2.5617064455    1.1661678350
     25  H        -3.1451925378   -2.3818882742   -0.5522650724
     26  H        -2.8464054918    2.8696020384   -1.2365634568
     27  H        -3.5199861351    3.3573542808    0.3523515046
     28  C         2.3154430626   -2.0126063908   -0.8821141301
     29  H         3.3417610033   -1.8568382084   -1.2450137076
     30  H         2.3054650567   -2.9064631493   -0.2448415740
     31  H         1.6969849667   -2.1930707570   -1.7718917509
     32  C         1.0898601583    2.7470936702   -0.6113709483
     33  H         2.0314280533    3.1081702716   -1.0486310481
     34  H         0.3560823488    2.7166954099   -1.4296654004
     35  H         0.7536792076    3.4706978174    0.1437139268
   Point Group: c1    Number of degrees of freedom:    99


   Energy is   -833.438915757

              Constraints and their Current Values
                                        Value     Constraint
   Dihedral:        2   1   3   5      150.086      152.300
   Dihedral:        1   2   4   7      -66.999      -69.600
 Hessian Updated using BFGS Update

   Using Lagrange Multiplier Algorithm


 85 Hessian modes will be used to form the next step
  Hessian Eigenvalues:
    -0.977870   -0.977491    0.044681    0.045001    0.045010    0.045144
     0.045493    0.048586    0.060299    0.061513    0.067915    0.070202
     0.071442    0.071693    0.075431    0.076427    0.078288    0.080810
     0.081290    0.081787    0.083257    0.083418    0.083511    0.083650
     0.084758    0.090010    0.091443    0.091904    0.106324    0.109030
     0.113735    0.113913    0.116880    0.116951    0.117010    0.126390
     0.131754    0.139886    0.144481    0.158416    0.161777    0.165253
     0.185916    0.241738    0.242416    0.248816    0.249891    0.250059
     0.251433    0.260777    0.268830    0.283180    0.289746    0.305609
     0.306813    0.308831    0.317959    0.327317    0.337206    0.338988
     0.340966    0.341073    0.341339    0.341505    0.341877    0.342553
     0.342647    0.342839    0.342865    0.343291    0.343588    0.343691
     0.343711    0.343759    0.343907    0.344094    0.371705    0.411969
     0.418095    0.498817    0.514022    0.952349    0.975786    1.022663
     1.023359

 Minimum Search - Taking P-RFO Step
 Searching for Lamda that Maximizes Along the Constraint modes Only
 Value Taken    Lamda =   0.00151763
 Searching for Lamda that Minimizes Along All other modes
 Value Taken    Lamda =  -0.01661652
 Calculated Step too Large.  Step scaled by  0.949547
 Step Taken.  Stepsize is  0.300000

                             Maximum     Tolerance    Cnvgd?
         Gradient            0.045402       0.000300      NO
         Displacement        0.100233       0.001200      NO
         Energy change     -0.028952       0.000001      NO


 New Cartesian Coordinates Obtained by Inverse Iteration

 Displacement from previous Coordinates is:  0.903771
 Adding empirical dispersion correction 
 ----------------------------------------------------------------
 Doing -D3(op) with
 s6 =   1.00000
 s8 =   0.78311
 a1 =   0.30000
 a2 =   4.25000
 n  =  10.00000
 -D3 energy without 3body term =     -0.0409285948 hartrees
 ----------------------------------------------------------------
             Standard Nuclear Orientation (Angstroms)
    I     Atom           X                Y                Z
 ----------------------------------------------------------------
    1      C       0.0748511531     0.6932757460     0.7331491102
    2      C       0.4811370296    -0.8284757279     0.7009980194
    3      C      -1.2445151844     0.9701899965    -0.0523789049
    4      C      -0.6220701037    -1.7388493222     0.0514718318
    5      O      -1.8784610821     2.1098147062     0.5188070299
    6      O      -1.6702551730     0.3520640383    -1.0546929579
    7      O      -1.7264012664    -1.7598525813     0.9580038488
    8      O      -0.5578561222    -2.4535550052    -0.9721465456
    9      C      -2.8071551711    -2.5967639049     0.4063323897
   10      C      -3.1078474151     2.4276888384    -0.2324855207
   11      C       1.3282997935     1.3703923649     0.0164456218
   12      C       2.5464782659     1.2920158675     1.0254683863
   13      C       2.9461068698    -0.2232079859     0.9168395017
   14      C       1.8592879304    -0.7688518137    -0.1029548296
   15      O       1.6917306609     0.3809246931    -1.0230125984
   16      H      -0.0414093791     1.0716622455     1.7642452536
   17      H       0.6760142372    -1.2104357796     1.7193647784
   18      H      -2.4922547256    -3.6556293084     0.3000402511
   19      H      -3.8215097564     1.5783435477    -0.2303564109
   20      H       3.3659675187     1.9418459524     0.6789810374
   21      H       2.2718227274     1.5977769685     2.0478406376
   22      H       3.9519346311    -0.3298692199     0.4799622282
   23      H       2.9338013700    -0.7490282607     1.8852172919
   24      H      -3.6427850333    -2.5338111879     1.1280591415
   25      H      -3.1463456805    -2.2283255939    -0.5837336433
   26      H      -2.8848527200     2.6986675886    -1.2852294280
   27      H      -3.5653740257     3.2937969664     0.2807252863
   28      C       2.2952951750    -2.0309648371    -0.8893765605
   29      H       3.3190815027    -1.8913689038    -1.2706767417
   30      H       2.2765315008    -2.9164698521    -0.2367608811
   31      H       1.6205317224    -2.2003874590    -1.7416734322
   32      C       1.0906243218     2.7614991119    -0.6253215949
   33      H       2.0257675915     3.1236655442    -1.0793388576
   34      H       0.3272662713     2.6980278816    -1.4161487148
   35      H       0.7591559391     3.4834076191     0.1365782070
 ----------------------------------------------------------------
 Molecular Point Group                 C1    NOp =  1
 Largest Abelian Subgroup              C1    NOp =  1
 Nuclear Repulsion Energy =  1372.2483926352 hartrees
 There are       65 alpha and       65 beta electrons
 Applying Cartesian multipole field
    Component          Value
    ---------          -----
     (2,0,0)        1.00000E-11
     (0,2,0)        2.00000E-11
     (0,0,2)       -3.00000E-11
 Nucleus-field energy     =     0.0000000385 hartrees
 Requested basis set is STO-3G
 There are 52 shells and 103 basis functions
 A cutoff of  1.0D-12 yielded   1203 shell pairs
 There are      5187 function pairs
 Smallest overlap matrix eigenvalue = 2.13E-01
 Guess MOs from SCF MO coefficient file
 Reading MOs from coefficient file
 Reading MOs from coefficient file
 A restricted hybrid HF-DFT SCF calculation will be
 performed using Pulay DIIS extrapolation
 Exchange:     0.2000 Hartree-Fock + 0.0800 Slater + 0.7200 B88
 Correlation:  0.1900 VWN1RPA + 0.8100 LYP
 Using SG-1 standard quadrature grid
 Dispersion:   Grimme D3
 SCF converges when DIIS error is below 1.0E-08
 Geometry optimization detected.  Setting ReadMinima to 0
 Setting SaveMinima to 0
 -------------------------------------------------------
 OpenMP Integral computing Module                
 Release: version 1.0, May 2013, Q-Chem Inc. Pittsburgh 
 -------------------------------------------------------
 -------------------------------------------------------
 OpenMP BLAS3 based DFT computing Module                
 Release: version 1.0, May 2013, Q-Chem Inc. Pittsburgh 
 -------------------------------------------------------
 ---------------------------------------
  Cycle       Energy         DIIS Error
 ---------------------------------------
    1    -833.3383079249      5.08E-03
    2    -833.4442105190      1.23E-03
    3    -833.4397826186      2.17E-03
    4    -833.4463779830      4.38E-04
    5    -833.4466699180      1.06E-04
    6    -833.4466875329      2.57E-05
    7    -833.4466879290      2.18E-05
    8    -833.4466886333      4.77E-06
    9    -833.4466886716      7.12E-07
   10    -833.4466886723      3.08E-07
   11    -833.4466886724      5.81E-08
   12    -833.4466886725      1.94E-08
   13    -833.4466886725      3.25E-09 Convergence criterion met
 ---------------------------------------
 SCF time:  CPU 130.50 s  wall 6.23 s
 SCF   energy in the final basis set = -833.4466886725
 Total energy in the final basis set = -833.4466886725
 
 --------------------------------------------------------------
 
                    Orbital Energies (a.u.)
 --------------------------------------------------------------
 
 Alpha MOs
 -- Occupied --
-18.939 -18.922 -18.874 -18.872 -18.863 -10.099 -10.091 -10.066
-10.062 -10.057 -10.056 -10.032 -10.029 -10.015 -10.013 -10.010
-10.003  -1.016  -1.002  -0.963  -0.938  -0.926  -0.760  -0.737
 -0.718  -0.673  -0.672  -0.654  -0.616  -0.587  -0.532  -0.511
 -0.481  -0.471  -0.453  -0.435  -0.424  -0.416  -0.415  -0.404
 -0.399  -0.384  -0.381  -0.378  -0.367  -0.362  -0.353  -0.343
 -0.335  -0.329  -0.309  -0.296  -0.292  -0.288  -0.286  -0.275
 -0.264  -0.253  -0.245  -0.223  -0.179  -0.168  -0.153  -0.140
 -0.135
 -- Virtual --
  0.096   0.117   0.237   0.257   0.273   0.289   0.306   0.325
  0.344   0.345   0.361   0.369   0.385   0.392   0.403   0.412
  0.415   0.420   0.426   0.428   0.431   0.434   0.439   0.440
  0.448   0.459   0.465   0.471   0.481   0.481   0.490   0.494
  0.509   0.517   0.549   0.557   0.651   0.659
 --------------------------------------------------------------
 
          Ground-State Mulliken Net Atomic Charges

     Atom                 Charge (a.u.)
  ----------------------------------------
      1 C                    -0.080790
      2 C                    -0.081598
      3 C                     0.213758
      4 C                     0.215591
      5 O                    -0.169501
      6 O                    -0.212713
      7 O                    -0.179477
      8 O                    -0.212724
      9 C                    -0.127790
     10 C                    -0.127385
     11 C                     0.105951
     12 C                    -0.145804
     13 C                    -0.145226
     14 C                     0.105711
     15 O                    -0.198641
     16 H                     0.085356
     17 H                     0.083242
     18 H                     0.086311
     19 H                     0.090012
     20 H                     0.074290
     21 H                     0.070595
     22 H                     0.073710
     23 H                     0.069259
     24 H                     0.086058
     25 H                     0.091688
     26 H                     0.088931
     27 H                     0.090442
     28 C                    -0.227868
     29 H                     0.077606
     30 H                     0.078029
     31 H                     0.100388
     32 C                    -0.227013
     33 H                     0.083331
     34 H                     0.083445
     35 H                     0.082826
  ----------------------------------------
  Sum of atomic charges =    -0.000000

 -----------------------------------------------------------------
                    Cartesian Multipole Moments
 -----------------------------------------------------------------
    Charge (ESU x 10^10)
                 0.0000
    Dipole Moment (Debye)
         X      -0.5000      Y       1.1979      Z       2.1171
       Tot       2.4833
    Quadrupole Moments (Debye-Ang)
        XX     -84.2418     XY      -1.1458     YY     -88.9196
        XZ       1.8029     YZ      -3.6249     ZZ     -96.5899
    Octopole Moments (Debye-Ang^2)
       XXX     -45.4223    XXY      -1.3789    XYY     -18.9470
       YYY      -1.5192    XXZ      -2.7544    XYZ       4.6183
       YYZ      -0.8979    XZZ      -4.0163    YZZ       1.1224
       ZZZ      -7.1335
    Hexadecapole Moments (Debye-Ang^3)
      XXXX   -2163.5513   XXXY     -22.3468   XXYY    -616.8433
      XYYY     -11.9104   YYYY   -1810.7459   XXXZ     -34.4908
      XXYZ      -9.1623   XYYZ      -7.3038   YYYZ     -32.5256
      XXZZ    -463.7945   XYZZ     -10.6954   YYZZ    -383.9615
      XZZZ     -11.8445   YZZZ      -1.5134   ZZZZ    -415.0148
 -----------------------------------------------------------------
 Calculating analytic gradient of the SCF energy
 Gradient of SCF Energy
            1           2           3           4           5           6
    1   0.0015307  -0.0043504  -0.0047963  -0.0077407   0.0004807   0.0019112
    2  -0.0012130   0.0013230   0.0009497   0.0078827  -0.0016081   0.0008192
    3  -0.0061501   0.0036027   0.0035394   0.0023992  -0.0026666  -0.0020902
            7           8           9          10          11          12
    1   0.0034689   0.0010642   0.0037340   0.0038883  -0.0034985  -0.0021921
    2  -0.0037839  -0.0031105   0.0020157  -0.0024542  -0.0010539   0.0005077
    3  -0.0030966   0.0005404   0.0001658   0.0014362   0.0029057  -0.0017355
           13          14          15          16          17          18
    1  -0.0015165  -0.0040527   0.0036602   0.0004958   0.0033672   0.0000979
    2  -0.0013064  -0.0005744   0.0006996  -0.0002057  -0.0005888  -0.0002339
    3  -0.0010859  -0.0004036   0.0016286   0.0005828  -0.0006509   0.0003984
           19          20          21          22          23          24
    1  -0.0002856   0.0005627   0.0010605   0.0002493   0.0015154  -0.0000685
    2   0.0000390  -0.0004792   0.0006644   0.0006111  -0.0001186   0.0001673
    3   0.0002227   0.0002038   0.0003280   0.0001134   0.0002523  -0.0000063
           25          26          27          28          29          30
    1  -0.0003596   0.0001497  -0.0000059  -0.0017209   0.0002263  -0.0000014
    2  -0.0000131   0.0003591   0.0000192   0.0004038   0.0001982   0.0000086
    3   0.0000638  -0.0000606   0.0001497   0.0025846  -0.0006735  -0.0001643
           31          32          33          34          35
    1   0.0019896   0.0001420   0.0000215   0.0006609   0.0003121
    2   0.0009668  -0.0011048  -0.0001868   0.0002648   0.0001355
    3  -0.0018796   0.0011661  -0.0007255  -0.0009242   0.0000299
 Max gradient component =       7.883E-03
 RMS gradient           =       2.086E-03
 Gradient time:  CPU 24.89 s  wall 1.21 s
 Geometry Optimization Parameters
   NAtoms,    NIC,     NZ,  NCons,   NDum,   NFix, NCnnct, MaxDiis
       35     275       0       2       0       0       0       0

 Cartesian Hessian Update
 Hessian Updated using BFGS Update


** CONSTRAINED OPTIMIZATION IN DELOCALIZED INTERNAL COORDINATES **
   Searching for a Minimum

   Optimization Cycle:   3

                       Coordinates (Angstroms)
     ATOM                X               Y               Z
      1  C         0.0748511531    0.6932757460    0.7331491102
      2  C         0.4811370296   -0.8284757279    0.7009980194
      3  C        -1.2445151844    0.9701899965   -0.0523789049
      4  C        -0.6220701037   -1.7388493222    0.0514718318
      5  O        -1.8784610821    2.1098147062    0.5188070299
      6  O        -1.6702551730    0.3520640383   -1.0546929579
      7  O        -1.7264012664   -1.7598525813    0.9580038488
      8  O        -0.5578561222   -2.4535550052   -0.9721465456
      9  C        -2.8071551711   -2.5967639049    0.4063323897
     10  C        -3.1078474151    2.4276888384   -0.2324855207
     11  C         1.3282997935    1.3703923649    0.0164456218
     12  C         2.5464782659    1.2920158675    1.0254683863
     13  C         2.9461068698   -0.2232079859    0.9168395017
     14  C         1.8592879304   -0.7688518137   -0.1029548296
     15  O         1.6917306609    0.3809246931   -1.0230125984
     16  H        -0.0414093791    1.0716622455    1.7642452536
     17  H         0.6760142372   -1.2104357796    1.7193647784
     18  H        -2.4922547256   -3.6556293084    0.3000402511
     19  H        -3.8215097564    1.5783435477   -0.2303564109
     20  H         3.3659675187    1.9418459524    0.6789810374
     21  H         2.2718227274    1.5977769685    2.0478406376
     22  H         3.9519346311   -0.3298692199    0.4799622282
     23  H         2.9338013700   -0.7490282607    1.8852172919
     24  H        -3.6427850333   -2.5338111879    1.1280591415
     25  H        -3.1463456805   -2.2283255939   -0.5837336433
     26  H        -2.8848527200    2.6986675886   -1.2852294280
     27  H        -3.5653740257    3.2937969664    0.2807252863
     28  C         2.2952951750   -2.0309648371   -0.8893765605
     29  H         3.3190815027   -1.8913689038   -1.2706767417
     30  H         2.2765315008   -2.9164698521   -0.2367608811
     31  H         1.6205317224   -2.2003874590   -1.7416734322
     32  C         1.0906243218    2.7614991119   -0.6253215949
     33  H         2.0257675915    3.1236655442   -1.0793388576
     34  H         0.3272662713    2.6980278816   -1.4161487148
     35  H         0.7591559391    3.4834076191    0.1365782070
   Point Group: c1    Number of degrees of freedom:    99


   Energy is   -833.446688673

              Constraints and their Current Values
                                        Value     Constraint
   Dihedral:        2   1   3   5      152.170      152.300
   Dihedral:        1   2   4   7      -69.445      -69.600
 Hessian Updated using BFGS Update

   Using Lagrange Multiplier Algorithm


 88 Hessian modes will be used to form the next step
  Hessian Eigenvalues:
    -0.977715   -0.977155    0.041923    0.045000    0.045003    0.045065
     0.045191    0.045543    0.048446    0.060120    0.061092    0.067764
     0.069916    0.071434    0.071699    0.074667    0.076037    0.078389
     0.080747    0.080931    0.081746    0.083050    0.083421    0.083637
     0.083882    0.085243    0.090009    0.091465    0.091903    0.106264
     0.108731    0.113617    0.113901    0.116699    0.116913    0.116997
     0.126555    0.131619    0.139995    0.144389    0.158796    0.160458
     0.161816    0.171864    0.185922    0.241536    0.247714    0.248990
     0.249951    0.250056    0.251043    0.260732    0.267788    0.271283
     0.284518    0.290105    0.305523    0.307079    0.308854    0.317115
     0.327194    0.336913    0.338770    0.340027    0.341070    0.341205
     0.341377    0.341688    0.342533    0.342640    0.342840    0.342862
     0.343250    0.343584    0.343691    0.343702    0.343762    0.343910
     0.344094    0.377606    0.401046    0.412190    0.481580    0.513952
     0.952332    0.989276    1.022842    1.029042

 Minimum Search - Taking P-RFO Step
 Searching for Lamda that Maximizes Along the Constraint modes Only
 Value Taken    Lamda =   0.00001155
 Searching for Lamda that Minimizes Along All other modes
 Value Taken    Lamda =  -0.00201789
 Step Taken.  Stepsize is  0.175953

                             Maximum     Tolerance    Cnvgd?
         Gradient            0.007544       0.000300      NO
         Displacement        0.073119       0.001200      NO
         Energy change     -0.007773       0.000001      NO


 New Cartesian Coordinates Obtained by Inverse Iteration

 Displacement from previous Coordinates is:  0.471710
 Adding empirical dispersion correction 
 ----------------------------------------------------------------
 Doing -D3(op) with
 s6 =   1.00000
 s8 =   0.78311
 a1 =   0.30000
 a2 =   4.25000
 n  =  10.00000
 -D3 energy without 3body term =     -0.0410020183 hartrees
 ----------------------------------------------------------------
             Standard Nuclear Orientation (Angstroms)
    I     Atom           X                Y                Z
 ----------------------------------------------------------------
    1      C       0.0916086774     0.6979606686     0.7451394741
    2      C       0.5001338697    -0.8317714315     0.7166607053
    3      C      -1.2380267399     0.9690917819    -0.0335529858
    4      C      -0.5969544566    -1.7445447722     0.0473335419
    5      O      -1.8799477884     2.1186333622     0.5304424713
    6      O      -1.6941443481     0.3203723177    -1.0031971941
    7      O      -1.7226750787    -1.7710181526     0.9447853320
    8      O      -0.5354958753    -2.4227536826    -1.0007587657
    9      C      -2.8211043457    -2.5720069261     0.3558628427
   10      C      -3.1320788996     2.4204159101    -0.2065204949
   11      C       1.3418042458     1.3688602646     0.0053646980
   12      C       2.5677169561     1.3030794584     1.0107681596
   13      C       2.9702782459    -0.2118081288     0.9181357984
   14      C       1.8797183467    -0.7740658233    -0.0911780594
   15      O       1.6891399341     0.3633843320    -1.0286332582
   16      H      -0.0228609967     1.0889594967     1.7710003308
   17      H       0.6774986445    -1.2067287788     1.7403739687
   18      H      -2.5261689312    -3.6322061021     0.2135464986
   19      H      -3.8374043334     1.5646329875    -0.1799783235
   20      H       3.3799016370     1.9574531901     0.6554494845
   21      H       2.2865098881     1.6147249432     2.0293009019
   22      H       3.9747493235    -0.3288572451     0.4807719949
   23      H       2.9503911373    -0.7266502698     1.8918911102
   24      H      -3.6621084847    -2.5161766068     1.0719743397
   25      H      -3.1392630321    -2.1634453441    -0.6255410305
   26      H      -2.9299704168     2.6729589666    -1.2679133725
   27      H      -3.5863402822     3.2916511292     0.3008853652
   28      C       2.3017698816    -2.0550947120    -0.8603268477
   29      H       3.3189524737    -1.9312671461    -1.2619955817
   30      H       2.2895713270    -2.9228794310    -0.1835800453
   31      H       1.5959915890    -2.2431720152    -1.6829473413
   32      C       1.0816982636     2.7552530540    -0.6437538975
   33      H       2.0059851116     3.1266590112    -1.1114273259
   34      H       0.3019474164     2.6735775795    -1.4162682496
   35      H       0.7517704143     3.4759910482     0.1201279861
 ----------------------------------------------------------------
 Molecular Point Group                 C1    NOp =  1
 Largest Abelian Subgroup              C1    NOp =  1
 Nuclear Repulsion Energy =  1370.5522191466 hartrees
 There are       65 alpha and       65 beta electrons
 Applying Cartesian multipole field
    Component          Value
    ---------          -----
     (2,0,0)        1.00000E-11
     (0,2,0)        2.00000E-11
     (0,0,2)       -3.00000E-11
 Nucleus-field energy     =     0.0000000387 hartrees
 Requested basis set is STO-3G
 There are 52 shells and 103 basis functions
 A cutoff of  1.0D-12 yielded   1203 shell pairs
 There are      5187 function pairs
 Smallest overlap matrix eigenvalue = 2.14E-01
 Guess MOs from SCF MO coefficient file
 Reading MOs from coefficient file
 Reading MOs from coefficient file
 A restricted hybrid HF-DFT SCF calculation will be
 performed using Pulay DIIS extrapolation
 Exchange:     0.2000 Hartree-Fock + 0.0800 Slater + 0.7200 B88
 Correlation:  0.1900 VWN1RPA + 0.8100 LYP
 Using SG-1 standard quadrature grid
 Dispersion:   Grimme D3
 SCF converges when DIIS error is below 1.0E-08
 Geometry optimization detected.  Setting ReadMinima to 0
 Setting SaveMinima to 0
 -------------------------------------------------------
 OpenMP Integral computing Module                
 Release: version 1.0, May 2013, Q-Chem Inc. Pittsburgh 
 -------------------------------------------------------
 -------------------------------------------------------
 OpenMP BLAS3 based DFT computing Module                
 Release: version 1.0, May 2013, Q-Chem Inc. Pittsburgh 
 -------------------------------------------------------
 ---------------------------------------
  Cycle       Energy         DIIS Error
 ---------------------------------------
    1    -833.4229216240      2.30E-03
    2    -833.4475144377      3.89E-04
    3    -833.4467108504      8.46E-04
    4    -833.4477662956      8.88E-05
    5    -833.4477783317      2.86E-05
    6    -833.4477793120      1.47E-05
    7    -833.4477795777      7.17E-06
    8    -833.4477796552      1.46E-06
    9    -833.4477796588      2.23E-07
   10    -833.4477796589      9.95E-08
   11    -833.4477796589      2.43E-08
   12    -833.4477796589      7.37E-09 Convergence criterion met
 ---------------------------------------
 SCF time:  CPU 116.20 s  wall 5.68 s
 SCF   energy in the final basis set = -833.4477796589
 Total energy in the final basis set = -833.4477796589
 
 --------------------------------------------------------------
 
                    Orbital Energies (a.u.)
 --------------------------------------------------------------
 
 Alpha MOs
 -- Occupied --
-18.936 -18.919 -18.875 -18.873 -18.865 -10.098 -10.090 -10.065
-10.062 -10.056 -10.055 -10.033 -10.029 -10.015 -10.013 -10.011
-10.002  -1.012  -0.997  -0.961  -0.935  -0.924  -0.759  -0.736
 -0.718  -0.673  -0.670  -0.652  -0.616  -0.588  -0.531  -0.511
 -0.479  -0.470  -0.451  -0.434  -0.423  -0.415  -0.413  -0.402
 -0.398  -0.384  -0.381  -0.378  -0.367  -0.362  -0.351  -0.343
 -0.334  -0.329  -0.310  -0.297  -0.293  -0.288  -0.286  -0.274
 -0.263  -0.252  -0.244  -0.223  -0.178  -0.166  -0.153  -0.140
 -0.136
 -- Virtual --
  0.095   0.117   0.234   0.252   0.269   0.288   0.304   0.323
  0.341   0.341   0.357   0.368   0.382   0.390   0.401   0.408
  0.414   0.419   0.424   0.427   0.431   0.432   0.439   0.440
  0.449   0.457   0.463   0.470   0.480   0.481   0.488   0.495
  0.507   0.514   0.546   0.556   0.647   0.658
 --------------------------------------------------------------
 
          Ground-State Mulliken Net Atomic Charges

     Atom                 Charge (a.u.)
  ----------------------------------------
      1 C                    -0.080380
      2 C                    -0.081228
      3 C                     0.211766
      4 C                     0.214525
      5 O                    -0.169072
      6 O                    -0.211956
      7 O                    -0.178303
      8 O                    -0.211243
      9 C                    -0.129387
     10 C                    -0.128664
     11 C                     0.105501
     12 C                    -0.145753
     13 C                    -0.145384
     14 C                     0.105125
     15 O                    -0.197320
     16 H                     0.085359
     17 H                     0.083003
     18 H                     0.085801
     19 H                     0.089944
     20 H                     0.074561
     21 H                     0.071068
     22 H                     0.074274
     23 H                     0.069986
     24 H                     0.085906
     25 H                     0.091774
     26 H                     0.088640
     27 H                     0.090619
     28 C                    -0.229386
     29 H                     0.077640
     30 H                     0.077174
     31 H                     0.102226
     32 C                    -0.227123
     33 H                     0.083423
     34 H                     0.083770
     35 H                     0.083114
  ----------------------------------------
  Sum of atomic charges =    -0.000000

 -----------------------------------------------------------------
                    Cartesian Multipole Moments
 -----------------------------------------------------------------
    Charge (ESU x 10^10)
                 0.0000
    Dipole Moment (Debye)
         X      -0.4523      Y       1.2202      Z       2.0858
       Tot       2.4585
    Quadrupole Moments (Debye-Ang)
        XX     -84.1909     XY      -1.1703     YY     -88.9350
        XZ       1.9729     YZ      -3.5256     ZZ     -96.5484
    Octopole Moments (Debye-Ang^2)
       XXX     -46.9086    XXY      -0.8289    XYY     -19.1513
       YYY      -1.8003    XXZ      -3.0026    XYZ       4.1458
       YYZ      -1.5398    XZZ      -4.6452    YZZ       1.5667
       ZZZ      -7.3902
    Hexadecapole Moments (Debye-Ang^3)
      XXXX   -2182.7622   XXXY     -20.2504   XXYY    -619.0874
      XYYY      -7.7023   YYYY   -1805.0066   XXXZ     -37.1787
      XXYZ     -10.3525   XYYZ      -7.1433   YYYZ     -34.6539
      XXZZ    -466.7023   XYZZ      -9.7526   YYZZ    -382.9190
      XZZZ     -13.0901   YZZZ      -6.8603   ZZZZ    -410.2659
 -----------------------------------------------------------------
 Calculating analytic gradient of the SCF energy
 Gradient of SCF Energy
            1           2           3           4           5           6
    1   0.0016752  -0.0018778   0.0014114   0.0003485   0.0001331  -0.0000322
    2   0.0001632  -0.0009019  -0.0003021   0.0035315  -0.0003132  -0.0007585
    3  -0.0006296   0.0042094   0.0009983  -0.0006559   0.0003631  -0.0017151
            7           8           9          10          11          12
    1   0.0004684   0.0005429  -0.0014342  -0.0014137  -0.0012735  -0.0002624
    2  -0.0005721  -0.0019808  -0.0004192   0.0011357   0.0008483   0.0001026
    3   0.0008132  -0.0010229   0.0004209   0.0002553   0.0016229   0.0006409
           13          14          15          16          17          18
    1   0.0003931  -0.0016327   0.0015002  -0.0004493   0.0020110  -0.0000378
    2  -0.0006453  -0.0011123   0.0004529   0.0003595   0.0002534  -0.0001436
    3   0.0007884  -0.0005787  -0.0018501  -0.0003438  -0.0004665  -0.0001713
           19          20          21          22          23          24
    1  -0.0001688   0.0000949   0.0003163   0.0000571   0.0006471  -0.0004172
    2  -0.0000616  -0.0000326   0.0002855   0.0001897  -0.0000784  -0.0000689
    3  -0.0002648  -0.0002365   0.0001176  -0.0003114   0.0000584   0.0000071
           25          26          27          28          29          30
    1  -0.0000347  -0.0001598  -0.0004533  -0.0006067   0.0003243  -0.0005606
    2  -0.0003203  -0.0000799   0.0002281  -0.0008140  -0.0000288  -0.0001485
    3  -0.0002964  -0.0002379  -0.0000956  -0.0003158   0.0003895  -0.0002027
           31          32          33          34          35
    1   0.0007857  -0.0001814   0.0001546   0.0000235   0.0001088
    2   0.0006712   0.0008269  -0.0002003  -0.0001902   0.0001237
    3  -0.0008149  -0.0004289   0.0000355  -0.0000953   0.0000138
 Max gradient component =       4.209E-03
 RMS gradient           =       9.007E-04
 Gradient time:  CPU 25.68 s  wall 1.18 s
 Geometry Optimization Parameters
   NAtoms,    NIC,     NZ,  NCons,   NDum,   NFix, NCnnct, MaxDiis
       35     275       0       2       0       0       0       0

 Cartesian Hessian Update
 Hessian Updated using BFGS Update


** CONSTRAINED OPTIMIZATION IN DELOCALIZED INTERNAL COORDINATES **
   Searching for a Minimum

   Optimization Cycle:   4

                       Coordinates (Angstroms)
     ATOM                X               Y               Z
      1  C         0.0916086774    0.6979606686    0.7451394741
      2  C         0.5001338697   -0.8317714315    0.7166607053
      3  C        -1.2380267399    0.9690917819   -0.0335529858
      4  C        -0.5969544566   -1.7445447722    0.0473335419
      5  O        -1.8799477884    2.1186333622    0.5304424713
      6  O        -1.6941443481    0.3203723177   -1.0031971941
      7  O        -1.7226750787   -1.7710181526    0.9447853320
      8  O        -0.5354958753   -2.4227536826   -1.0007587657
      9  C        -2.8211043457   -2.5720069261    0.3558628427
     10  C        -3.1320788996    2.4204159101   -0.2065204949
     11  C         1.3418042458    1.3688602646    0.0053646980
     12  C         2.5677169561    1.3030794584    1.0107681596
     13  C         2.9702782459   -0.2118081288    0.9181357984
     14  C         1.8797183467   -0.7740658233   -0.0911780594
     15  O         1.6891399341    0.3633843320   -1.0286332582
     16  H        -0.0228609967    1.0889594967    1.7710003308
     17  H         0.6774986445   -1.2067287788    1.7403739687
     18  H        -2.5261689312   -3.6322061021    0.2135464986
     19  H        -3.8374043334    1.5646329875   -0.1799783235
     20  H         3.3799016370    1.9574531901    0.6554494845
     21  H         2.2865098881    1.6147249432    2.0293009019
     22  H         3.9747493235   -0.3288572451    0.4807719949
     23  H         2.9503911373   -0.7266502698    1.8918911102
     24  H        -3.6621084847   -2.5161766068    1.0719743397
     25  H        -3.1392630321   -2.1634453441   -0.6255410305
     26  H        -2.9299704168    2.6729589666   -1.2679133725
     27  H        -3.5863402822    3.2916511292    0.3008853652
     28  C         2.3017698816   -2.0550947120   -0.8603268477
     29  H         3.3189524737   -1.9312671461   -1.2619955817
     30  H         2.2895713270   -2.9228794310   -0.1835800453
     31  H         1.5959915890   -2.2431720152   -1.6829473413
     32  C         1.0816982636    2.7552530540   -0.6437538975
     33  H         2.0059851116    3.1266590112   -1.1114273259
     34  H         0.3019474164    2.6735775795   -1.4162682496
     35  H         0.7517704143    3.4759910482    0.1201279861
   Point Group: c1    Number of degrees of freedom:    99


   Energy is   -833.447779659

              Constraints and their Current Values
                                        Value     Constraint
   Dihedral:        2   1   3   5      152.300      152.300
   Dihedral:        1   2   4   7      -69.599      -69.600
 Hessian Updated using BFGS Update

   Using Lagrange Multiplier Algorithm


 91 Hessian modes will be used to form the next step
  Hessian Eigenvalues:
    -0.977753   -0.973550    0.027773    0.045000    0.045002    0.045004
     0.045178    0.045298    0.046524    0.048322    0.059586    0.061627
     0.067403    0.069781    0.071411    0.071708    0.073174    0.075881
     0.078362    0.080793    0.080934    0.081747    0.082980    0.083420
     0.083641    0.084031    0.085215    0.090139    0.091629    0.091969
     0.106375    0.108207    0.113873    0.114377    0.116887    0.116996
     0.117303    0.128142    0.131616    0.140405    0.144629    0.158505
     0.160338    0.161065    0.161826    0.170221    0.185925    0.241113
     0.246198    0.248888    0.250000    0.250039    0.250087    0.251740
     0.260716    0.267753    0.280585    0.287662    0.290503    0.305548
     0.307058    0.308853    0.318533    0.327116    0.337429    0.339234
     0.341067    0.341126    0.341376    0.341629    0.342515    0.342628
     0.342824    0.342862    0.343175    0.343549    0.343656    0.343700
     0.343757    0.343859    0.344088    0.345161    0.379074    0.412139
     0.444543    0.512433    0.529981    0.952248    0.988120    1.022793
     1.039446

 Minimum Search - Taking P-RFO Step
 Searching for Lamda that Maximizes Along the Constraint modes Only
 Value Taken    Lamda =   0.00000268
 Searching for Lamda that Minimizes Along All other modes
 Value Taken    Lamda =  -0.00052202
 Step Taken.  Stepsize is  0.118403

                             Maximum     Tolerance    Cnvgd?
         Gradient            0.003237       0.000300      NO
         Displacement        0.037951       0.001200      NO
         Energy change     -0.001091       0.000001      NO


 New Cartesian Coordinates Obtained by Inverse Iteration

 Displacement from previous Coordinates is:  0.347108
 Adding empirical dispersion correction 
 ----------------------------------------------------------------
 Doing -D3(op) with
 s6 =   1.00000
 s8 =   0.78311
 a1 =   0.30000
 a2 =   4.25000
 n  =  10.00000
 -D3 energy without 3body term =     -0.0410829300 hartrees
 ----------------------------------------------------------------
             Standard Nuclear Orientation (Angstroms)
    I     Atom           X                Y                Z
 ----------------------------------------------------------------
    1      C       0.0949959490     0.6934666845     0.7461072080
    2      C       0.5056447613    -0.8374537385     0.7197683546
    3      C      -1.2409811172     0.9676640081    -0.0208191926
    4      C      -0.5888902837    -1.7499848152     0.0441213522
    5      O      -1.8707803766     2.1206854034     0.5514070001
    6      O      -1.7203072559     0.3146612272    -0.9756387409
    7      O      -1.7188670920    -1.7753895856     0.9380723217
    8      O      -0.5338738671    -2.4079816181    -1.0161608712
    9      C      -2.8191829218    -2.5496621514     0.3189225433
   10      C      -3.1268488215     2.4167896106    -0.1796289641
   11      C       1.3406280906     1.3611758744    -0.0075693295
   12      C       2.5692189085     1.3113030845     0.9955139977
   13      C       2.9764348753    -0.2011784758     0.9181926265
   14      C       1.8884579387    -0.7783888781    -0.0838580737
   15      O       1.6814511768     0.3462063649    -1.0335999539
   16      H      -0.0145858039     1.0877332518     1.7714997930
   17      H       0.6687410147    -1.2084606894     1.7477277829
   18      H      -2.5343849121    -3.6088419538     0.1505884917
   19      H      -3.8309273341     1.5603051396    -0.1427868594
   20      H       3.3770054394     1.9687787973     0.6364347952
   21      H       2.2818360493     1.6283899385     2.0105561250
   22      H       3.9820231309    -0.3229522085     0.4853152484
   23      H       2.9507484443    -0.7063110272     1.8968392613
   24      H      -3.6638812515    -2.5025936390     1.0307858810
   25      H      -3.1237483624    -2.1093239860    -0.6531015704
   26      H      -2.9313776020     2.6643659553    -1.2434016820
   27      H      -3.5750071810     3.2902868420     0.3285794575
   28      C       2.3133161030    -2.0694130608    -0.8342409417
   29      H       3.3240124208    -1.9481595799    -1.2518218461
   30      H       2.3164714267    -2.9215676527    -0.1375331064
   31      H       1.5918207605    -2.2825820088    -1.6370248973
   32      C       1.0661879763     2.7422569303    -0.6615238135
   33      H       1.9827208717     3.1217833105    -1.1376278577
   34      H       0.2789357574     2.6520377820    -1.4253368332
   35      H       0.7355864613     3.4615677977     0.1034845238
 ----------------------------------------------------------------
 Molecular Point Group                 C1    NOp =  1
 Largest Abelian Subgroup              C1    NOp =  1
 Nuclear Repulsion Energy =  1371.5506619089 hartrees
 There are       65 alpha and       65 beta electrons
 Applying Cartesian multipole field
    Component          Value
    ---------          -----
     (2,0,0)        1.00000E-11
     (0,2,0)        2.00000E-11
     (0,0,2)       -3.00000E-11
 Nucleus-field energy     =     0.0000000387 hartrees
 Requested basis set is STO-3G
 There are 52 shells and 103 basis functions
 A cutoff of  1.0D-12 yielded   1202 shell pairs
 There are      5183 function pairs
 Smallest overlap matrix eigenvalue = 2.13E-01
 Guess MOs from SCF MO coefficient file
 Reading MOs from coefficient file
 Reading MOs from coefficient file
 A restricted hybrid HF-DFT SCF calculation will be
 performed using Pulay DIIS extrapolation
 Exchange:     0.2000 Hartree-Fock + 0.0800 Slater + 0.7200 B88
 Correlation:  0.1900 VWN1RPA + 0.8100 LYP
 Using SG-1 standard quadrature grid
 Dispersion:   Grimme D3
 SCF converges when DIIS error is below 1.0E-08
 Geometry optimization detected.  Setting ReadMinima to 0
 Setting SaveMinima to 0
 -------------------------------------------------------
 OpenMP Integral computing Module                
 Release: version 1.0, May 2013, Q-Chem Inc. Pittsburgh 
 -------------------------------------------------------
 -------------------------------------------------------
 OpenMP BLAS3 based DFT computing Module                
 Release: version 1.0, May 2013, Q-Chem Inc. Pittsburgh 
 -------------------------------------------------------
 ---------------------------------------
  Cycle       Energy         DIIS Error
 ---------------------------------------
    1    -833.4454417068      1.26E-03
    2    -833.4480949708      1.12E-04
    3    -833.4480723754      1.88E-04
    4    -833.4481211639      4.83E-05
    5    -833.4481242504      1.82E-05
    6    -833.4481247596      5.42E-06
    7    -833.4481248024      1.88E-06
    8    -833.4481248069      8.34E-07
    9    -833.4481248080      9.28E-08
   10    -833.4481248081      4.42E-08
   11    -833.4481248080      9.61E-09 Convergence criterion met
 ---------------------------------------
 SCF time:  CPU 103.40 s  wall 5.17 s
 SCF   energy in the final basis set = -833.4481248080
 Total energy in the final basis set = -833.4481248080
 
 --------------------------------------------------------------
 
                    Orbital Energies (a.u.)
 --------------------------------------------------------------
 
 Alpha MOs
 -- Occupied --
-18.936 -18.919 -18.875 -18.874 -18.866 -10.098 -10.090 -10.065
-10.062 -10.057 -10.054 -10.032 -10.029 -10.015 -10.014 -10.011
-10.002  -1.012  -0.998  -0.961  -0.935  -0.925  -0.759  -0.736
 -0.718  -0.673  -0.670  -0.652  -0.615  -0.588  -0.530  -0.511
 -0.479  -0.469  -0.451  -0.435  -0.422  -0.415  -0.414  -0.402
 -0.398  -0.385  -0.381  -0.379  -0.367  -0.362  -0.351  -0.343
 -0.334  -0.328  -0.310  -0.297  -0.293  -0.289  -0.286  -0.274
 -0.264  -0.252  -0.245  -0.223  -0.178  -0.166  -0.153  -0.141
 -0.136
 -- Virtual --
  0.095   0.117   0.234   0.253   0.270   0.288   0.304   0.323
  0.340   0.340   0.356   0.368   0.382   0.391   0.401   0.408
  0.414   0.420   0.425   0.427   0.431   0.433   0.439   0.440
  0.449   0.456   0.463   0.471   0.480   0.481   0.487   0.496
  0.506   0.514   0.546   0.556   0.648   0.659
 --------------------------------------------------------------
 
          Ground-State Mulliken Net Atomic Charges

     Atom                 Charge (a.u.)
  ----------------------------------------
      1 C                    -0.080505
      2 C                    -0.081216
      3 C                     0.211611
      4 C                     0.214901
      5 O                    -0.168956
      6 O                    -0.212330
      7 O                    -0.177738
      8 O                    -0.210836
      9 C                    -0.129628
     10 C                    -0.128832
     11 C                     0.105627
     12 C                    -0.145749
     13 C                    -0.145544
     14 C                     0.105185
     15 O                    -0.197047
     16 H                     0.085060
     17 H                     0.082535
     18 H                     0.085902
     19 H                     0.090019
     20 H                     0.074722
     21 H                     0.071287
     22 H                     0.074653
     23 H                     0.070373
     24 H                     0.085590
     25 H                     0.092230
     26 H                     0.088565
     27 H                     0.090314
     28 C                    -0.230277
     29 H                     0.077812
     30 H                     0.076658
     31 H                     0.102637
     32 C                    -0.227233
     33 H                     0.083347
     34 H                     0.083641
[...]
 C          0.000  0.000 -0.000    0.000  0.000 -0.000   -0.001  0.000 -0.001
 C         -0.000 -0.000  0.000    0.015  0.033  0.021    0.019  0.040  0.021
 C         -0.001  0.001 -0.001   -0.031  0.022 -0.030    0.011 -0.013  0.020
 C          0.000  0.000 -0.000    0.000  0.000  0.000   -0.001 -0.001 -0.001
 O         -0.000 -0.000  0.000   -0.000 -0.000 -0.000    0.000 -0.000  0.000
 H          0.001 -0.002 -0.004   -0.007  0.023  0.063    0.003 -0.010 -0.028
 H         -0.003  0.006 -0.020   -0.040  0.083 -0.283    0.081 -0.166  0.570
 H         -0.105  0.400  0.011    0.006 -0.024 -0.001   -0.005  0.021  0.001
 H          0.276  0.369  0.050    0.002  0.002  0.000    0.001  0.001  0.000
 H          0.001  0.001 -0.001   -0.305 -0.246  0.156   -0.374 -0.303  0.191
 H          0.000 -0.000 -0.000    0.136 -0.142 -0.402    0.148 -0.153 -0.430
 H          0.016 -0.001 -0.006    0.409 -0.031 -0.157   -0.152  0.010  0.062
 H         -0.002 -0.008  0.018   -0.046 -0.232  0.503    0.026  0.136 -0.290
 H          0.220 -0.048 -0.198   -0.014  0.003  0.012    0.011 -0.002 -0.010
 H          0.106 -0.135  0.370   -0.007  0.008 -0.023    0.006 -0.007  0.019
 H         -0.104 -0.205  0.437   -0.000 -0.001  0.002   -0.000 -0.000  0.001
 H          0.136 -0.221 -0.206    0.001 -0.001 -0.001    0.000 -0.000 -0.000
 C          0.001 -0.001  0.000   -0.005  0.005  0.000    0.000 -0.000  0.000
 H         -0.009 -0.002  0.004    0.070  0.018 -0.028   -0.003 -0.001  0.001
 H         -0.001  0.009 -0.008    0.006 -0.064  0.053   -0.000  0.004 -0.004
 H          0.003  0.001  0.004   -0.022 -0.010 -0.029   -0.000  0.001  0.002
 C         -0.000  0.000  0.000   -0.001  0.004 -0.002   -0.001  0.003 -0.001
 H         -0.001 -0.000  0.000   -0.037 -0.015  0.020   -0.026 -0.011  0.014
 H          0.002  0.001  0.002    0.033  0.007  0.034    0.028  0.005  0.030
 H          0.002 -0.003 -0.003    0.018 -0.034 -0.032    0.014 -0.027 -0.025
 TransDip  -0.225 -0.012 -0.045   -0.064  0.164 -0.005    0.090  0.115  0.052

 Mode:                88                     89                     90
 Frequency:      3067.79                3090.52                3099.09
 Force Cnst:      5.9456                 6.2290                 6.2368
 Red. Mass:       1.0722                 1.1069                 1.1022
 IR Active:          YES                    YES                    YES
 IR Intens:       28.291                  0.299                 12.917
 Raman Active:       YES                    YES                    YES
               X      Y      Z        X      Y      Z        X      Y      Z
 C         -0.001  0.004  0.010   -0.001  0.002  0.007   -0.001  0.002  0.006
 C         -0.007  0.017 -0.056    0.001 -0.003  0.009    0.000 -0.000  0.001
 C          0.000 -0.000  0.000   -0.000  0.000  0.000   -0.000  0.000  0.000
 C          0.000 -0.000 -0.001   -0.000  0.000  0.000    0.000 -0.000 -0.000
 O         -0.000  0.000 -0.000    0.000 -0.000 -0.000   -0.000 -0.000 -0.000
 O         -0.000 -0.000 -0.000    0.000 -0.000  0.000    0.000 -0.000 -0.000
 O         -0.000 -0.000  0.000   -0.000 -0.000 -0.000   -0.000  0.000  0.000
 O         -0.000  0.000  0.000    0.000 -0.000 -0.000   -0.000  0.000  0.000
 C         -0.000 -0.001 -0.000    0.000  0.000 -0.000   -0.000  0.000  0.000
 C          0.000 -0.000  0.000   -0.000 -0.000  0.000    0.000  0.000 -0.000
 C          0.001 -0.001  0.000    0.001  0.000 -0.000    0.000  0.000 -0.000
 C         -0.007 -0.019 -0.012    0.042  0.011 -0.053    0.017  0.004 -0.020
 C         -0.034  0.017 -0.017   -0.041 -0.011  0.045    0.002  0.001 -0.003
 C         -0.000  0.001  0.000   -0.000 -0.000  0.000   -0.001 -0.001  0.001
 O          0.000 -0.000  0.000   -0.000  0.000  0.000   -0.000  0.000 -0.000
 H          0.013 -0.044 -0.121    0.007 -0.030 -0.080    0.007 -0.025 -0.068
 H          0.095 -0.195  0.670   -0.015  0.034 -0.115   -0.001  0.003 -0.012
 H         -0.002  0.009  0.000    0.000 -0.001 -0.000    0.001 -0.003 -0.000
 H         -0.004 -0.005 -0.001    0.000  0.000  0.000   -0.001 -0.001 -0.000
 H          0.162  0.130 -0.083   -0.362 -0.302  0.170   -0.143 -0.119  0.068
 H         -0.075  0.079  0.219   -0.144  0.174  0.457   -0.055  0.066  0.173
 H          0.422 -0.034 -0.157    0.465 -0.042 -0.161   -0.018  0.003  0.008
 H         -0.034 -0.166  0.359    0.021  0.174 -0.375   -0.001 -0.015  0.027
 H          0.005 -0.001 -0.005   -0.001  0.000  0.001    0.000 -0.000 -0.000
 H          0.003 -0.002  0.007   -0.000  0.000 -0.001    0.000 -0.000  0.000
 H          0.002  0.003 -0.007    0.000  0.000 -0.001    0.000  0.000 -0.000
 H         -0.002  0.003  0.003   -0.000  0.000  0.000   -0.000  0.000  0.000
 C         -0.003  0.004  0.000    0.009  0.012 -0.011   -0.043 -0.054  0.055
 H          0.051  0.012 -0.020   -0.119 -0.030  0.042    0.611  0.147 -0.223
 H          0.005 -0.051  0.041    0.014 -0.112  0.093   -0.066  0.521 -0.430
 H         -0.020 -0.009 -0.026   -0.001  0.001 -0.009   -0.024 -0.020 -0.003
 C          0.000 -0.001  0.000   -0.006  0.000  0.002   -0.003  0.000  0.001
 H          0.009  0.004 -0.005    0.044  0.017 -0.021    0.024  0.010 -0.012
 H         -0.009 -0.001 -0.009    0.013  0.003  0.016    0.005  0.001  0.007
 H         -0.004  0.008  0.007    0.010 -0.023 -0.021    0.006 -0.013 -0.012
 TransDip  -0.114  0.055 -0.114    0.006  0.011 -0.012   -0.073 -0.061  0.065

 Mode:                91                     92                     93
 Frequency:      3108.45                3110.48                3116.83
 Force Cnst:      6.2810                 6.2743                 6.3109
 Red. Mass:       1.1033                 1.1007                 1.1026
 IR Active:          YES                    YES                    YES
 IR Intens:       14.351                 29.349                 19.996
 Raman Active:       YES                    YES                    YES
               X      Y      Z        X      Y      Z        X      Y      Z
 C          0.003 -0.010 -0.026    0.003 -0.009 -0.024   -0.000  0.003  0.006
 C          0.000 -0.000  0.002   -0.000  0.001 -0.001    0.000 -0.000  0.002
 C          0.000 -0.001 -0.001    0.001 -0.000 -0.000   -0.000  0.000 -0.000
 C          0.000  0.000  0.000    0.000  0.000  0.000   -0.000  0.000  0.000
 O         -0.000  0.000  0.000   -0.000 -0.000  0.000    0.000 -0.000 -0.000
 O          0.000  0.000  0.000    0.000  0.000 -0.000   -0.000 -0.000  0.000
 O         -0.000 -0.000  0.000   -0.000 -0.000  0.000    0.000 -0.000 -0.000
 O         -0.000 -0.000 -0.000   -0.000 -0.000 -0.000    0.000 -0.000 -0.000
 C         -0.000  0.000 -0.000    0.000 -0.000  0.000    0.000 -0.001  0.000
 C          0.000  0.001 -0.001   -0.000 -0.001  0.001   -0.001 -0.002  0.002
 C         -0.000 -0.000 -0.000   -0.001  0.000  0.002   -0.002 -0.001 -0.001
 C         -0.028 -0.008  0.032   -0.015 -0.005  0.017   -0.008 -0.002  0.010
 C         -0.040 -0.011  0.045   -0.017 -0.005  0.019   -0.006 -0.002  0.007
 C         -0.001 -0.001  0.001   -0.001 -0.000  0.001   -0.000 -0.000  0.000
 O          0.000  0.000 -0.000    0.000 -0.000 -0.000    0.000  0.000 -0.000
 H         -0.032  0.113  0.304   -0.029  0.104  0.280    0.008 -0.029 -0.077
 H         -0.001  0.006 -0.021    0.003 -0.004  0.013   -0.003  0.006 -0.020
 H          0.001 -0.004 -0.000   -0.000  0.000  0.000   -0.001  0.005  0.000
 H         -0.003 -0.004 -0.001    0.004  0.005  0.001    0.012  0.016  0.003
 H          0.243  0.205 -0.116    0.139  0.117 -0.065    0.076  0.061 -0.034
 H          0.085 -0.104 -0.266    0.046 -0.056 -0.145    0.027 -0.033 -0.086
 H          0.460 -0.043 -0.158    0.198 -0.019 -0.068    0.066 -0.006 -0.023
 H          0.021  0.178 -0.377    0.009  0.075 -0.159    0.003  0.028 -0.057
 H         -0.000 -0.000 -0.000   -0.000  0.000  0.000   -0.001  0.000  0.001
 H          0.000 -0.000  0.000   -0.001  0.001 -0.002   -0.001  0.002 -0.005
 H         -0.002 -0.004  0.009    0.001  0.003 -0.006    0.005  0.009 -0.021
 H          0.001 -0.001 -0.001   -0.000 -0.000 -0.000    0.001 -0.002 -0.002
 C         -0.009 -0.010  0.012   -0.004 -0.004  0.005   -0.001 -0.001  0.001
 H          0.132  0.031 -0.049    0.054  0.012 -0.020    0.014  0.003 -0.005
 H         -0.013  0.103 -0.084   -0.005  0.040 -0.033   -0.001  0.010 -0.008
 H         -0.011 -0.007 -0.010   -0.005 -0.003 -0.005   -0.002 -0.001 -0.002
 C          0.033 -0.008 -0.029   -0.043  0.023  0.064   -0.073 -0.037 -0.041
 H         -0.297 -0.125  0.147    0.459  0.197 -0.226    0.415  0.169 -0.229
 H          0.008 -0.002 -0.006   -0.154 -0.027 -0.134    0.552  0.117  0.572
 H         -0.105  0.224  0.207    0.214 -0.445 -0.412   -0.094  0.155  0.147
 TransDip  -0.082 -0.063  0.064   -0.126 -0.026  0.116   -0.133 -0.052 -0.004

 Mode:                94                     95                     96
 Frequency:      3118.50                3122.20                3123.44
 Force Cnst:      6.2428                 6.3578                 6.3638
 Red. Mass:       1.0895                 1.1070                 1.1071
 IR Active:          YES                    YES                    YES
 IR Intens:       26.201                 20.397                 13.956
 Raman Active:       YES                    YES                    YES
               X      Y      Z        X      Y      Z        X      Y      Z
 C          0.007 -0.026 -0.069    0.000  0.000 -0.000   -0.000  0.000  0.000
 C         -0.002  0.004 -0.011   -0.000  0.000 -0.000    0.000 -0.000  0.000
 C          0.001 -0.001 -0.001   -0.000 -0.000  0.000    0.000  0.000  0.000
 C          0.000  0.000 -0.000    0.000  0.000 -0.000   -0.000 -0.000 -0.000
 O         -0.000  0.000  0.000   -0.000 -0.000  0.000   -0.000 -0.000  0.000
 O          0.000  0.000  0.001   -0.000 -0.000  0.000   -0.000 -0.000 -0.000
 O         -0.000 -0.000  0.000   -0.000 -0.000  0.000   -0.000  0.000 -0.000
 O         -0.000  0.000  0.000   -0.000 -0.000  0.000    0.000  0.000 -0.000
 C          0.000 -0.001  0.001   -0.004  0.008 -0.005    0.032 -0.075  0.048
 C         -0.001 -0.000  0.000    0.048  0.067 -0.046    0.005  0.007 -0.005
 C          0.000 -0.001 -0.001   -0.000 -0.000  0.000    0.000  0.000 -0.000
 C          0.018  0.002 -0.026    0.000 -0.000 -0.000   -0.000  0.000  0.000
 C          0.014  0.005 -0.018    0.000  0.000 -0.000   -0.000 -0.000  0.000
 C         -0.000  0.001 -0.001    0.000  0.000 -0.000    0.000 -0.000  0.000
 O         -0.000  0.000  0.001    0.000 -0.000  0.000   -0.000  0.000 -0.000
 H         -0.088  0.301  0.814   -0.001  0.002  0.004    0.001 -0.002 -0.006
 H          0.019 -0.041  0.132    0.000 -0.001  0.002   -0.000  0.001 -0.001
 H         -0.001  0.006  0.000    0.020 -0.077 -0.004   -0.182  0.682  0.034
 H          0.006  0.008  0.001   -0.414 -0.563 -0.094   -0.045 -0.061 -0.010
 H         -0.142 -0.119  0.068   -0.000 -0.000  0.000    0.000  0.000 -0.000
 H         -0.079  0.094  0.248   -0.000  0.000  0.001    0.000 -0.000 -0.001
 H         -0.161  0.016  0.056   -0.002  0.000  0.001    0.001 -0.000 -0.000
 H         -0.009 -0.075  0.158   -0.000 -0.001  0.002    0.000  0.001 -0.002
 H          0.001 -0.000 -0.001    0.005  0.000 -0.006   -0.024 -0.008  0.036
 H         -0.001  0.002 -0.005    0.018 -0.023  0.068   -0.170  0.214 -0.635
 H          0.001 -0.000 -0.000   -0.141 -0.272  0.619   -0.016 -0.031  0.069
 H          0.002 -0.004 -0.004   -0.009  0.043  0.019   -0.002  0.006  0.004
 C          0.002  0.002 -0.002    0.000  0.000 -0.000   -0.000 -0.000  0.000
 H         -0.026 -0.006  0.010   -0.001 -0.000  0.001    0.001  0.000 -0.001
 H          0.003 -0.020  0.016    0.000 -0.001  0.001   -0.000  0.002 -0.002
 H          0.001  0.001  0.001    0.000  0.000 -0.000   -0.000 -0.000 -0.000
 C         -0.005 -0.009 -0.014   -0.003 -0.001 -0.001    0.000  0.000  0.000
 H          0.004  0.000 -0.005    0.020  0.008 -0.011   -0.003 -0.001  0.001
 H          0.097  0.019  0.098    0.017  0.004  0.019   -0.003 -0.001 -0.003
 H         -0.044  0.087  0.080   -0.000 -0.002 -0.002    0.000 -0.001 -0.001
 TransDip   0.051 -0.030 -0.153    0.068  0.104 -0.073    0.039 -0.101  0.052

 Mode:                97                     98                     99
 Frequency:      3152.50                3156.26                3165.26
 Force Cnst:      6.4790                 6.4922                 6.4723
 Red. Mass:       1.1065                 1.1061                 1.0964
 IR Active:          YES                    YES                    YES
 IR Intens:       14.038                 14.380                  2.134
 Raman Active:       YES                    YES                    YES
               X      Y      Z        X      Y      Z        X      Y      Z
 C         -0.000  0.000  0.000    0.000  0.000 -0.000    0.000 -0.000 -0.000
 C          0.000 -0.000 -0.000   -0.000  0.000 -0.000    0.000 -0.000 -0.000
 C         -0.000  0.000  0.000   -0.001 -0.000 -0.001    0.000 -0.000 -0.000
 C          0.000  0.001  0.001   -0.000  0.000 -0.000    0.000 -0.000 -0.000
 O          0.000 -0.000 -0.000   -0.000  0.000  0.000   -0.000  0.000 -0.000
 O         -0.000 -0.000 -0.000    0.000  0.000  0.000    0.000  0.000  0.000
 O          0.000 -0.000 -0.000    0.000 -0.000  0.000   -0.000  0.000  0.000
 O         -0.000 -0.000 -0.000    0.000 -0.000  0.000   -0.001 -0.000  0.000
 C         -0.052  0.025  0.075    0.000  0.000 -0.001    0.000 -0.000 -0.000
 C         -0.000 -0.001 -0.000    0.019 -0.062 -0.069    0.000 -0.000 -0.000
 C          0.000  0.000  0.000   -0.000 -0.000  0.000    0.000 -0.000 -0.000
 C         -0.000  0.000  0.000    0.000 -0.000 -0.000   -0.000  0.000 -0.000
 C         -0.000 -0.000  0.000   -0.000  0.000 -0.000   -0.001  0.000  0.001
 C          0.000  0.000  0.000   -0.000  0.000 -0.000   -0.001  0.000 -0.001
 O         -0.000 -0.000 -0.000    0.000  0.000  0.000    0.000 -0.000  0.000
 H          0.000 -0.001 -0.002    0.000  0.000  0.002   -0.000  0.001  0.002
 H         -0.000 -0.000 -0.001    0.000 -0.000  0.000   -0.000 -0.001  0.003
 H          0.067 -0.279  0.008    0.000 -0.001 -0.000   -0.000  0.002 -0.000
 H          0.003  0.004  0.001    0.201  0.258  0.023    0.000  0.000  0.000
 H         -0.000 -0.000  0.000    0.000  0.000 -0.000    0.000  0.000 -0.000
 H          0.000 -0.000 -0.001   -0.000  0.000  0.001   -0.000  0.000  0.002
 H          0.000 -0.000 -0.000    0.000 -0.000 -0.000    0.011  0.000 -0.003
 H          0.000  0.000 -0.000   -0.000 -0.000  0.000    0.000  0.002 -0.005
 H          0.649 -0.143 -0.589   -0.003  0.001  0.003   -0.003  0.001  0.002
 H         -0.099  0.123 -0.307    0.001 -0.001  0.004    0.000 -0.000  0.001
 H          0.000  0.000 -0.001   -0.059 -0.129  0.238   -0.000 -0.000  0.000
 H         -0.002  0.003  0.003   -0.367  0.600  0.559   -0.000  0.001  0.001
 C         -0.000  0.000 -0.000    0.000  0.000  0.000   -0.063 -0.015 -0.063
 H         -0.000 -0.000  0.000    0.000  0.000 -0.000    0.199  0.053 -0.086
 H          0.000 -0.001  0.001   -0.000  0.000 -0.000    0.004 -0.151  0.113
 H          0.003  0.001  0.003   -0.001 -0.000 -0.001    0.560  0.272  0.720
 C         -0.000  0.000  0.000   -0.000 -0.000 -0.000   -0.000 -0.000 -0.000
 H         -0.000 -0.000  0.000    0.001  0.001 -0.001    0.000  0.000 -0.000
 H         -0.000  0.000 -0.000    0.001  0.000  0.002    0.001  0.000  0.001
 H          0.000 -0.000 -0.000   -0.000  0.001  0.001   -0.000  0.001  0.000
 TransDip  -0.083  0.021  0.084    0.045 -0.084 -0.075   -0.023 -0.005 -0.041

 STANDARD THERMODYNAMIC QUANTITIES AT   298.15 K  AND     1.00 ATM

   This Molecule has  0 Imaginary Frequencies
   Zero point vibrational energy:      183.653 kcal/mol

   Atom    1 Element C  Has Mass   12.00000
   Atom    2 Element C  Has Mass   12.00000
   Atom    3 Element C  Has Mass   12.00000
   Atom    4 Element C  Has Mass   12.00000
   Atom    5 Element O  Has Mass   15.99491
   Atom    6 Element O  Has Mass   15.99491
   Atom    7 Element O  Has Mass   15.99491
   Atom    8 Element O  Has Mass   15.99491
   Atom    9 Element C  Has Mass   12.00000
   Atom   10 Element C  Has Mass   12.00000
   Atom   11 Element C  Has Mass   12.00000
   Atom   12 Element C  Has Mass   12.00000
   Atom   13 Element C  Has Mass   12.00000
   Atom   14 Element C  Has Mass   12.00000
   Atom   15 Element O  Has Mass   15.99491
   Atom   16 Element H  Has Mass    1.00783
   Atom   17 Element H  Has Mass    1.00783
   Atom   18 Element H  Has Mass    1.00783
   Atom   19 Element H  Has Mass    1.00783
   Atom   20 Element H  Has Mass    1.00783
   Atom   21 Element H  Has Mass    1.00783
   Atom   22 Element H  Has Mass    1.00783
   Atom   23 Element H  Has Mass    1.00783
   Atom   24 Element H  Has Mass    1.00783
   Atom   25 Element H  Has Mass    1.00783
   Atom   26 Element H  Has Mass    1.00783
   Atom   27 Element H  Has Mass    1.00783
   Atom   28 Element C  Has Mass   12.00000
   Atom   29 Element H  Has Mass    1.00783
   Atom   30 Element H  Has Mass    1.00783
   Atom   31 Element H  Has Mass    1.00783
   Atom   32 Element C  Has Mass   12.00000
   Atom   33 Element H  Has Mass    1.00783
   Atom   34 Element H  Has Mass    1.00783
   Atom   35 Element H  Has Mass    1.00783
   Molecular Mass:   242.115490 amu
   Principal axes and moments of inertia in amu*Bohr^2:
                             1           2           3
    Eigenvalues --     2977.16307  3617.36908  5613.91588
          X               0.99992    -0.01153     0.00565
          Y               0.01156     0.99992    -0.00479
          Z              -0.00559     0.00486     0.99997
   Rotational Symmetry Number is   1
   The Molecule is an Asymmetric Top
   Translational Enthalpy:        0.889 kcal/mol
   Rotational Enthalpy:           0.889 kcal/mol
   Vibrational Enthalpy:        192.705 kcal/mol
   gas constant (RT):             0.592 kcal/mol
   Translational Entropy:        42.354  cal/mol.K
   Rotational Entropy:           32.469  cal/mol.K
   Vibrational Entropy:          58.057  cal/mol.K

   Total Enthalpy:              195.075 kcal/mol
   Total Entropy:               132.879  cal/mol.K
Archival summary:
1\1\nid04265\FREQ\ProcedureUnspecified\BasisUnspecified\51218\junteng\WedOct422:35:152017WedOct422:35:152017\0\\#,FREQ,ProcedureUnspecified,BasisUnspecified,\\0,1\O\C,1,1.43123\C,1,1.44194,2,99.1123\C,2,1.5129,1,110.848,3,179.426,0\H,4,1.09144,2,110.815,1,56.9499,0\H,4,1.09187,2,109.672,1,-62.5514,0\H,4,1.0929,2,110.562,1,177.729,0\C,3,1.51341,1,110.754,2,-176.294,0\H,8,1.08662,3,111.126,1,-55.4298,0\H,8,1.0926,3,109.189,1,65.5919,0\H,8,1.09343,3,110.321,1,-175.357,0\C,2,1.54978,1,102.587,3,55.1807,0\H,12,1.09169,2,112.545,1,-155.608,0\H,12,1.09187,2,109.572,1,84.3564,0\C,12,1.5497,2,101.436,1,-33.5019,0\H,15,1.09122,12,111.239,2,117.27,0\H,15,1.09195,12,113.712,2,-120.81,0\C,3,1.56375,1,102.12,2,55.7471,0\H,18,1.09298,3,110.058,1,-148.074,0\C,18,1.52256,3,117.907,1,92.2185,0\O,20,1.20179,18,128.219,3,2.91399,0\O,20,1.35679,18,108.566,3,179.825,0\C,22,1.43912,20,115.76,18,174.68,0\H,23,1.08806,22,105.478,20,-179.309,0\H,23,1.09097,22,110.73,20,61.0629,0\H,23,1.09117,22,109.848,20,-59.9413,0\C,18,1.56727,3,101.729,1,-33.1519,0\H,27,1.0884,18,111.66,3,-117.363,0\C,27,1.51191,18,115.416,3,119.51,0\O,29,1.20569,27,126.472,18,-38.9626,0\O,29,1.35293,27,110.21,18,143.892,0\C,31,1.43949,29,115.91,27,176.733,0\H,32,1.08777,31,105.476,29,177.827,0\H,32,1.09088,31,110.456,29,58.2238,0\H,32,1.09128,31,110.483,29,-62.6351,0\\\@

 Total job time:  14055.53s(wall), 84629.04s(cpu) 
 Wed Oct  4 22:35:15 2017

        *************************************************************
        *                                                           *
        *  Thank you very much for using Q-Chem.  Have a nice day.  *
        *                                                           *
        *************************************************************


