nid03053 10.128.12
Q-Chem Developer Version! Running on 10.128.12.*
                  Welcome to Q-Chem
     A Quantum Leap Into The Future Of Chemistry


 Q-Chem 5.0, Q-Chem, Inc., Pleasanton, CA (2017)

 Yihan Shao,  Zhengting Gan,  E. Epifanovsky,  A. T. B. Gilbert,  M. Wormit,  
 J. Kussmann,  A. W. Lange,  A. Behn,  Jia Deng,  Xintian Feng,  D. Ghosh,  
 M. Goldey,  P. R. Horn,  L. D. Jacobson,  I. Kaliman,  T. Kus,  A. Landau,  
 Jie Liu,  E. I. Proynov,  R. M. Richard,  R. P. Steele,  E. J. Sundstrom,  
 H. L. Woodcock III,  P. M. Zimmerman,  D. Zuev,  B. Albrecht,  E. Alguire,  
 S. A. Baeppler,  Z. Benda,  Y. A. Bernard,  E. J. Berquist,  K. B. Bravaya,  
 D. Casanova,  Chun-Min Chang,  Yunqing Chen,  A. Chien,  K. D. Closser,  
 M. P. Coons,  S. Dasgupta,  M. Diedenhofen,  Hainam Do,  R. G. Edgar,  
 Po-Tung Fang,  S. Fatehi,  Qingguo Feng,  Qinghui Ge,  A. Ghysels,  
 J. Gomes,  J. Gonthier,  A. Gunina,  M. W. D. Hanson-Heine,  
 P. H. P. Harbach,  A. W. Hauser,  J. E. Herr,  E. G. Hohenstein,  
 Z. C. Holden,  Kerwin Hui,  T.-C. Jagau,  Hyunjun Ji,  B. Kaduk,  
 K. Khistyaev,  Jaehoon Kim,  P. Klunzinger,  K. Koh,  D. Kosenkov,  
 T. Kowalczyk,  C. M. Krauter,  A. Kunitsa,  Ka Un Lao,  A. Laurent,  
 K. V. Lawler,  Joonho Lee,  D. Lefrancois,  S. Lehtola,  D. S. Levine,  
 Yi-Pei Li,  You-Sheng Lin,  Fenglai Liu,  E. Livshits,  A. Luenser,  
 P. Manohar,  E. Mansoor,  S. F. Manzer,  Shan-Ping Mao,  Yuezhi Mao,  
 N. Mardirossian,  A. V. Marenich,  L. A. Martinez-Martinez,  S. A. Maurer,  
 N. J. Mayhall,  S. C. McKenzie,  J.-M. Mewes,  A. F. Morrison,  K. Nanda,  
 T. S. Nguyen-Beck,  R. Olivares-Amaya,  J. A. Parkhill,  T. M. Perrine,  
 F. Plasser,  S. Prager,  A. Prociuk,  D. R. Rehn,  F. Rob,  M. Schneider,  
 N. Sergueev,  S. M. Sharada,  S. Sharma,  D. W. Small,  T. Stauch,  
 T. Stein,  Yu-Chuan Su,  A. J. W. Thom,  T. Tsuchimochi,  L. Vogt,  
 O. Vydrov,  M. A. Watson,  J. Wenzel,  M. de Wergifosse,  T. A. Wesolowski,  
 A. White,  J. Witte,  A. Yamada,  Jun Yang,  K. Yao,  S. Yeganeh,  
 S. R. Yost,  Zhi-Qiang You,  A. Zech,  Igor Ying Zhang,  Xing Zhang,  
 Yan Zhao,  Ying Zhu,  B. R. Brooks,  G. K. L. Chan,  C. J. Cramer,  
 M. S. Gordon,  W. J. Hehre,  A. Klamt,  M. W. Schmidt,  C. D. Sherrill,  
 D. G. Truhlar,  A. Aspuru-Guzik,  R. Baer,  A. T. Bell,  N. A. Besley,  
 Jeng-Da Chai,  A. Dreuw,  B. D. Dunietz,  T. R. Furlani,  Chao-Ping Hsu,  
 Yousung Jung,  Jing Kong,  D. S. Lambrecht,  WanZhen Liang,  C. Ochsenfeld,  
 V. A. Rassolov,  L. V. Slipchenko,  J. E. Subotnik,  T. Van Voorhis,  
 J. M. Herbert,  A. I. Krylov,  P. M. W. Gill,  M. Head-Gordon

 Contributors to earlier versions of Q-Chem not listed above: 
 R. D. Adamson,  B. Austin,  J. Baker,  G. J. O. Beran,  K. Brandhorst,  
 S. T. Brown,  E. F. C. Byrd,  A. K. Chakraborty,  C.-L. Cheng,  
 Siu Hung Chien,  D. M. Chipman,  D. L. Crittenden,  H. Dachsel,  
 R. A. DiStasio Jr.,  R. J. Doerksen,  A. D. Dutoi,  L. Fusti-Molnar,  
 W. A. Goddard III,  A. Golubeva-Zadorozhnaya,  S. R. Gwaltney,  G. Hawkins,  
 A. Heyden,  S. Hirata,  G. Kedziora,  F. J. Keil,  C. Kelley,  Jihan Kim,  
 R. A. King,  R. Z. Khaliullin,  P. P. Korambath,  W. Kurlancheek,  
 A. M. Lee,  M. S. Lee,  S. V. Levchenko,  Ching Yeh Lin,  D. Liotard,  
 R. C. Lochan,  I. Lotan,  P. E. Maslen,  N. Nair,  D. P. O'Neill,  
 D. Neuhauser,  E. Neuscamman,  C. M. Oana,  R. Olson,  B. Peters,  
 R. Peverati,  P. A. Pieniazek,  Y. M. Rhee,  J. Ritchie,  M. A. Rohrdanz,  
 E. Rosta,  N. J. Russ,  H. F. Schaefer III,  N. E. Schultz,  N. Shenvi,  
 A. C. Simmonett,  A. Sodt,  D. Stuck,  K. S. Thanthiriwatte,  V. Vanovschi,  
 Tao Wang,  A. Warshel,  C. F. Williams,  Q. Wu,  X. Xu,  W. Zhang

 Please cite Q-Chem as follows:
 Y. Shao et al., Mol. Phys. 113, 184-215 (2015)
 DOI: 10.1080/00268976.2014.952696

 Q-Chem 5.0.0 for Intel X86 EM64T Linux

 Parts of Q-Chem use Armadillo 5.200.1 (Boston Tea Smuggler).
 http://arma.sourceforge.net/

 Q-Chem begins on Wed Oct  4 18:26:25 2017  

Host: nid03053
0

     Scratch files written to /global/cscratch1/sd/junteng/scratch/18/opt_11n11++.save//

Checking the input file for inconsistencies... 	...done.

--------------------------------------------------------------
User input:
--------------------------------------------------------------
$molecule
0  1
C    0.304  -2.425   0.241
C   -0.187  -2.670   1.539
C    0.664  -1.037  -0.131
C   -0.223  -1.586   2.547
O    1.892  -1.027  -0.706
O   -0.050  -0.071   0.073
O    1.036  -1.102   2.698
O   -1.208  -1.281   3.197
C    1.131  -0.051   3.659
C    2.346   0.277  -1.069
C    0.337  -3.468  -0.713
C   -0.078  -4.750  -0.324
C   -0.556  -4.992   0.965
C   -0.619  -3.961   1.912
H    0.496   0.792   3.371
H    1.683   0.717  -1.820
H   -0.885  -5.997   1.223
H    0.862  -0.417   4.655
H    2.169   0.291   3.685
H    3.345   0.180  -1.503
H    2.413   0.921  -0.186
H   -0.050  -5.576  -1.034
C   -1.153  -4.262   3.286
C    0.800  -3.263  -2.130
H    0.377  -2.346  -2.553
H    0.472  -4.085  -2.776
H    1.893  -3.221  -2.170
H   -2.134  -3.796   3.422
H   -0.464  -3.904   4.057
H   -1.273  -5.340   3.441
$end


$opt
CONSTRAINT
tors    2    1    3    5    140.2
tors    1    2    4    7    -52.3
ENDCONSTRAINT
$end

$rem
JOBTYPE                   OPT
METHOD                    B3LYP
DFT_D                     D3_OP
BASIS                     STO-3G
GEOM_OPT_MAX_CYCLES       500
SYMMETRY                  False
THRESH                    12
SCF_CONVERGENCE           8
MAX_SUB_FILE_NUM          128
MEM_STATIC                400
MEM_TOTAL                 4000
$end

--------------------------------------------------------------
 Adding empirical dispersion correction 
 ----------------------------------------------------------------
 Doing -D3(op) with
 s6 =   1.00000
 s8 =   0.78311
 a1 =   0.30000
 a2 =   4.25000
 n  =  10.00000
 -D3 energy without 3body term =     -0.0331083887 hartrees
 ----------------------------------------------------------------
             Standard Nuclear Orientation (Angstroms)
    I     Atom           X                Y                Z
 ----------------------------------------------------------------
    1      C       0.4125011125    -0.6355076896    -0.1241194854
    2      C      -0.9199718424    -0.1775825584    -0.0970935988
    3      C       1.4909203662     0.3367582974    -0.4177838583
    4      C      -1.2227722681     1.2652754643    -0.2345295060
    5      O       2.4794071129     0.2069212582     0.5013164054
    6      O       1.4599007613     1.1281261782    -1.3437118584
    7      O      -0.5671603921     1.9341318938     0.7477851812
    8      O      -2.0192894914     1.7300109239    -1.0316062059
    9      C      -0.7911410252     3.3435492204     0.7249274575
   10      C       3.5538033154     1.1302705963     0.3241165186
   11      C       0.6908325096    -2.0150972909     0.0112251320
   12      C      -0.3765806243    -2.9000235158     0.2224235647
   13      C      -1.6950140119    -2.4427633611     0.2572883515
   14      C      -1.9865449822    -1.0814074782     0.0977300441
   15      H      -0.4624112412     3.7697958433    -0.2274740049
   16      H       4.0453282984     0.9641147078    -0.6391930950
   17      H      -2.4970302573    -3.1634910569     0.4061222542
   18      H      -1.8474376543     3.5666794906     0.9059890877
   19      H      -0.2002982988     3.7931790170     1.5273126011
   20      H       4.2838919982     0.9582831261     1.1198280401
   21      H       3.1925407862     2.1609409489     0.4023597877
   22      H      -0.1906002296    -3.9666582263     0.3443320837
   23      C      -3.4222635693    -0.6326602424     0.1288918324
   24      C       2.0849910947    -2.5767940219    -0.0602005081
   25      H       2.6449814024    -2.1343937269    -0.8905256458
   26      H       2.0671057384    -3.6580417916    -0.2367433488
   27      H       2.6144009167    -2.3996751371     0.8812702249
   28      H      -3.7454857248    -0.3261374563    -0.8709002559
   29      H      -3.5543120453     0.1968300833     0.8302013215
   30      H      -4.0860980650    -1.4390523749     0.4598971058
 ----------------------------------------------------------------
 Molecular Point Group                 C1    NOp =  1
 Largest Abelian Subgroup              C1    NOp =  1
 Nuclear Repulsion Energy =  1141.1730988225 hartrees
 There are       59 alpha and       59 beta electrons
 Requested basis set is STO-3G
 There are 46 shells and 94 basis functions

 Total QAlloc Memory Limit   4000 MB
 Mega-Array Size       392 MB
 MEM_STATIC part       400 MB
 A cutoff of  1.0D-12 yielded    921 shell pairs
 There are      4311 function pairs
 
 -------------------------------------------------------
 OpenMP Integral Computing Module                       
 Release: version 1.0, May 2013, Q-Chem Inc. Pittsburgh 
 -------------------------------------------------------
 Integral Job Info:
 Integral job number is                      11
 Integral operator is                         1
 short-range coefficients                     0
 long-range coefficients              100000000
 Omega coefficients                           0
 if combine SR and LR in K                    0
 Integral screening is                        0
 Integral computing path is                   2
 max size of driver memory is            800000
 size of driver memory is                 45569
 size of scratch memory is               945100
 max col of scratch BK array                289
 max len of scratch array in speh3           22
 max len of scratch index in speh4            8
 max int batch size is                      520
 min int batch size is                       52
 fixed nKL is                                52
 max L of basis functions is                  1
 order of int derivative is                   0
 number of shells is                         46
 number of basis is                          94
 number of cartesian basis is                94
 number of contracted shell pairs           921
 number of primitive shell pairs           4930
 maxK2 (contraction) of shell pair            9
 max number of K2 of shell pair               1
 max number of CS2 of shell pair            151
 max number of PS2 of shell pair            660
 mem total for path MDJ                   29642
 -------------------------------------------------------
 Smallest overlap matrix eigenvalue = 1.76E-01

 Scale SEOQF with 1.000000e-01/1.000000e-01/1.000000e+00

 Standard Electronic Orientation quadrupole field applied
 Nucleus-field energy     =    -0.0000000013 hartrees
 Guess from superposition of atomic densities
 Warning:  Energy on first SCF cycle will be non-variational
 A restricted hybrid HF-DFT SCF calculation will be
 performed using Pulay DIIS extrapolation
 Exchange:     0.2000 Hartree-Fock + 0.0800 Slater + 0.7200 B88
 Correlation:  0.1900 VWN1RPA + 0.8100 LYP
 Using SG-1 standard quadrature grid
 Dispersion:   Grimme D3
 SCF converges when DIIS error is below 1.0E-08
 -------------------------------------------------------
 OpenMP Integral computing Module                
 Release: version 1.0, May 2013, Q-Chem Inc. Pittsburgh 
 -------------------------------------------------------
 -------------------------------------------------------
 OpenMP BLAS3 based DFT computing Module                
 Release: version 1.0, May 2013, Q-Chem Inc. Pittsburgh 
 -------------------------------------------------------
 ---------------------------------------
  Cycle       Energy         DIIS Error
 ---------------------------------------
    1    -756.4854003916      1.14E-01
    2    -756.5487627268      1.27E-02
    3    -755.4707920431      3.40E-02
    4    -756.7513971877      4.53E-03
    5    -756.7739817500      1.66E-03
    6    -756.7772694929      3.92E-04
    7    -756.7774746141      1.05E-04
    8    -756.7774914576      3.18E-05
    9    -756.7774924185      1.90E-05
   10    -756.7774928824      3.60E-06
   11    -756.7774928987      8.95E-07
   12    -756.7774928997      2.23E-07
   13    -756.7774928998      8.13E-08
   14    -756.7774928998      3.01E-08
   15    -756.7774928998      6.43E-09 Convergence criterion met
 ---------------------------------------
 SCF time:  CPU 84.38 s  wall 3.60 s
 SCF   energy in the final basis set = -756.7774928998
 Total energy in the final basis set = -756.7774928998
 
 --------------------------------------------------------------
 
                    Orbital Energies (a.u.)
 --------------------------------------------------------------
 
 Alpha MOs
 -- Occupied --
-18.949 -18.946 -18.868 -18.867 -10.115 -10.112 -10.075 -10.072
-10.020 -10.019 -10.017 -10.016 -10.015 -10.013 -10.004 -10.003
 -1.048  -1.042  -0.958  -0.955  -0.820  -0.752  -0.730  -0.692
 -0.683  -0.672  -0.622  -0.590  -0.562  -0.506  -0.500  -0.461
 -0.453  -0.447  -0.432  -0.425  -0.415  -0.398  -0.392  -0.385
 -0.382  -0.369  -0.357  -0.350  -0.346  -0.339  -0.326  -0.321
 -0.309  -0.293  -0.287  -0.250  -0.248  -0.197  -0.184  -0.181
 -0.180  -0.152  -0.148
 -- Virtual --
  0.062   0.077   0.130   0.142   0.242   0.288   0.309   0.353
  0.372   0.389   0.394   0.406   0.410   0.436   0.440   0.445
  0.446   0.452   0.455   0.457   0.460   0.468   0.471   0.475
  0.484   0.492   0.504   0.577   0.590   0.602   0.627   0.702
  0.709   0.786   0.800
 --------------------------------------------------------------
 
          Ground-State Mulliken Net Atomic Charges

     Atom                 Charge (a.u.)
  ----------------------------------------
      1 C                    -0.020315
      2 C                    -0.018928
      3 C                     0.235748
      4 C                     0.236538
      5 O                    -0.181275
      6 O                    -0.229574
      7 O                    -0.184253
      8 O                    -0.224009
      9 C                    -0.127614
     10 C                    -0.126341
     11 C                     0.009809
     12 C                    -0.080336
     13 C                    -0.080433
     14 C                     0.010066
     15 H                     0.096676
     16 H                     0.093049
     17 H                     0.079304
     18 H                     0.092734
     19 H                     0.094731
     20 H                     0.096134
     21 H                     0.093638
     22 H                     0.078551
     23 C                    -0.231252
     24 C                    -0.229602
     25 H                     0.082934
     26 H                     0.080995
     27 H                     0.092446
     28 H                     0.095901
     29 H                     0.084121
     30 H                     0.080559
  ----------------------------------------
  Sum of atomic charges =    -0.000000

 -----------------------------------------------------------------
                    Cartesian Multipole Moments
 -----------------------------------------------------------------
    Charge (ESU x 10^10)
                -0.0000
    Dipole Moment (Debye)
         X       1.2962      Y      -0.1010      Z       1.7364
       Tot       2.1692
    Quadrupole Moments (Debye-Ang)
        XX     -77.8750     XY       2.5850     YY     -77.1677
        XZ      -2.0609     YZ       4.6538     ZZ     -90.4602
    Octopole Moments (Debye-Ang^2)
       XXX      31.3988    XXY       6.2045    XYY       3.2220
       YYY      33.1978    XXZ       7.9534    XYZ      -0.8801
       YYZ      11.8410    XZZ       4.7944    YZZ       7.2816
       ZZZ      -1.5429
    Hexadecapole Moments (Debye-Ang^3)
      XXXX   -1962.7992   XXXY      47.3519   XXYY    -646.4083
      XYYY     -13.2508   YYYY   -1735.6892   XXXZ      -1.7022
      XXYZ      17.5216   XYYZ      -9.7525   YYYZ      13.7299
      XXZZ    -388.8525   XYZZ      -6.2694   YYZZ    -361.9148
      XZZZ       9.5993   YZZZ       1.8299   ZZZZ    -235.9432
 -----------------------------------------------------------------
 Calculating analytic gradient of the SCF energy
 Gradient of SCF Energy
            1           2           3           4           5           6
    1   0.0213257  -0.0080944   0.0219533   0.0038728  -0.0213627  -0.0049191
    2   0.0280999   0.0335195   0.0130442   0.0252676   0.0316096  -0.0513407
    3  -0.0060298  -0.0071836  -0.0015978   0.0068760  -0.0526758   0.0521430
            7           8           9          10          11          12
    1  -0.0435928   0.0411236   0.0034144  -0.0167356   0.0111495   0.0041761
    2   0.0026304  -0.0357710  -0.0228437  -0.0142570   0.0022105   0.0017290
    3  -0.0483522   0.0435054  -0.0000375   0.0032563  -0.0024467   0.0009026
           13          14          15          16          17          18
    1  -0.0031860  -0.0059502   0.0008837  -0.0064515   0.0072787   0.0118702
    2   0.0033800   0.0100336  -0.0081916  -0.0041587   0.0033181  -0.0067733
    3  -0.0007584   0.0006345   0.0113512   0.0120997  -0.0015351   0.0021588
           19          20          21          22          23          24
    1  -0.0064546  -0.0051214   0.0007536  -0.0036346   0.0171200  -0.0151163
    2  -0.0018106   0.0037889  -0.0128389   0.0064391  -0.0027253   0.0083908
    3  -0.0085387  -0.0084767   0.0036917  -0.0000443  -0.0037533   0.0048797
           25          26          27          28          29          30
    1  -0.0053769   0.0027466  -0.0067816   0.0030568   0.0020212   0.0000315
    2  -0.0049794   0.0040361  -0.0027634  -0.0060541  -0.0076737   0.0046841
    3   0.0005309  -0.0013090  -0.0034106   0.0044744  -0.0000072  -0.0003474
 Max gradient component =       5.268E-02
 RMS gradient           =       1.699E-02
 Gradient time:  CPU 18.71 s  wall 0.87 s
 Geometry Optimization Parameters
   NAtoms,    NIC,     NZ,  NCons,   NDum,   NFix, NCnnct, MaxDiis
       30     194       0       2       0       0       0       0


** CONSTRAINED OPTIMIZATION IN DELOCALIZED INTERNAL COORDINATES **
   Searching for a Minimum

   Optimization Cycle:   1

                       Coordinates (Angstroms)
     ATOM                X               Y               Z
      1  C         0.4125011125   -0.6355076896   -0.1241194854
      2  C        -0.9199718424   -0.1775825584   -0.0970935988
      3  C         1.4909203662    0.3367582974   -0.4177838583
      4  C        -1.2227722681    1.2652754643   -0.2345295060
      5  O         2.4794071129    0.2069212582    0.5013164054
      6  O         1.4599007613    1.1281261782   -1.3437118584
      7  O        -0.5671603921    1.9341318938    0.7477851812
      8  O        -2.0192894914    1.7300109239   -1.0316062059
      9  C        -0.7911410252    3.3435492204    0.7249274575
     10  C         3.5538033154    1.1302705963    0.3241165186
     11  C         0.6908325096   -2.0150972909    0.0112251320
     12  C        -0.3765806243   -2.9000235158    0.2224235647
     13  C        -1.6950140119   -2.4427633611    0.2572883515
     14  C        -1.9865449822   -1.0814074782    0.0977300441
     15  H        -0.4624112412    3.7697958433   -0.2274740049
     16  H         4.0453282984    0.9641147078   -0.6391930950
     17  H        -2.4970302573   -3.1634910569    0.4061222542
     18  H        -1.8474376543    3.5666794906    0.9059890877
     19  H        -0.2002982988    3.7931790170    1.5273126011
     20  H         4.2838919982    0.9582831261    1.1198280401
     21  H         3.1925407862    2.1609409489    0.4023597877
     22  H        -0.1906002296   -3.9666582263    0.3443320837
     23  C        -3.4222635693   -0.6326602424    0.1288918324
     24  C         2.0849910947   -2.5767940219   -0.0602005081
     25  H         2.6449814024   -2.1343937269   -0.8905256458
     26  H         2.0671057384   -3.6580417916   -0.2367433488
     27  H         2.6144009167   -2.3996751371    0.8812702249
     28  H        -3.7454857248   -0.3261374563   -0.8709002559
     29  H        -3.5543120453    0.1968300833    0.8302013215
     30  H        -4.0860980650   -1.4390523749    0.4598971058
   Point Group: c1    Number of degrees of freedom:    84


   Energy is   -756.777492900

              Constraints and their Current Values
                                        Value     Constraint
   Dihedral:        2   1   3   5      131.435      140.200
   Dihedral:        1   2   4   7      -57.239      -52.300

 Attempting to Generate Delocalized Internal Coordinates

   Using Lagrange Multiplier Algorithm


 86 Hessian modes will be used to form the next step
  Hessian Eigenvalues:
    -0.977753   -0.977753    0.045000    0.045000    0.045000    0.045000
     0.045000    0.045000    0.045000    0.045000    0.045000    0.045001
     0.045002    0.045003    0.045005    0.045012    0.045013    0.045137
     0.045284    0.093755    0.094007    0.094234    0.094419    0.113828
     0.113875    0.116854    0.116890    0.159975    0.159998    0.160000
     0.160000    0.160000    0.160000    0.160000    0.160000    0.160000
     0.160000    0.160000    0.160000    0.160000    0.160000    0.224723
     0.244737    0.248923    0.249138    0.249624    0.249908    0.249990
     0.249993    0.250000    0.250000    0.250000    0.250000    0.250000
     0.318837    0.319059    0.341608    0.341647    0.342469    0.342555
     0.342769    0.342935    0.342935    0.343290    0.343371    0.343554
     0.344100    0.344105    0.344456    0.344917    0.348625    0.349867
     0.408089    0.409183    0.413229    0.413817    0.437594    0.446154
     0.449565    0.458786    0.535065    0.537664    0.958663    0.960829
     1.022753    1.022753

 Minimum Search - Taking P-RFO Step
 Searching for Lamda that Maximizes Along the Constraint modes Only
 Value Taken    Lamda =   0.01506983
 Searching for Lamda that Minimizes Along All other modes
 Value Taken    Lamda =  -0.06903719
 Calculated Step too Large.  Step scaled by  0.795937
 Step Taken.  Stepsize is  0.300000

                             Maximum     Tolerance    Cnvgd?
         Gradient            0.152983       0.000300      NO
         Displacement        0.119475       0.001200      NO
         Energy change     *********       0.000001      NO


 New Cartesian Coordinates Obtained by Inverse Iteration

 Displacement from previous Coordinates is:  0.954415
 Adding empirical dispersion correction 
 ----------------------------------------------------------------
 Doing -D3(op) with
 s6 =   1.00000
 s8 =   0.78311
 a1 =   0.30000
 a2 =   4.25000
 n  =  10.00000
 -D3 energy without 3body term =     -0.0327897848 hartrees
 ----------------------------------------------------------------
             Standard Nuclear Orientation (Angstroms)
    I     Atom           X                Y                Z
 ----------------------------------------------------------------
    1      C       0.3804912725    -0.6565853976    -0.0668460047
    2      C      -0.9689869457    -0.2138712861    -0.0659447070
    3      C       1.4723395691     0.3775900802    -0.3463357570
    4      C      -1.2801175456     1.2792330237    -0.1965153585
    5      O       2.5548968665     0.1770832113     0.5197335747
    6      O       1.4366936371     1.2269109993    -1.2603613150
    7      O      -0.5662119763     1.9813272188     0.7866125449
    8      O      -2.0667236014     1.7918121753    -1.0174679173
    9      C      -0.7721286594     3.4275568239     0.7099952566
   10      C       3.6459923270     1.1231075761     0.2887052387
   11      C       0.6781771761    -2.0446617336     0.0363688649
   12      C      -0.3911089602    -2.9501715107     0.2091022483
   13      C      -1.7242282334    -2.5067894136     0.2362475553
   14      C      -2.0376061012    -1.1381882828     0.0965189778
   15      H      -0.4574254075     3.8318756877    -0.2713915564
   16      H       4.0724529631     1.0145730209    -0.7274709117
   17      H      -2.5299100394    -3.2400991802     0.3588723108
   18      H      -1.8300444089     3.6987479860     0.8935513535
   19      H      -0.1491343443     3.8863748799     1.4973532485
   20      H       4.4336383861     0.8959377431     1.0279982314
   21      H       3.3150574000     2.1697538423     0.4340617281
   22      H      -0.1844447171    -4.0225402606     0.3078581086
   23      C      -3.5008603148    -0.6867110530     0.1081473450
   24      C       2.1108686064    -2.5813872477    -0.0298345810
   25      H       2.6827597470    -2.0992997266    -0.8365989531
   26      H       2.1079268802    -3.6622219462    -0.2322419740
   27      H       2.6374508265    -2.4165012872     0.9233162101
   28      H      -3.8153778506    -0.3539880793    -0.8935315859
   29      H      -3.6591847300     0.1398401158     0.8171602022
   30      H      -4.1590581323    -1.5131268577     0.4120732453
 ----------------------------------------------------------------
 Molecular Point Group                 C1    NOp =  1
 Largest Abelian Subgroup              C1    NOp =  1
 Nuclear Repulsion Energy =  1121.7034615553 hartrees
 There are       59 alpha and       59 beta electrons
 Applying Cartesian multipole field
    Component          Value
    ---------          -----
     (2,0,0)        1.00000E-11
     (0,2,0)        2.00000E-11
     (0,0,2)       -3.00000E-10
 Nucleus-field energy     =     0.0000000033 hartrees
 Requested basis set is STO-3G
 There are 46 shells and 94 basis functions
 A cutoff of  1.0D-12 yielded    914 shell pairs
 There are      4289 function pairs
 Smallest overlap matrix eigenvalue = 1.82E-01
 Guess MOs from SCF MO coefficient file
 Reading MOs from coefficient file
 Reading MOs from coefficient file
 A restricted hybrid HF-DFT SCF calculation will be
 performed using Pulay DIIS extrapolation
 Exchange:     0.2000 Hartree-Fock + 0.0800 Slater + 0.7200 B88
 Correlation:  0.1900 VWN1RPA + 0.8100 LYP
 Using SG-1 standard quadrature grid
 Dispersion:   Grimme D3
 SCF converges when DIIS error is below 1.0E-08
 Geometry optimization detected.  Setting ReadMinima to 0
 Setting SaveMinima to 0
 -------------------------------------------------------
 OpenMP Integral computing Module                
 Release: version 1.0, May 2013, Q-Chem Inc. Pittsburgh 
 -------------------------------------------------------
 -------------------------------------------------------
 OpenMP BLAS3 based DFT computing Module                
 Release: version 1.0, May 2013, Q-Chem Inc. Pittsburgh 
 -------------------------------------------------------
 ---------------------------------------
  Cycle       Energy         DIIS Error
 ---------------------------------------
    1    -756.6386630435      6.54E-03
    2    -756.7972450788      2.32E-03
    3    -756.7825860161      4.14E-03
    4    -756.8038003078      5.90E-04
    5    -756.8042579540      1.66E-04
    6    -756.8042943291      4.87E-05
    7    -756.8042971450      2.33E-05
    8    -756.8042977555      1.13E-05
    9    -756.8042979246      1.91E-06
   10    -756.8042979307      4.77E-07
   11    -756.8042979311      1.34E-07
   12    -756.8042979312      6.83E-08
   13    -756.8042979312      2.20E-08
   14    -756.8042979312      5.83E-09 Convergence criterion met
 ---------------------------------------
 SCF time:  CPU 80.44 s  wall 3.43 s
 SCF   energy in the final basis set = -756.8042979312
 Total energy in the final basis set = -756.8042979312
 
 --------------------------------------------------------------
 
                    Orbital Energies (a.u.)
 --------------------------------------------------------------
 
 Alpha MOs
 -- Occupied --
-18.941 -18.938 -18.868 -18.868 -10.106 -10.103 -10.070 -10.066
-10.023 -10.022 -10.021 -10.020 -10.017 -10.016 -10.008 -10.007
 -1.022  -1.016  -0.940  -0.937  -0.815  -0.745  -0.721  -0.681
 -0.675  -0.663  -0.621  -0.585  -0.557  -0.498  -0.492  -0.450
 -0.443  -0.435  -0.417  -0.414  -0.409  -0.391  -0.384  -0.379
 -0.375  -0.368  -0.355  -0.347  -0.345  -0.335  -0.319  -0.314
 -0.308  -0.291  -0.284  -0.250  -0.248  -0.195  -0.182  -0.179
 -0.174  -0.151  -0.147
 -- Virtual --
  0.056   0.072   0.121   0.132   0.233   0.258   0.281   0.329
  0.353   0.358   0.375   0.390   0.401   0.421   0.424   0.427
  0.432   0.433   0.439   0.443   0.444   0.449   0.460   0.463
  0.471   0.481   0.486   0.554   0.565   0.579   0.607   0.661
  0.662   0.762   0.774
 --------------------------------------------------------------
 
          Ground-State Mulliken Net Atomic Charges

     Atom                 Charge (a.u.)
  ----------------------------------------
      1 C                    -0.018868
      2 C                    -0.017134
      3 C                     0.217516
      4 C                     0.217840
      5 O                    -0.171391
      6 O                    -0.217356
      7 O                    -0.174073
      8 O                    -0.212546
      9 C                    -0.125383
     10 C                    -0.124780
     11 C                     0.009109
     12 C                    -0.079286
     13 C                    -0.079089
     14 C                     0.009083
     15 H                     0.093589
     16 H                     0.089502
     17 H                     0.079502
     18 H                     0.088932
     19 H                     0.091193
     20 H                     0.092410
     21 H                     0.090433
     22 H                     0.079112
     23 C                    -0.225518
     24 C                    -0.223403
     25 H                     0.083048
     26 H                     0.079350
     27 H                     0.091141
     28 H                     0.093593
     29 H                     0.083688
     30 H                     0.079788
  ----------------------------------------
  Sum of atomic charges =     0.000000

 -----------------------------------------------------------------
                    Cartesian Multipole Moments
 -----------------------------------------------------------------
    Charge (ESU x 10^10)
                -0.0000
    Dipole Moment (Debye)
         X       1.1823      Y      -0.3190      Z       1.5157
       Tot       1.9486
    Quadrupole Moments (Debye-Ang)
        XX     -77.4531     XY       2.8171     YY     -77.0034
        XZ      -2.1697     YZ       4.4318     ZZ     -90.2784
    Octopole Moments (Debye-Ang^2)
       XXX      33.7449    XXY       6.3110    XYY       3.8456
       YYY      33.2859    XXZ       5.8588    XYZ      -1.2560
       YYZ      10.6156    XZZ       6.0909    YZZ       7.8301
       ZZZ      -6.5450
    Hexadecapole Moments (Debye-Ang^3)
      XXXX   -2028.8371   XXXY      42.4553   XXYY    -669.5655
      XYYY     -23.1222   YYYY   -1796.1367   XXXZ      -8.9236
      XXYZ      16.7964   XYYZ     -11.4213   YYYZ      17.3922
      XXZZ    -401.2458   XYZZ      -9.1644   YYZZ    -374.1233
      XZZZ       1.7608   YZZZ       0.9590   ZZZZ    -224.7542
 -----------------------------------------------------------------
 Calculating analytic gradient of the SCF energy
 Gradient of SCF Energy
            1           2           3           4           5           6
    1   0.0059307  -0.0015290   0.0081227   0.0090210  -0.0087438  -0.0007807
    2   0.0063453   0.0070521   0.0018833   0.0072668   0.0120662  -0.0120427
    3   0.0013701  -0.0076174   0.0112081   0.0129259  -0.0208634   0.0058793
            7           8           9          10          11          12
    1  -0.0176195   0.0064960   0.0030060  -0.0057665   0.0019296   0.0019211
    2   0.0014764  -0.0079522  -0.0090844  -0.0074981   0.0001605  -0.0009304
    3  -0.0192474   0.0056534   0.0027763   0.0036067  -0.0025484   0.0012154
           13          14          15          16          17          18
    1  -0.0022482  -0.0019622   0.0011662   0.0002869   0.0019035   0.0021103
    2   0.0003012   0.0022136  -0.0005895  -0.0013828   0.0002539  -0.0007453
    3  -0.0000645   0.0017087   0.0024483   0.0024478  -0.0006428   0.0015986
           19          20          21          22          23          24
    1  -0.0016488   0.0002915   0.0006086  -0.0014562   0.0054112  -0.0042383
    2   0.0017385   0.0022454  -0.0019748   0.0012042   0.0001520   0.0041630
    3  -0.0019503  -0.0019909   0.0017251   0.0003885  -0.0018529   0.0021058
           25          26          27          28          29          30
    1  -0.0009167   0.0018728  -0.0014784  -0.0002856  -0.0005924  -0.0008120
    2  -0.0026093   0.0011927  -0.0017857  -0.0024199  -0.0025313   0.0018314
    3  -0.0010841  -0.0010262  -0.0002301   0.0007373   0.0010194   0.0003036
 Max gradient component =       2.086E-02
 RMS gradient           =       5.522E-03
 Gradient time:  CPU 18.37 s  wall 0.77 s
 Geometry Optimization Parameters
   NAtoms,    NIC,     NZ,  NCons,   NDum,   NFix, NCnnct, MaxDiis
       30     194       0       2       0       0       0       0

 Cartesian Hessian Update
 Hessian Updated using BFGS Update


** CONSTRAINED OPTIMIZATION IN DELOCALIZED INTERNAL COORDINATES **
   Searching for a Minimum

   Optimization Cycle:   2

                       Coordinates (Angstroms)
     ATOM                X               Y               Z
      1  C         0.3804912725   -0.6565853976   -0.0668460047
      2  C        -0.9689869457   -0.2138712861   -0.0659447070
      3  C         1.4723395691    0.3775900802   -0.3463357570
      4  C        -1.2801175456    1.2792330237   -0.1965153585
      5  O         2.5548968665    0.1770832113    0.5197335747
      6  O         1.4366936371    1.2269109993   -1.2603613150
      7  O        -0.5662119763    1.9813272188    0.7866125449
      8  O        -2.0667236014    1.7918121753   -1.0174679173
      9  C        -0.7721286594    3.4275568239    0.7099952566
     10  C         3.6459923270    1.1231075761    0.2887052387
     11  C         0.6781771761   -2.0446617336    0.0363688649
     12  C        -0.3911089602   -2.9501715107    0.2091022483
     13  C        -1.7242282334   -2.5067894136    0.2362475553
     14  C        -2.0376061012   -1.1381882828    0.0965189778
     15  H        -0.4574254075    3.8318756877   -0.2713915564
     16  H         4.0724529631    1.0145730209   -0.7274709117
     17  H        -2.5299100394   -3.2400991802    0.3588723108
     18  H        -1.8300444089    3.6987479860    0.8935513535
     19  H        -0.1491343443    3.8863748799    1.4973532485
     20  H         4.4336383861    0.8959377431    1.0279982314
     21  H         3.3150574000    2.1697538423    0.4340617281
     22  H        -0.1844447171   -4.0225402606    0.3078581086
     23  C        -3.5008603148   -0.6867110530    0.1081473450
     24  C         2.1108686064   -2.5813872477   -0.0298345810
     25  H         2.6827597470   -2.0992997266   -0.8365989531
     26  H         2.1079268802   -3.6622219462   -0.2322419740
     27  H         2.6374508265   -2.4165012872    0.9233162101
     28  H        -3.8153778506   -0.3539880793   -0.8935315859
     29  H        -3.6591847300    0.1398401158    0.8171602022
     30  H        -4.1590581323   -1.5131268577    0.4120732453
   Point Group: c1    Number of degrees of freedom:    84


   Energy is   -756.804297931

              Constraints and their Current Values
                                        Value     Constraint
   Dihedral:        2   1   3   5      138.140      140.200
   Dihedral:        1   2   4   7      -53.468      -52.300
 Hessian Updated using BFGS Update

   Using Lagrange Multiplier Algorithm


 70 Hessian modes will be used to form the next step
  Hessian Eigenvalues:
    -0.977839   -0.977474    0.044738    0.045000    0.045000    0.045000
     0.045000    0.045001    0.045001    0.045004    0.045007    0.045013
     0.045047    0.045144    0.045626    0.093642    0.093942    0.094234
     0.094414    0.113772    0.113856    0.116855    0.116890    0.158448
     0.159976    0.159999    0.162406    0.224718    0.237255    0.244924
     0.248947    0.249464    0.249636    0.249914    0.249992    0.249997
     0.250000    0.252509    0.318933    0.321687    0.341604    0.341648
     0.342502    0.342565    0.342806    0.342934    0.342963    0.343294
     0.343399    0.343580    0.344089    0.344385    0.344544    0.348588
     0.349809    0.371615    0.408076    0.408434    0.413461    0.424018
     0.438660    0.446288    0.457430    0.462729    0.522961    0.536447
     0.959697    0.987880    1.022692    1.023593

 Minimum Search - Taking P-RFO Step
 Searching for Lamda that Maximizes Along the Constraint modes Only
 Value Taken    Lamda =   0.00070868
 Searching for Lamda that Minimizes Along All other modes
 Value Taken    Lamda =  -0.00759461
 Step Taken.  Stepsize is  0.202726

                             Maximum     Tolerance    Cnvgd?
         Gradient            0.035946       0.000300      NO
         Displacement        0.071181       0.001200      NO
         Energy change     -0.026805       0.000001      NO


 New Cartesian Coordinates Obtained by Inverse Iteration

 Displacement from previous Coordinates is:  0.655701
 Adding empirical dispersion correction 
 ----------------------------------------------------------------
 Doing -D3(op) with
 s6 =   1.00000
 s8 =   0.78311
 a1 =   0.30000
 a2 =   4.25000
 n  =  10.00000
 -D3 energy without 3body term =     -0.0328335374 hartrees
 ----------------------------------------------------------------
             Standard Nuclear Orientation (Angstroms)
    I     Atom           X                Y                Z
 ----------------------------------------------------------------
    1      C       0.3743952137    -0.6813134703    -0.0360056804
    2      C      -0.9749278464    -0.2375421358    -0.0310504315
    3      C       1.4634316112     0.3811285512    -0.2957458051
    4      C      -1.2707486442     1.2712102066    -0.1640858216
    5      O       2.5873588178     0.1483510724     0.5463787664
    6      O       1.4006371953     1.3074787466    -1.1415553452
    7      O      -0.5086186904     1.9690635425     0.8190578111
    8      O      -2.0543620025     1.8211131455    -0.9740788677
    9      C      -0.7228752801     3.4211020135     0.6656594785
   10      C       3.6187862150     1.1706622659     0.2817104117
   11      C       0.6737734883    -2.0717685489     0.0414972983
   12      C      -0.4020880199    -2.9771690809     0.1855428652
   13      C      -1.7366615768    -2.5313141675     0.2191748475
   14      C      -2.0483959659    -1.1582567534     0.1056121627
   15      H      -0.4219310840     3.7722898377    -0.3433962221
   16      H       3.9847270489     1.1221581625    -0.7652935493
   17      H      -2.5509035346    -3.2615121856     0.3251136740
   18      H      -1.7835855189     3.7008501283     0.8360304160
   19      H      -0.0862832349     3.9019400405     1.4318188978
   20      H       4.4506200818     0.9462597585     0.9753436691
   21      H       3.2403345064     2.1960063355     0.4743789835
   22      H      -0.1898514543    -4.0526471660     0.2594020740
   23      C      -3.5118174784    -0.6843238928     0.1121392373
   24      C       2.1147660186    -2.6081763058    -0.0242356980
   25      H       2.6923628119    -2.0980032721    -0.8110010085
   26      H       2.1031615955    -3.6877054005    -0.2415530882
   27      H       2.6367129058    -2.4514299775     0.9348049408
   28      H      -3.8041020756    -0.3165878968    -0.8862251137
   29      H      -3.6590247052     0.1386055087     0.8304303111
   30      H      -4.1786967083    -1.5148879411     0.3892664090
 ----------------------------------------------------------------
 Molecular Point Group                 C1    NOp =  1
 Largest Abelian Subgroup              C1    NOp =  1
 Nuclear Repulsion Energy =  1120.4616084576 hartrees
 There are       59 alpha and       59 beta electrons
 Applying Cartesian multipole field
    Component          Value
    ---------          -----
     (2,0,0)        1.00000E-11
     (0,2,0)        2.00000E-11
     (0,0,2)       -3.00000E-10
 Nucleus-field energy     =     0.0000000074 hartrees
 Requested basis set is STO-3G
 There are 46 shells and 94 basis functions
 A cutoff of  1.0D-12 yielded    915 shell pairs
 There are      4290 function pairs
 Smallest overlap matrix eigenvalue = 1.83E-01
 Guess MOs from SCF MO coefficient file
 Reading MOs from coefficient file
 Reading MOs from coefficient file
 A restricted hybrid HF-DFT SCF calculation will be
 performed using Pulay DIIS extrapolation
 Exchange:     0.2000 Hartree-Fock + 0.0800 Slater + 0.7200 B88
 Correlation:  0.1900 VWN1RPA + 0.8100 LYP
 Using SG-1 standard quadrature grid
 Dispersion:   Grimme D3
 SCF converges when DIIS error is below 1.0E-08
 Geometry optimization detected.  Setting ReadMinima to 0
 Setting SaveMinima to 0
 -------------------------------------------------------
 OpenMP Integral computing Module                
 Release: version 1.0, May 2013, Q-Chem Inc. Pittsburgh 
 -------------------------------------------------------
 -------------------------------------------------------
 OpenMP BLAS3 based DFT computing Module                
 Release: version 1.0, May 2013, Q-Chem Inc. Pittsburgh 
 -------------------------------------------------------
 ---------------------------------------
  Cycle       Energy         DIIS Error
 ---------------------------------------
    1    -756.7385946832      4.46E-03
    2    -756.8060841198      1.09E-03
    3    -756.8017053476      2.19E-03
    4    -756.8075940968      3.11E-04
    5    -756.8077185782      1.01E-04
    6    -756.8077315067      3.41E-05
    7    -756.8077326467      2.03E-05
    8    -756.8077331506      6.12E-06
    9    -756.8077332019      1.43E-06
   10    -756.8077332052      2.99E-07
   11    -756.8077332054      8.79E-08
   12    -756.8077332054      4.15E-08
   13    -756.8077332054      1.53E-08
   14    -756.8077332054      3.72E-09 Convergence criterion met
 ---------------------------------------
 SCF time:  CPU 81.25 s  wall 3.47 s
 SCF   energy in the final basis set = -756.8077332054
 Total energy in the final basis set = -756.8077332054
 
 --------------------------------------------------------------
 
                    Orbital Energies (a.u.)
 --------------------------------------------------------------
 
 Alpha MOs
 -- Occupied --
-18.939 -18.934 -18.871 -18.871 -10.103 -10.100 -10.066 -10.062
-10.024 -10.023 -10.023 -10.021 -10.018 -10.017 -10.010 -10.009
 -1.015  -1.007  -0.936  -0.932  -0.815  -0.744  -0.719  -0.680
 -0.669  -0.657  -0.621  -0.584  -0.555  -0.495  -0.489  -0.447
 -0.442  -0.432  -0.413  -0.410  -0.407  -0.389  -0.381  -0.376
 -0.371  -0.367  -0.355  -0.347  -0.345  -0.336  -0.317  -0.310
 -0.307  -0.291  -0.282  -0.255  -0.252  -0.194  -0.183  -0.180
 -0.172  -0.153  -0.149
 -- Virtual --
  0.053   0.069   0.119   0.131   0.233   0.253   0.277   0.317
  0.341   0.346   0.368   0.382   0.401   0.414   0.421   0.426
  0.430   0.433   0.435   0.438   0.442   0.446   0.455   0.458
  0.464   0.476   0.482   0.547   0.557   0.574   0.602   0.650
  0.652   0.758   0.769
 --------------------------------------------------------------
 
          Ground-State Mulliken Net Atomic Charges

     Atom                 Charge (a.u.)
  ----------------------------------------
      1 C                    -0.019201
      2 C                    -0.017560
      3 C                     0.211149
      4 C                     0.211591
      5 O                    -0.165384
      6 O                    -0.213777
      7 O                    -0.168369
      8 O                    -0.208567
      9 C                    -0.127112
     10 C                    -0.126583
     11 C                     0.008795
     12 C                    -0.078931
     13 C                    -0.078625
     14 C                     0.008523
     15 H                     0.093284
     16 H                     0.088624
     17 H                     0.079675
     18 H                     0.087857
     19 H                     0.088691
     20 H                     0.090256
     21 H                     0.090181
     22 H                     0.079186
     23 C                    -0.223796
     24 C                    -0.221655
     25 H                     0.083828
     26 H                     0.079404
     27 H                     0.091246
     28 H                     0.093344
     29 H                     0.083957
     30 H                     0.079969
  ----------------------------------------
  Sum of atomic charges =     0.000000

 -----------------------------------------------------------------
                    Cartesian Multipole Moments
 -----------------------------------------------------------------
    Charge (ESU x 10^10)
                 0.0000
    Dipole Moment (Debye)
         X       1.0510      Y      -0.4868      Z       1.2599
       Tot       1.7114
    Quadrupole Moments (Debye-Ang)
        XX     -77.9030     XY       2.9445     YY     -77.5346
        XZ      -2.2549     YZ       4.0599     ZZ     -89.9072
    Octopole Moments (Debye-Ang^2)
       XXX      30.1710    XXY       6.5789    XYY       4.0820
       YYY      31.0159    XXZ       3.5115    XYZ      -1.2590
       YYZ       8.3652    XZZ       6.3129    YZZ       8.6909
       ZZZ     -11.4342
    Hexadecapole Moments (Debye-Ang^3)
      XXXX   -2030.4885   XXXY      33.0450   XXYY    -672.6618
      XYYY     -31.1938   YYYY   -1831.4891   XXXZ     -13.6683
      XXYZ      14.7383   XYYZ     -11.3219   YYYZ      16.2510
      XXZZ    -397.0372   XYZZ     -11.7998   YYZZ    -377.7599
      XZZZ      -3.7240   YZZZ      -1.7689   ZZZZ    -210.4950
 -----------------------------------------------------------------
 Calculating analytic gradient of the SCF energy
 Gradient of SCF Energy
            1           2           3           4           5           6
    1  -0.0004380   0.0005826   0.0045251   0.0046792  -0.0012059  -0.0004919
    2  -0.0000328  -0.0011232   0.0012761   0.0045723   0.0003995   0.0014402
    3   0.0047172  -0.0032640   0.0054039   0.0069293  -0.0026105  -0.0026114
            7           8           9          10          11          12
    1  -0.0011050  -0.0017370  -0.0011441  -0.0044441  -0.0002596   0.0008432
    2  -0.0014780   0.0006208  -0.0044953  -0.0018844  -0.0008323  -0.0000227
    3  -0.0027717  -0.0030885  -0.0012720  -0.0005819  -0.0025733   0.0004508
           13          14          15          16          17          18
    1  -0.0004765  -0.0000970   0.0001363   0.0003098  -0.0002029  -0.0004998
    2   0.0004734   0.0005801   0.0003611  -0.0000804  -0.0001273   0.0002808
    3  -0.0001712   0.0013745  -0.0005466  -0.0005338  -0.0002120   0.0002156
           19          20          21          22          23          24
    1   0.0004821   0.0000209   0.0000535   0.0000567   0.0008068   0.0002556
    2  -0.0004312  -0.0004651   0.0006319  -0.0001766   0.0009153   0.0013786
    3   0.0004025   0.0004442   0.0001475   0.0003085  -0.0005974   0.0006743
           25          26          27          28          29          30
    1  -0.0000062  -0.0000969   0.0000203  -0.0002758  -0.0001724  -0.0001189
    2  -0.0002062  -0.0005105  -0.0004600  -0.0003044   0.0000853  -0.0003850
    3  -0.0004048  -0.0004413   0.0001358  -0.0002250   0.0003393   0.0003622
 Max gradient component =       6.929E-03
 RMS gradient           =       1.779E-03
 Gradient time:  CPU 18.66 s  wall 0.81 s
 Geometry Optimization Parameters
   NAtoms,    NIC,     NZ,  NCons,   NDum,   NFix, NCnnct, MaxDiis
       30     194       0       2       0       0       0       0

 Cartesian Hessian Update
 Hessian Updated using BFGS Update


** CONSTRAINED OPTIMIZATION IN DELOCALIZED INTERNAL COORDINATES **
   Searching for a Minimum

   Optimization Cycle:   3

                       Coordinates (Angstroms)
     ATOM                X               Y               Z
      1  C         0.3743952137   -0.6813134703   -0.0360056804
      2  C        -0.9749278464   -0.2375421358   -0.0310504315
      3  C         1.4634316112    0.3811285512   -0.2957458051
      4  C        -1.2707486442    1.2712102066   -0.1640858216
      5  O         2.5873588178    0.1483510724    0.5463787664
      6  O         1.4006371953    1.3074787466   -1.1415553452
      7  O        -0.5086186904    1.9690635425    0.8190578111
      8  O        -2.0543620025    1.8211131455   -0.9740788677
      9  C        -0.7228752801    3.4211020135    0.6656594785
     10  C         3.6187862150    1.1706622659    0.2817104117
     11  C         0.6737734883   -2.0717685489    0.0414972983
     12  C        -0.4020880199   -2.9771690809    0.1855428652
     13  C        -1.7366615768   -2.5313141675    0.2191748475
     14  C        -2.0483959659   -1.1582567534    0.1056121627
     15  H        -0.4219310840    3.7722898377   -0.3433962221
     16  H         3.9847270489    1.1221581625   -0.7652935493
     17  H        -2.5509035346   -3.2615121856    0.3251136740
     18  H        -1.7835855189    3.7008501283    0.8360304160
     19  H        -0.0862832349    3.9019400405    1.4318188978
     20  H         4.4506200818    0.9462597585    0.9753436691
     21  H         3.2403345064    2.1960063355    0.4743789835
     22  H        -0.1898514543   -4.0526471660    0.2594020740
     23  C        -3.5118174784   -0.6843238928    0.1121392373
     24  C         2.1147660186   -2.6081763058   -0.0242356980
     25  H         2.6923628119   -2.0980032721   -0.8110010085
     26  H         2.1031615955   -3.6877054005   -0.2415530882
     27  H         2.6367129058   -2.4514299775    0.9348049408
     28  H        -3.8041020756   -0.3165878968   -0.8862251137
     29  H        -3.6590247052    0.1386055087    0.8304303111
     30  H        -4.1786967083   -1.5148879411    0.3892664090
   Point Group: c1    Number of degrees of freedom:    84


   Energy is   -756.807733205

              Constraints and their Current Values
                                        Value     Constraint
   Dihedral:        2   1   3   5      140.191      140.200
   Dihedral:        1   2   4   7      -52.305      -52.300
 Hessian Updated using BFGS Update

   Using Lagrange Multiplier Algorithm


 73 Hessian modes will be used to form the next step
  Hessian Eigenvalues:
    -0.977929   -0.976468    0.042386    0.045000    0.045000    0.045000
     0.045000    0.045001    0.045001    0.045004    0.045004    0.045010
     0.045041    0.045116    0.045559    0.046501    0.092580    0.093904
     0.094233    0.094402    0.113175    0.113852    0.116857    0.116890
     0.159281    0.159979    0.159999    0.161054    0.163688    0.224652
     0.237579    0.245014    0.249305    0.249593    0.249655    0.249971
     0.249992    0.249998    0.250000    0.251106    0.291614    0.318976
     0.321635    0.341629    0.341808    0.342487    0.342561    0.342760
     0.342937    0.342986    0.343279    0.343384    0.343545    0.344033
     0.344385    0.345290    0.348622    0.349841    0.376814    0.394074
     0.408129    0.413398    0.415516    0.438954    0.446495    0.456789
     0.461798    0.475494    0.536575    0.959641    1.005724    1.022763
     1.034537

 Minimum Search - Taking P-RFO Step
 Searching for Lamda that Maximizes Along the Constraint modes Only
 Value Taken    Lamda =   0.00000937
 Searching for Lamda that Minimizes Along All other modes
 Value Taken    Lamda =  -0.00071320
 Step Taken.  Stepsize is  0.076334

                             Maximum     Tolerance    Cnvgd?
         Gradient            0.007097       0.000300      NO
         Displacement        0.023514       0.001200      NO
         Energy change     -0.003435       0.000001      NO


 New Cartesian Coordinates Obtained by Inverse Iteration

 Displacement from previous Coordinates is:  0.220535
 Adding empirical dispersion correction 
 ----------------------------------------------------------------
 Doing -D3(op) with
 s6 =   1.00000
 s8 =   0.78311
 a1 =   0.30000
 a2 =   4.25000
 n  =  10.00000
 -D3 energy without 3body term =     -0.0327706417 hartrees
 ----------------------------------------------------------------
             Standard Nuclear Orientation (Angstroms)
    I     Atom           X                Y                Z
 ----------------------------------------------------------------
    1      C       0.3715081116    -0.6806512232    -0.0464446709
    2      C      -0.9806828046    -0.2376414948    -0.0333129189
    3      C       1.4672877791     0.3752703295    -0.3092114203
    4      C      -1.2889315812     1.2709761994    -0.1614220055
    5      O       2.6019885153     0.1364513425     0.5305695576
    6      O       1.4055066247     1.3121114033    -1.1419591033
    7      O      -0.5234200499     1.9819189650     0.8230305966
    8      O      -2.0861325480     1.8207561064    -0.9559406195
    9      C      -0.7358542354     3.4413664732     0.6767432792
   10      C       3.6475810719     1.1549096102     0.2704498748
   11      C       0.6721252806    -2.0697851774     0.0437114761
   12      C      -0.4021109056    -2.9776425565     0.1840334693
   13      C      -1.7368508250    -2.5359319139     0.2124662353
   14      C      -2.0511785757    -1.1635600009     0.0993165717
   15      H      -0.4360048843     3.7928455042    -0.3315793750
   16      H       4.0083682436     1.1103338196    -0.7776528955
   17      H      -2.5496743712    -3.2674252184     0.3188924564
   18      H      -1.7966383266     3.7188440814     0.8451328324
   19      H      -0.1008603591     3.9222691253     1.4435057319
   20      H       4.4797200449     0.9221864252     0.9601514838
   21      H       3.2745435174     2.1804658749     0.4676754226
   22      H      -0.1864971055    -4.0521902321     0.2592179799
   23      C      -3.5161544790    -0.6922683232     0.1056082970
   24      C       2.1148815723    -2.6037001097    -0.0107906904
   25      H       2.6954464713    -2.0948517811    -0.7958854344
   26      H       2.1087126134    -3.6847378914    -0.2164996071
   27      H       2.6297077260    -2.4329415804     0.9497050669
   28      H      -3.8032715952    -0.3175721865    -0.8915063802
   29      H      -3.6628754693     0.1291892313     0.8251395317
   30      H      -4.1840457669    -1.5234136806     0.3759908805
 ----------------------------------------------------------------
 Molecular Point Group                 C1    NOp =  1
 Largest Abelian Subgroup              C1    NOp =  1
 Nuclear Repulsion Energy =  1117.8909414427 hartrees
 There are       59 alpha and       59 beta electrons
 Applying Cartesian multipole field
    Component          Value
    ---------          -----
     (2,0,0)        1.00000E-11
     (0,2,0)        2.00000E-11
     (0,0,2)       -3.00000E-10
 Nucleus-field energy     =     0.0000000080 hartrees
 Requested basis set is STO-3G
 There are 46 shells and 94 basis functions
 A cutoff of  1.0D-12 yielded    912 shell pairs
 There are      4281 function pairs
 Smallest overlap matrix eigenvalue = 1.83E-01
 Guess MOs from SCF MO coefficient file
 Reading MOs from coefficient file
 Reading MOs from coefficient file
 A restricted hybrid HF-DFT SCF calculation will be
 performed using Pulay DIIS extrapolation
 Exchange:     0.2000 Hartree-Fock + 0.0800 Slater + 0.7200 B88
 Correlation:  0.1900 VWN1RPA + 0.8100 LYP
 Using SG-1 standard quadrature grid
 Dispersion:   Grimme D3
 SCF converges when DIIS error is below 1.0E-08
 Geometry optimization detected.  Setting ReadMinima to 0
 Setting SaveMinima to 0
 -------------------------------------------------------
 OpenMP Integral computing Module                
 Release: version 1.0, May 2013, Q-Chem Inc. Pittsburgh 
 -------------------------------------------------------
 -------------------------------------------------------
 OpenMP BLAS3 based DFT computing Module                
 Release: version 1.0, May 2013, Q-Chem Inc. Pittsburgh 
 -------------------------------------------------------
 ---------------------------------------
  Cycle       Energy         DIIS Error
 ---------------------------------------
    1    -756.8000066371      1.15E-03
    2    -756.8079326158      3.21E-04
    3    -756.8074053144      7.19E-04
    4    -756.8080662002      5.50E-05
    5    -756.8080700587      1.70E-05
    6    -756.8080704251      5.39E-06
    7    -756.8080704642      2.47E-06
    8    -756.8080704715      1.03E-06
    9    -756.8080704727      4.12E-07
   10    -756.8080704730      7.85E-08
   11    -756.8080704730      1.65E-08
   12    -756.8080704730      8.19E-09 Convergence criterion met
 ---------------------------------------
 SCF time:  CPU 70.27 s  wall 3.00 s
 SCF   energy in the final basis set = -756.8080704730
 Total energy in the final basis set = -756.8080704730
 
 --------------------------------------------------------------
 
                    Orbital Energies (a.u.)
 --------------------------------------------------------------
 
 Alpha MOs
 -- Occupied --
-18.936 -18.930 -18.872 -18.872 -10.102 -10.099 -10.065 -10.060
-10.025 -10.024 -10.024 -10.022 -10.018 -10.017 -10.010 -10.009
 -1.011  -1.004  -0.934  -0.930  -0.815  -0.745  -0.719  -0.680
 -0.668  -0.656  -0.621  -0.584  -0.555  -0.494  -0.488  -0.446
 -0.442  -0.431  -0.411  -0.409  -0.406  -0.389  -0.381  -0.376
 -0.371  -0.367  -0.355  -0.347  -0.345  -0.336  -0.316  -0.310
 -0.307  -0.291  -0.283  -0.254  -0.251  -0.195  -0.183  -0.178
 -0.170  -0.153  -0.149
 -- Virtual --
  0.052   0.069   0.118   0.131   0.232   0.248   0.272   0.315
  0.338   0.345   0.367   0.381   0.400   0.414   0.421   0.426
  0.431   0.433   0.435   0.438   0.442   0.446   0.454   0.457
  0.464   0.476   0.482   0.546   0.557   0.573   0.602   0.649
  0.651   0.757   0.768
 --------------------------------------------------------------
 
          Ground-State Mulliken Net Atomic Charges

     Atom                 Charge (a.u.)
  ----------------------------------------
      1 C                    -0.018681
      2 C                    -0.017180
      3 C                     0.209837
      4 C                     0.210444
      5 O                    -0.165347
      6 O                    -0.212597
      7 O                    -0.168202
      8 O                    -0.207930
      9 C                    -0.128571
     10 C                    -0.128122
     11 C                     0.009095
     12 C                    -0.078825
     13 C                    -0.078669
     14 C                     0.008878
     15 H                     0.092822
     16 H                     0.088444
     17 H                     0.080015
     18 H                     0.087715
     19 H                     0.089119
     20 H                     0.090587
     21 H                     0.090208
     22 H                     0.079398
     23 C                    -0.224084
     24 C                    -0.221769
     25 H                     0.084200
     26 H                     0.079467
     27 H                     0.091633
     28 H                     0.093564
     29 H                     0.084321
     30 H                     0.080230
  ----------------------------------------
  Sum of atomic charges =     0.000000

 -----------------------------------------------------------------
                    Cartesian Multipole Moments
 -----------------------------------------------------------------
    Charge (ESU x 10^10)
                 0.0000
    Dipole Moment (Debye)
         X       1.0406      Y      -0.5320      Z       1.2209
       Tot       1.6901
    Quadrupole Moments (Debye-Ang)
        XX     -77.8959     XY       2.9932     YY     -77.5099
        XZ      -2.2313     YZ       3.9882     ZZ     -89.8162
    Octopole Moments (Debye-Ang^2)
       XXX      31.5392    XXY       6.4641    XYY       4.0564
       YYY      31.3904    XXZ       3.6382    XYZ      -1.2774
       YYZ       8.5761    XZZ       6.4718    YZZ       8.8755
       ZZZ     -11.2164
    Hexadecapole Moments (Debye-Ang^3)
      XXXX   -2046.5741   XXXY      37.2541   XXYY    -677.1384
      XYYY     -29.0395   YYYY   -1834.1602   XXXZ     -13.2971
      XXYZ      14.4585   XYYZ     -11.0580   YYYZ      15.7358
      XXZZ    -400.0625   XYZZ     -11.1848   YYZZ    -378.2822
      XZZZ      -2.9911   YZZZ      -2.8355   ZZZZ    -209.3980
 -----------------------------------------------------------------
 Calculating analytic gradient of the SCF energy
 Gradient of SCF Energy
            1           2           3           4           5           6
    1  -0.0003713  -0.0008156   0.0000648   0.0006119  -0.0003451   0.0001773
    2  -0.0006258  -0.0015170  -0.0008997  -0.0007120  -0.0004549   0.0011255
    3   0.0029158  -0.0021366   0.0011105   0.0014164  -0.0008094  -0.0013240
            7           8           9          10          11          12
    1  -0.0005620  -0.0006747   0.0004830   0.0012232  -0.0003646   0.0000278
    2  -0.0002217   0.0007516   0.0013562   0.0003273  -0.0003684   0.0003693
    3  -0.0005686  -0.0010866   0.0007896   0.0005693  -0.0013043   0.0002269
           13          14          15          16          17          18
    1   0.0001201   0.0001342  -0.0002581  -0.0000858  -0.0001122   0.0000295
    2   0.0001524  -0.0002891  -0.0000508   0.0001777  -0.0000547   0.0000180
    3  -0.0002584   0.0007778  -0.0000747  -0.0000554   0.0000123  -0.0001146
           19          20          21          22          23          24
    1   0.0000898   0.0002737   0.0000445   0.0000853  -0.0002873   0.0004168
    2   0.0003107   0.0001241   0.0000046  -0.0000576   0.0002057   0.0001648
    3   0.0000553   0.0000549  -0.0002186   0.0000909  -0.0000100  -0.0000015
           25          26          27          28          29          30
    1  -0.0000424  -0.0001428   0.0000368   0.0000326   0.0001688   0.0000419
    2   0.0002553  -0.0000371  -0.0000984  -0.0000521   0.0001918  -0.0000956
    3   0.0000393  -0.0001001   0.0000750  -0.0000685  -0.0001449   0.0001423
 Max gradient component =       2.916E-03
 RMS gradient           =       6.412E-04
 Gradient time:  CPU 18.82 s  wall 0.79 s
 Geometry Optimization Parameters
   NAtoms,    NIC,     NZ,  NCons,   NDum,   NFix, NCnnct, MaxDiis
       30     194       0       2       0       0       0       0

 Cartesian Hessian Update
 Hessian Updated using BFGS Update


** CONSTRAINED OPTIMIZATION IN DELOCALIZED INTERNAL COORDINATES **
   Searching for a Minimum

   Optimization Cycle:   4

                       Coordinates (Angstroms)
     ATOM                X               Y               Z
      1  C         0.3715081116   -0.6806512232   -0.0464446709
      2  C        -0.9806828046   -0.2376414948   -0.0333129189
      3  C         1.4672877791    0.3752703295   -0.3092114203
      4  C        -1.2889315812    1.2709761994   -0.1614220055
      5  O         2.6019885153    0.1364513425    0.5305695576
      6  O         1.4055066247    1.3121114033   -1.1419591033
      7  O        -0.5234200499    1.9819189650    0.8230305966
      8  O        -2.0861325480    1.8207561064   -0.9559406195
      9  C        -0.7358542354    3.4413664732    0.6767432792
     10  C         3.6475810719    1.1549096102    0.2704498748
     11  C         0.6721252806   -2.0697851774    0.0437114761
     12  C        -0.4021109056   -2.9776425565    0.1840334693
     13  C        -1.7368508250   -2.5359319139    0.2124662353
     14  C        -2.0511785757   -1.1635600009    0.0993165717
     15  H        -0.4360048843    3.7928455042   -0.3315793750
     16  H         4.0083682436    1.1103338196   -0.7776528955
     17  H        -2.5496743712   -3.2674252184    0.3188924564
     18  H        -1.7966383266    3.7188440814    0.8451328324
     19  H        -0.1008603591    3.9222691253    1.4435057319
     20  H         4.4797200449    0.9221864252    0.9601514838
     21  H         3.2745435174    2.1804658749    0.4676754226
     22  H        -0.1864971055   -4.0521902321    0.2592179799
     23  C        -3.5161544790   -0.6922683232    0.1056082970
     24  C         2.1148815723   -2.6037001097   -0.0107906904
     25  H         2.6954464713   -2.0948517811   -0.7958854344
     26  H         2.1087126134   -3.6847378914   -0.2164996071
     27  H         2.6297077260   -2.4329415804    0.9497050669
     28  H        -3.8032715952   -0.3175721865   -0.8915063802
     29  H        -3.6628754693    0.1291892313    0.8251395317
     30  H        -4.1840457669   -1.5234136806    0.3759908805
   Point Group: c1    Number of degrees of freedom:    84


   Energy is   -756.808070473

              Constraints and their Current Values
                                        Value     Constraint
   Dihedral:        2   1   3   5      140.200      140.200
   Dihedral:        1   2   4   7      -52.300      -52.300
 Hessian Updated using BFGS Update

   Using Lagrange Multiplier Algorithm


 74 Hessian modes will be used to form the next step
  Hessian Eigenvalues:
    -0.977655    0.035077    0.045000    0.045000    0.045000    0.045000
     0.045001    0.045001    0.045004    0.045004    0.045009    0.045030
     0.045061    0.045223    0.045811    0.046309    0.093018    0.093964
     0.094234    0.094393    0.113851    0.114599    0.116857    0.116889
     0.159645    0.159980    0.159999    0.160309    0.161048    0.163772
     0.224677    0.237791    0.245054    0.249487    0.249593    0.249679
     0.249983    0.249998    0.250000    0.250000    0.250182    0.251029
     0.305019    0.318971    0.321450    0.341630    0.341696    0.342540
     0.342598    0.342902    0.342936    0.343032    0.343300    0.343467
     0.343958    0.344297    0.344401    0.348037    0.349004    0.349986
     0.371138    0.408084    0.408318    0.413488    0.437953    0.446101
     0.452489    0.458974    0.465093    0.532909    0.537737    0.959834
     0.992445    1.025494

 Minimum Search - Taking P-RFO Step
 Searching for Lamda that Maximizes Along the Constraint modes Only
 Value Taken    Lamda =   0.00000004
 Searching for Lamda that Minimizes Along All other modes
 Value Taken    Lamda =  -0.00008844
 Step Taken.  Stepsize is  0.032258

                             Maximum     Tolerance    Cnvgd?
         Gradient            0.003153       0.000300      NO
         Displacement        0.011777       0.001200      NO
         Energy change     -0.000337       0.000001      NO


 New Cartesian Coordinates Obtained by Inverse Iteration

 Displacement from previous Coordinates is:  0.090430
 Adding empirical dispersion correction 
 ----------------------------------------------------------------
 Doing -D3(op) with
 s6 =   1.00000
 s8 =   0.78311
 a1 =   0.30000
 a2 =   4.25000
 n  =  10.00000
 -D3 energy without 3body term =     -0.0327926106 hartrees
 ----------------------------------------------------------------
             Standard Nuclear Orientation (Angstroms)
    I     Atom           X                Y                Z
 ----------------------------------------------------------------
    1      C       0.3711283139    -0.6799172744    -0.0498654047
    2      C      -0.9804605160    -0.2368856990    -0.0323661092
    3      C       1.4628567203     0.3788463912    -0.3091357010
    4      C      -1.2872200173     1.2707755303    -0.1581638624
    5      O       2.6000006339     0.1379949388     0.5274607316
    6      O       1.3969789031     1.3196844085    -1.1357536430
    7      O      -0.5165230715     1.9773073066     0.8261808665
    8      O      -2.0865454767     1.8233112210    -0.9474085095
    9      C      -0.7251825373     3.4360991670     0.6763954209
   10      C       3.6400781470     1.1604308227     0.2650581263
   11      C       0.6723344268    -2.0690039931     0.0451263392
   12      C      -0.4022157700    -2.9774115563     0.1826629086
   13      C      -1.7369840641    -2.5360681001     0.2080676478
   14      C      -2.0513706104    -1.1634171753     0.0965306332
   15      H      -0.4212474285     3.7857108428    -0.3313673232
   16      H       3.9973438948     1.1191581554    -0.7843708856
   17      H      -2.5496210741    -3.2678171254     0.3126435125
   18      H      -1.7853436657     3.7170731506     0.8432160166
   19      H      -0.0901206758     3.9151846682     1.4438353079
   20      H       4.4750435542     0.9278439832     0.9509232520
   21      H       3.2643240063     2.1840086997     0.4676274006
   22      H      -0.1869610922    -4.0519385439     0.2577588324
   23      C      -3.5170829066    -0.6940875510     0.1032369560
   24      C       2.1144574714    -2.6049952861    -0.0042610865
   25      H       2.6984488678    -2.1010610888    -0.7898634244
   26      H       2.1086360834    -3.6868648841    -0.2046554436
   27      H       2.6268165545    -2.4300140281     0.9567273825
   28      H      -3.8037915225    -0.3146113800    -0.8921446822
   29      H      -3.6668786887     0.1231942528     0.8268283021
   30      H      -4.1847047705    -1.5269487321     0.3682120614
 ----------------------------------------------------------------
 Molecular Point Group                 C1    NOp =  1
 Largest Abelian Subgroup              C1    NOp =  1
 Nuclear Repulsion Energy =  1118.5789723934 hartrees
 There are       59 alpha and       59 beta electrons
 Applying Cartesian multipole field
    Component          Value
    ---------          -----
     (2,0,0)        1.00000E-11
     (0,2,0)        2.00000E-11
     (0,0,2)       -3.00000E-10
 Nucleus-field energy     =     0.0000000083 hartrees
 Requested basis set is STO-3G
 There are 46 shells and 94 basis functions
 A cutoff of  1.0D-12 yielded    914 shell pairs
 There are      4289 function pairs
 Smallest overlap matrix eigenvalue = 1.83E-01
 Guess MOs from SCF MO coefficient file
 Reading MOs from coefficient file
 Reading MOs from coefficient file
 A restricted hybrid HF-DFT SCF calculation will be
 performed using Pulay DIIS extrapolation
 Exchange:     0.2000 Hartree-Fock + 0.0800 Slater + 0.7200 B88
 Correlation:  0.1900 VWN1RPA + 0.8100 LYP
 Using SG-1 standard quadrature grid
 Dispersion:   Grimme D3
 SCF converges when DIIS error is below 1.0E-08
 Geometry optimization detected.  Setting ReadMinima to 0
 Setting SaveMinima to 0
 -------------------------------------------------------
 OpenMP Integral computing Module                
 Release: version 1.0, May 2013, Q-Chem Inc. Pittsburgh 
 -------------------------------------------------------
 -------------------------------------------------------
 OpenMP BLAS3 based DFT computing Module                
 Release: version 1.0, May 2013, Q-Chem Inc. Pittsburgh 
 -------------------------------------------------------
 ---------------------------------------
  Cycle       Energy         DIIS Error
 ---------------------------------------
    1    -756.8094974294      4.13E-04
    2    -756.8081226231      3.22E-05
    3    -756.8081219775      4.47E-05
    4    -756.8081249529      8.17E-06
    5    -756.8081249774      7.32E-06
    6    -756.8081250449      1.79E-06
    7    -756.8081250490      4.12E-07
    8    -756.8081250492      1.52E-07
    9    -756.8081250493      7.75E-08
   10    -756.8081250493      2.81E-08
   11    -756.8081250493      6.05E-09 Convergence criterion met
 ---------------------------------------
 SCF time:  CPU 58.68 s  wall 2.50 s
 SCF   energy in the final basis set = -756.8081250493
 Total energy in the final basis set = -756.8081250493
 
 --------------------------------------------------------------
 
                    Orbital Energies (a.u.)
 --------------------------------------------------------------
 
 Alpha MOs
 -- Occupied --
-18.936 -18.930 -18.873 -18.872 -10.102 -10.099 -10.065 -10.060
-10.025 -10.024 -10.024 -10.022 -10.018 -10.017 -10.010 -10.009
 -1.012  -1.004  -0.935  -0.931  -0.815  -0.744  -0.719  -0.680
 -0.668  -0.656  -0.621  -0.584  -0.556  -0.494  -0.488  -0.446
 -0.442  -0.431  -0.412  -0.409  -0.406  -0.389  -0.381  -0.376
 -0.370  -0.367  -0.355  -0.347  -0.345  -0.336  -0.317  -0.310
 -0.307  -0.291  -0.283  -0.254  -0.252  -0.195  -0.183  -0.178
 -0.170  -0.153  -0.149
 -- Virtual --
  0.052   0.069   0.118   0.131   0.232   0.249   0.273   0.315
  0.338   0.345   0.367   0.380   0.400   0.414   0.422   0.427
  0.431   0.433   0.435   0.438   0.443   0.446   0.454   0.457
  0.464   0.476   0.482   0.546   0.557   0.573   0.601   0.651
  0.652   0.757   0.768
 --------------------------------------------------------------
 
          Ground-State Mulliken Net Atomic Charges

     Atom                 Charge (a.u.)
  ----------------------------------------
      1 C                    -0.018820
      2 C                    -0.017296
      3 C                     0.210251
      4 C                     0.210799
      5 O                    -0.165304
      6 O                    -0.212818
      7 O                    -0.168190
      8 O                    -0.207867
      9 C                    -0.128679
     10 C                    -0.128168
     11 C                     0.009214
     12 C                    -0.078805
     13 C                    -0.078677
     14 C                     0.008970
     15 H                     0.092778
     16 H                     0.088412
     17 H                     0.080030
     18 H                     0.087722
     19 H                     0.088910
     20 H                     0.090454
     21 H                     0.090190
     22 H                     0.079419
     23 C                    -0.224185
     24 C                    -0.221853
     25 H                     0.084254
     26 H                     0.079494
     27 H                     0.091644
     28 H                     0.093533
     29 H                     0.084341
     30 H                     0.080246
  ----------------------------------------
  Sum of atomic charges =     0.000000

 -----------------------------------------------------------------
                    Cartesian Multipole Moments
 -----------------------------------------------------------------
    Charge (ESU x 10^10)
                 0.0000
    Dipole Moment (Debye)
         X       1.0393      Y      -0.5461      Z       1.2050
       Tot       1.6824
    Quadrupole Moments (Debye-Ang)
        XX     -77.9539     XY       3.0237     YY     -77.5774
        XZ      -2.2398     YZ       3.9599     ZZ     -89.7744
    Octopole Moments (Debye-Ang^2)
       XXX      31.2798    XXY       6.3241    XYY       4.2045
       YYY      30.8786    XXZ       3.4645    XYZ      -1.3027
       YYZ       8.5114    XZZ       6.4899    YZZ       8.8841
       ZZZ     -11.3592
    Hexadecapole Moments (Debye-Ang^3)
      XXXX   -2043.6721   XXXY      35.5997   XXYY    -676.5306
      XYYY     -30.1292   YYYY   -1835.0790   XXXZ     -13.8877
      XXYZ      14.3193   XYYZ     -11.0087   YYYZ      15.5425
      XXZZ    -399.0521   XYZZ     -11.7349   YYZZ    -378.1053
      XZZZ      -3.3523   YZZZ      -2.9955   ZZZZ    -208.2205
 -----------------------------------------------------------------
 Calculating analytic gradient of the SCF energy
 Gradient of SCF Energy
            1           2           3           4           5           6
    1  -0.0001879   0.0000555  -0.0004999  -0.0000717   0.0001641   0.0000588
    2   0.0000991  -0.0004467   0.0003808  -0.0001525  -0.0006162   0.0002086
    3   0.0017679  -0.0012773   0.0001974   0.0002747  -0.0001436  -0.0002985
            7           8           9          10          11          12
    1   0.0001598  -0.0000744   0.0001376   0.0006095  -0.0001089  -0.0001459
    2  -0.0002288   0.0002067   0.0006883   0.0002711  -0.0001320   0.0000142
    3   0.0001373  -0.0003753   0.0001285   0.0000782  -0.0006889   0.0002276
           13          14          15          16          17          18
    1   0.0001078   0.0000985  -0.0001142  -0.0000139  -0.0000013  -0.0000189
    2  -0.0001381  -0.0001403  -0.0000092   0.0000362   0.0000004   0.0000115
    3  -0.0002851   0.0004696  -0.0000531  -0.0000483   0.0000587   0.0000349
           19          20          21          22          23          24
    1   0.0000201  -0.0000420  -0.0000502  -0.0000043  -0.0002854   0.0001547
    2  -0.0000302  -0.0000025   0.0000104  -0.0000171  -0.0000554  -0.0001610
    3  -0.0000719  -0.0000412  -0.0000467   0.0000168   0.0000650  -0.0001000
           25          26          27          28          29          30
    1   0.0000163   0.0000269  -0.0000158  -0.0000349   0.0000461   0.0000138
    2   0.0000879   0.0000779  -0.0000972  -0.0000862   0.0001146   0.0001055
    3   0.0001199  -0.0000928   0.0000305  -0.0000256  -0.0001661   0.0001075
 Max gradient component =       1.768E-03
 RMS gradient           =       3.092E-04
 Gradient time:  CPU 20.48 s  wall 0.87 s
 Geometry Optimization Parameters
   NAtoms,    NIC,     NZ,  NCons,   NDum,   NFix, NCnnct, MaxDiis
       30     194       0       2       0       0       0       0

 Cartesian Hessian Update
 Hessian Updated using BFGS Update


** CONSTRAINED OPTIMIZATION IN DELOCALIZED INTERNAL COORDINATES **
   Searching for a Minimum

   Optimization Cycle:   5

                       Coordinates (Angstroms)
     ATOM                X               Y               Z
      1  C         0.3711283139   -0.6799172744   -0.0498654047
      2  C        -0.9804605160   -0.2368856990   -0.0323661092
      3  C         1.4628567203    0.3788463912   -0.3091357010
      4  C        -1.2872200173    1.2707755303   -0.1581638624
      5  O         2.6000006339    0.1379949388    0.5274607316
      6  O         1.3969789031    1.3196844085   -1.1357536430
      7  O        -0.5165230715    1.9773073066    0.8261808665
      8  O        -2.0865454767    1.8233112210   -0.9474085095
      9  C        -0.7251825373    3.4360991670    0.6763954209
     10  C         3.6400781470    1.1604308227    0.2650581263
     11  C         0.6723344268   -2.0690039931    0.0451263392
     12  C        -0.4022157700   -2.9774115563    0.1826629086
     13  C        -1.7369840641   -2.5360681001    0.2080676478
     14  C        -2.0513706104   -1.1634171753    0.0965306332
     15  H        -0.4212474285    3.7857108428   -0.3313673232
     16  H         3.9973438948    1.1191581554   -0.7843708856
     17  H        -2.5496210741   -3.2678171254    0.3126435125
     18  H        -1.7853436657    3.7170731506    0.8432160166
     19  H        -0.0901206758    3.9151846682    1.4438353079
     20  H         4.4750435542    0.9278439832    0.9509232520
     21  H         3.2643240063    2.1840086997    0.4676274006
     22  H        -0.1869610922   -4.0519385439    0.2577588324
     23  C        -3.5170829066   -0.6940875510    0.1032369560
     24  C         2.1144574714   -2.6049952861   -0.0042610865
     25  H         2.6984488678   -2.1010610888   -0.7898634244
     26  H         2.1086360834   -3.6868648841   -0.2046554436
     27  H         2.6268165545   -2.4300140281    0.9567273825
     28  H        -3.8037915225   -0.3146113800   -0.8921446822
     29  H        -3.6668786887    0.1231942528    0.8268283021
     30  H        -4.1847047705   -1.5269487321    0.3682120614
   Point Group: c1    Number of degrees of freedom:    84


   Energy is   -756.808125049

              Constraints and their Current Values
                                        Value     Constraint
   Dihedral:        2   1   3   5      140.200      140.200
   Dihedral:        1   2   4   7      -52.300      -52.300
 Hessian Updated using BFGS Update

 72 Hessian modes will be used to form the next step
  Hessian Eigenvalues:
     0.022486    0.044650    0.045000    0.045000    0.045001    0.045001
     0.045002    0.045004    0.045006    0.045014    0.045051    0.045319
     0.045688    0.047014    0.092707    0.093872    0.094235    0.094395
[...]
 H         -0.004  0.004  0.000   -0.003 -0.006  0.006    0.002 -0.109  0.025
 H         -0.005 -0.002  0.006   -0.003 -0.009  0.000    0.176  0.098 -0.074
 H         -0.012  0.002  0.005   -0.013 -0.001 -0.004    0.123 -0.021  0.057
 H         -0.322  0.184  0.022   -0.492 -0.042  0.057    0.007 -0.001  0.000
 C         -0.003 -0.027  0.002   -0.030  0.008  0.004   -0.001 -0.006  0.002
 C          0.022  0.014 -0.003    0.023 -0.022 -0.003   -0.003 -0.001  0.001
 H          0.192 -0.059  0.099    0.052 -0.000  0.028    0.016 -0.014  0.007
 H         -0.237  0.098 -0.027   -0.001 -0.015  0.015   -0.005  0.007 -0.025
 H          0.151  0.057 -0.093    0.055 -0.018 -0.031    0.008  0.036 -0.005
 H          0.011 -0.180 -0.073   -0.011  0.048  0.023    0.034  0.021  0.003
 H          0.113 -0.147  0.120    0.000  0.041 -0.039    0.012  0.015 -0.021
 H         -0.178  0.193 -0.028   -0.020 -0.004 -0.011    0.015 -0.017  0.009
 TransDip  -0.061  0.098 -0.012   -0.046  0.005 -0.017   -0.214 -0.097  0.245

 Mode:                70                     71                     72
 Frequency:      1778.55                3035.66                3040.93
 Force Cnst:     21.8112                 5.6244                 5.6424
 Red. Mass:      11.7031                 1.0359                 1.0356
 IR Active:          YES                    YES                    YES
 IR Intens:      405.723                 24.628                 23.010
 Raman Active:       YES                    YES                    YES
               X      Y      Z        X      Y      Z        X      Y      Z
 C         -0.045 -0.032  0.019   -0.000  0.001 -0.000    0.000 -0.000  0.000
 C          0.046 -0.070  0.012    0.000 -0.000  0.000   -0.001 -0.000  0.000
 C          0.106  0.189 -0.276    0.000 -0.000  0.000   -0.000 -0.000 -0.000
 C         -0.389  0.455 -0.362    0.000  0.000  0.000    0.000 -0.000  0.000
 O         -0.001 -0.011  0.020   -0.000  0.000 -0.000    0.000  0.000  0.000
 O         -0.053 -0.119  0.184   -0.000 -0.000  0.000    0.000  0.000 -0.000
 O          0.029 -0.020  0.026   -0.000 -0.000 -0.000    0.000  0.000 -0.000
 O          0.258 -0.271  0.246    0.000 -0.000  0.000   -0.000  0.000 -0.000
 C         -0.000  0.028 -0.007   -0.000 -0.000  0.000   -0.000  0.000 -0.000
 C          0.012  0.006 -0.005   -0.000  0.000  0.000    0.000  0.000 -0.000
 C          0.009  0.015 -0.003   -0.000  0.000 -0.000   -0.000  0.000  0.000
 C         -0.013  0.004  0.000   -0.000  0.001 -0.000    0.000 -0.000  0.000
 C          0.016 -0.012 -0.002    0.000  0.000  0.000   -0.002 -0.000  0.000
 C         -0.029  0.019 -0.003   -0.000  0.000  0.000   -0.000  0.001 -0.000
 H         -0.060 -0.096 -0.068    0.001  0.001 -0.003   -0.002 -0.001  0.006
 H         -0.053 -0.008 -0.042    0.000 -0.000 -0.000   -0.002  0.002  0.005
 H         -0.014  0.041  0.000    0.000 -0.000 -0.000    0.017  0.006 -0.003
 H         -0.103 -0.079 -0.036   -0.003  0.002  0.001    0.006 -0.004 -0.001
 H         -0.003 -0.200  0.049    0.002  0.000  0.002   -0.003 -0.001 -0.003
 H         -0.087 -0.047  0.038   -0.000  0.000 -0.000   -0.002  0.001 -0.003
 H         -0.057  0.010 -0.029    0.000 -0.002  0.000    0.000 -0.005  0.000
 H          0.012  0.002  0.000   -0.000 -0.012  0.001    0.000 -0.001 -0.000
 C         -0.005 -0.008  0.003    0.000 -0.000 -0.000    0.041 -0.028 -0.009
 C          0.001 -0.001 -0.000    0.044 -0.024 -0.008   -0.000  0.000  0.000
 H         -0.017  0.010 -0.010   -0.366 -0.171  0.505    0.003  0.001 -0.004
 H          0.011 -0.008  0.012    0.161  0.476  0.063   -0.001 -0.003 -0.000
 H         -0.012 -0.019  0.008   -0.311 -0.033 -0.474    0.003  0.000  0.004
 H          0.081  0.047 -0.000   -0.001  0.001 -0.003   -0.096  0.209 -0.462
 H          0.030  0.037 -0.043    0.001  0.003  0.003    0.065  0.464  0.418
 H          0.043 -0.050  0.021   -0.004 -0.003  0.001   -0.441 -0.343  0.154
 TransDip  -0.275  0.374 -0.447    0.113 -0.109 -0.024    0.142 -0.038 -0.045

 Mode:                73                     74                     75
 Frequency:      3050.38                3050.69                3091.57
 Force Cnst:      5.6429                 5.6450                 6.1964
 Red. Mass:       1.0293                 1.0295                 1.1004
 IR Active:          YES                    YES                    YES
 IR Intens:       15.423                 52.748                 10.962
 Raman Active:       YES                    YES                    YES
               X      Y      Z        X      Y      Z        X      Y      Z
 C         -0.000  0.000 -0.000   -0.000  0.000 -0.000   -0.000 -0.000  0.000
 C          0.000  0.000  0.000   -0.000 -0.000 -0.000    0.000 -0.000 -0.000
 C          0.001 -0.001  0.002    0.001 -0.001  0.002   -0.000 -0.000 -0.000
 C         -0.002 -0.000 -0.001    0.002  0.000  0.001    0.000  0.000 -0.000
 O         -0.002 -0.000 -0.000   -0.002 -0.000 -0.000   -0.000 -0.000  0.000
 O          0.000  0.000 -0.001    0.000  0.000 -0.001   -0.000 -0.000  0.000
 O          0.001  0.002  0.000   -0.001 -0.002 -0.000   -0.000  0.000  0.000
 O          0.000 -0.000  0.000   -0.000  0.000 -0.000   -0.000 -0.000  0.000
 C          0.002  0.031 -0.011   -0.002 -0.027  0.010   -0.000 -0.000  0.000
 C         -0.023 -0.013  0.011   -0.027 -0.015  0.013    0.000  0.000  0.000
 C          0.000  0.000 -0.000    0.000  0.000 -0.000   -0.000  0.000 -0.001
 C          0.000  0.000 -0.000    0.000 -0.000  0.000    0.000 -0.001 -0.000
 C          0.000  0.000 -0.000   -0.000 -0.000  0.000   -0.000  0.000 -0.000
 C         -0.000  0.000  0.000    0.000 -0.000  0.000   -0.000 -0.000  0.000
 H         -0.150 -0.078  0.458    0.130  0.068 -0.399    0.000  0.000 -0.001
 H          0.165 -0.164 -0.351    0.190 -0.188 -0.404   -0.000  0.000  0.000
 H         -0.000 -0.000  0.000    0.001  0.000 -0.000   -0.001 -0.001  0.000
 H          0.372 -0.254 -0.101   -0.324  0.221  0.088    0.000 -0.000 -0.000
 H         -0.252 -0.058 -0.223    0.218  0.051  0.193    0.000  0.000  0.000
 H          0.151 -0.082  0.235    0.173 -0.095  0.270   -0.001  0.001 -0.001
 H         -0.023  0.408 -0.024   -0.026  0.469 -0.027    0.000 -0.004  0.000
 H         -0.000 -0.000  0.000    0.000  0.001 -0.000   -0.000  0.007 -0.001
 C         -0.000  0.000  0.000    0.000 -0.000 -0.000    0.000  0.000  0.001
 C          0.000 -0.000 -0.000   -0.000 -0.000 -0.000    0.005  0.022 -0.089
 H         -0.002 -0.001  0.003    0.001  0.000 -0.001   -0.414 -0.183  0.537
 H          0.002  0.005  0.001    0.001  0.002  0.000   -0.038 -0.117 -0.035
 H          0.000  0.000  0.000    0.003  0.001  0.004    0.401  0.044  0.565
 H          0.000 -0.001  0.001   -0.001  0.003 -0.006   -0.001  0.002 -0.005
 H         -0.000 -0.002 -0.001    0.001  0.007  0.006   -0.000 -0.004 -0.003
 H          0.000  0.000 -0.000   -0.005 -0.004  0.002   -0.001 -0.000  0.000
 TransDip  -0.078  0.098  0.009   -0.174 -0.154 -0.010    0.012  0.041 -0.097

 Mode:                76                     77                     78
 Frequency:      3099.26                3108.10                3111.63
 Force Cnst:      6.2261                 6.2737                 6.2914
 Red. Mass:       1.1001                 1.1023                 1.1029
 IR Active:          YES                    YES                    YES
 IR Intens:       11.987                 17.344                 13.544
 Raman Active:       YES                    YES                    YES
               X      Y      Z        X      Y      Z        X      Y      Z
 C          0.000 -0.000 -0.000   -0.000 -0.000 -0.000    0.000 -0.000  0.000
 C          0.000 -0.000  0.000   -0.000  0.000 -0.000   -0.000 -0.000 -0.000
 C         -0.000 -0.000  0.000   -0.000  0.000 -0.000   -0.000 -0.000  0.000
 C          0.000  0.000  0.000   -0.000 -0.000 -0.000    0.001 -0.000  0.000
 O          0.000  0.000  0.000    0.000 -0.000  0.000   -0.000  0.000 -0.000
 O          0.000  0.000 -0.000    0.000 -0.000  0.000   -0.000  0.000 -0.000
 O          0.000 -0.000 -0.000    0.000  0.000  0.000   -0.000 -0.000 -0.000
 O          0.000  0.000  0.000    0.000 -0.000  0.000   -0.000  0.000 -0.000
 C         -0.000  0.000  0.000    0.000 -0.000 -0.000   -0.000  0.000 -0.000
 C         -0.000  0.000  0.000    0.001 -0.001 -0.001   -0.000  0.000  0.000
 C          0.000  0.000 -0.000   -0.001 -0.000 -0.000    0.000  0.000 -0.000
 C         -0.000 -0.000  0.000    0.000  0.004 -0.000   -0.000 -0.001  0.000
 C          0.002  0.001 -0.000   -0.000 -0.000  0.000    0.004  0.002 -0.001
 C         -0.000 -0.000 -0.000    0.000  0.000 -0.000    0.000 -0.001  0.000
 H          0.001  0.000 -0.002   -0.001 -0.000  0.002   -0.001 -0.000  0.002
 H          0.000 -0.000 -0.001   -0.005  0.005  0.011    0.000 -0.000 -0.001
 H         -0.017 -0.006  0.002    0.007  0.003 -0.001   -0.045 -0.019  0.007
 H          0.004 -0.002 -0.001   -0.002  0.001  0.000    0.001 -0.001 -0.000
 H          0.000  0.000  0.000   -0.001 -0.000 -0.000    0.001  0.000  0.001
 H          0.000  0.000  0.000   -0.001  0.000 -0.002    0.000 -0.000  0.000
 H          0.000 -0.001  0.000   -0.001  0.005 -0.001    0.000 -0.002  0.000
 H          0.000  0.004 -0.000   -0.002 -0.040  0.002    0.001  0.009 -0.001
 C         -0.035 -0.041 -0.074   -0.000  0.000 -0.000   -0.038 -0.066  0.053
 C          0.000  0.000 -0.001   -0.053 -0.073 -0.021   -0.000 -0.000  0.000
 H         -0.003 -0.002  0.005    0.150  0.058 -0.226    0.001  0.000 -0.001
 H         -0.001 -0.004 -0.001    0.255  0.804  0.107    0.001  0.003  0.000
 H          0.002  0.000  0.003    0.237  0.007  0.365   -0.001 -0.000 -0.001
 H          0.106 -0.255  0.496    0.001 -0.002  0.004   -0.138  0.257 -0.569
 H          0.065  0.565  0.493    0.000  0.001  0.001    0.008  0.109  0.125
 H          0.241  0.182 -0.102    0.000  0.000 -0.000    0.572  0.433 -0.195
 TransDip  -0.053 -0.068 -0.070   -0.058 -0.118 -0.022   -0.086 -0.068  0.044

 Mode:                79                     80                     81
 Frequency:      3122.80                3125.87                3156.39
 Force Cnst:      6.3593                 6.3744                 6.4947
 Red. Mass:       1.1068                 1.1073                 1.1064
 IR Active:          YES                    YES                    YES
 IR Intens:       17.955                 13.645                 13.120
 Raman Active:       YES                    YES                    YES
               X      Y      Z        X      Y      Z        X      Y      Z
 C          0.000 -0.000 -0.000   -0.000 -0.000  0.000    0.000 -0.000 -0.000
 C          0.000  0.000  0.000    0.000 -0.000 -0.000    0.000 -0.000  0.000
 C         -0.000  0.000  0.000    0.000  0.000 -0.000   -0.000  0.000 -0.000
 C         -0.000 -0.000 -0.000    0.000 -0.000  0.000   -0.000  0.001 -0.000
 O         -0.000  0.000  0.000   -0.000 -0.000  0.000    0.000  0.000  0.000
 O         -0.000  0.000  0.000   -0.000 -0.000  0.000    0.000 -0.000  0.000
 O          0.000  0.000  0.000   -0.000 -0.000  0.000    0.000 -0.000  0.000
 O          0.000  0.000  0.000   -0.000  0.000  0.000    0.000 -0.000  0.000
 C          0.002 -0.001 -0.002    0.063 -0.024 -0.068   -0.068  0.006 -0.065
 C          0.025 -0.080 -0.045   -0.001  0.002  0.002   -0.000 -0.000 -0.001
 C         -0.000 -0.000  0.000    0.000  0.000  0.000   -0.000 -0.000  0.000
 C          0.000 -0.000  0.000   -0.000 -0.000  0.000    0.000  0.000 -0.000
 C         -0.000  0.000 -0.000    0.000 -0.000  0.000   -0.000 -0.000  0.000
 C         -0.000 -0.000  0.000   -0.000  0.000  0.000   -0.000  0.000  0.000
 H         -0.005 -0.003  0.017   -0.197 -0.117  0.654   -0.106 -0.045  0.275
 H         -0.269  0.255  0.590    0.008 -0.008 -0.018   -0.002  0.002  0.004
 H          0.000  0.000 -0.000   -0.000 -0.000  0.000    0.002  0.001 -0.000
 H         -0.019  0.013  0.005   -0.578  0.395  0.138    0.258 -0.180 -0.085
 H         -0.003 -0.001 -0.003    0.034  0.001  0.007    0.658  0.152  0.583
 H          0.012 -0.020  0.003   -0.002  0.001 -0.003    0.003 -0.002  0.005
 H         -0.039  0.706 -0.060    0.001 -0.020  0.002    0.000  0.002 -0.001
 H          0.000  0.001 -0.000    0.000  0.001 -0.000   -0.000 -0.001  0.000
 C         -0.000 -0.000  0.000   -0.000 -0.000 -0.000    0.000  0.000 -0.000
 C          0.001  0.001  0.000    0.000  0.000  0.000   -0.000 -0.000 -0.000
 H         -0.003 -0.001  0.005   -0.001 -0.000  0.001    0.000  0.000 -0.000
 H         -0.003 -0.009 -0.001   -0.001 -0.002 -0.000    0.000  0.000  0.000
 H         -0.003  0.000 -0.005   -0.000  0.000 -0.001    0.000 -0.000  0.000
 H         -0.000  0.000 -0.001    0.000 -0.001  0.002    0.000 -0.000  0.001
 H          0.000  0.001  0.001    0.000  0.003  0.003   -0.000 -0.001 -0.001
 H          0.001  0.001 -0.001    0.001  0.001 -0.000   -0.001 -0.001  0.001
 TransDip   0.037 -0.113 -0.066    0.070 -0.041 -0.086   -0.088 -0.016 -0.074

 Mode:                82                     83                     84
 Frequency:      3158.25                3160.64                3177.70
 Force Cnst:      6.5018                 6.3987                 6.5123
 Red. Mass:       1.1064                 1.0872                 1.0946
 IR Active:          YES                    YES                    YES
 IR Intens:       12.639                  8.221                 20.428
 Raman Active:       YES                    YES                    YES
               X      Y      Z        X      Y      Z        X      Y      Z
 C         -0.000 -0.000  0.000   -0.000  0.000 -0.000   -0.000  0.001 -0.000
 C         -0.000 -0.000  0.000   -0.001  0.000  0.000    0.001  0.000 -0.000
 C          0.001  0.001 -0.001    0.000  0.000  0.000    0.000  0.000 -0.000
 C          0.000 -0.000  0.000    0.000 -0.000  0.000   -0.000  0.000 -0.000
 O          0.000 -0.000  0.000   -0.000  0.000 -0.000   -0.000 -0.000 -0.000
 O         -0.000 -0.000  0.000   -0.000 -0.000  0.000   -0.000 -0.000  0.000
 O         -0.000  0.000  0.000    0.000  0.000  0.000   -0.000 -0.000 -0.000
 O         -0.000  0.000 -0.000   -0.000  0.000 -0.000    0.000 -0.000  0.000
 C          0.001 -0.000  0.000   -0.000 -0.000 -0.000    0.000  0.000  0.000
 C         -0.031  0.037 -0.082    0.000 -0.000  0.001    0.000 -0.000  0.000
 C         -0.000  0.000  0.000    0.002 -0.000 -0.000    0.003  0.000 -0.000
 C         -0.000 -0.001  0.000   -0.008 -0.058  0.003   -0.005 -0.064  0.003
 C          0.000  0.000 -0.000    0.054  0.027 -0.007   -0.056 -0.024  0.007
 C          0.000 -0.000 -0.000    0.001 -0.002  0.000   -0.001  0.003 -0.000
 H          0.000 -0.000  0.001   -0.000  0.000  0.000   -0.000 -0.000  0.000
 H         -0.123  0.127  0.240    0.001 -0.001 -0.002    0.000 -0.000 -0.000
 H         -0.005 -0.003  0.001   -0.644 -0.304  0.087    0.621  0.287 -0.083
 H         -0.004  0.002  0.001    0.001 -0.000 -0.000    0.000 -0.000 -0.000
 H         -0.004 -0.001 -0.004    0.002  0.000  0.001   -0.001 -0.000 -0.001
 H          0.465 -0.255  0.724   -0.005  0.003 -0.008   -0.001  0.001 -0.002
 H          0.015 -0.311  0.004   -0.000  0.003 -0.000   -0.000 -0.000  0.000
 H          0.001  0.009 -0.000    0.073  0.684 -0.037    0.070  0.714 -0.038
 C          0.000  0.000 -0.000    0.003  0.003 -0.001   -0.002 -0.002  0.001
 C          0.000  0.000 -0.000   -0.001 -0.003 -0.000   -0.001 -0.002 -0.000
 H         -0.000  0.000  0.000    0.004  0.003 -0.006    0.001  0.002 -0.002
 H         -0.000 -0.000  0.000    0.008  0.032  0.004    0.006  0.024  0.003
 H         -0.000 -0.000  0.000    0.003  0.000  0.005    0.000  0.001  0.002
 H          0.000 -0.000  0.000    0.002 -0.004  0.010   -0.000  0.001 -0.005
 H         -0.000 -0.000 -0.000   -0.001 -0.007 -0.007    0.002  0.003  0.003
 H         -0.001 -0.000  0.000   -0.035 -0.024  0.012    0.025  0.017 -0.008
 TransDip  -0.057  0.035 -0.092    0.077 -0.049 -0.006   -0.083 -0.118  0.015

 STANDARD THERMODYNAMIC QUANTITIES AT   298.15 K  AND     1.00 ATM

   This Molecule has  0 Imaginary Frequencies
   Zero point vibrational energy:      150.425 kcal/mol

   Atom    1 Element C  Has Mass   12.00000
   Atom    2 Element C  Has Mass   12.00000
   Atom    3 Element C  Has Mass   12.00000
   Atom    4 Element C  Has Mass   12.00000
   Atom    5 Element O  Has Mass   15.99491
   Atom    6 Element O  Has Mass   15.99491
   Atom    7 Element O  Has Mass   15.99491
   Atom    8 Element O  Has Mass   15.99491
   Atom    9 Element C  Has Mass   12.00000
   Atom   10 Element C  Has Mass   12.00000
   Atom   11 Element C  Has Mass   12.00000
   Atom   12 Element C  Has Mass   12.00000
   Atom   13 Element C  Has Mass   12.00000
   Atom   14 Element C  Has Mass   12.00000
   Atom   15 Element H  Has Mass    1.00783
   Atom   16 Element H  Has Mass    1.00783
   Atom   17 Element H  Has Mass    1.00783
   Atom   18 Element H  Has Mass    1.00783
   Atom   19 Element H  Has Mass    1.00783
   Atom   20 Element H  Has Mass    1.00783
   Atom   21 Element H  Has Mass    1.00783
   Atom   22 Element H  Has Mass    1.00783
   Atom   23 Element C  Has Mass   12.00000
   Atom   24 Element C  Has Mass   12.00000
   Atom   25 Element H  Has Mass    1.00783
   Atom   26 Element H  Has Mass    1.00783
   Atom   27 Element H  Has Mass    1.00783
   Atom   28 Element H  Has Mass    1.00783
   Atom   29 Element H  Has Mass    1.00783
   Atom   30 Element H  Has Mass    1.00783
   Molecular Mass:   222.089260 amu
   Principal axes and moments of inertia in amu*Bohr^2:
                             1           2           3
    Eigenvalues --     2856.22303  3195.70500  5564.63454
          X               0.99994     0.01114     0.00087
          Y              -0.01115     0.99990     0.00816
          Z              -0.00078    -0.00817     0.99997
   Rotational Symmetry Number is   1
   The Molecule is an Asymmetric Top
   Translational Enthalpy:        0.889 kcal/mol
   Rotational Enthalpy:           0.889 kcal/mol
   Vibrational Enthalpy:        159.290 kcal/mol
   gas constant (RT):             0.592 kcal/mol
   Translational Entropy:        42.096  cal/mol.K
   Rotational Entropy:           32.296  cal/mol.K
   Vibrational Entropy:          59.169  cal/mol.K

   Total Enthalpy:              161.660 kcal/mol
   Total Entropy:               133.561  cal/mol.K
Archival summary:
1\1\nid03053\FREQ\ProcedureUnspecified\BasisUnspecified\41214\junteng\WedOct421:30:202017WedOct421:30:202017\0\\#,FREQ,ProcedureUnspecified,BasisUnspecified,\\0,1\O\C,1,1.3501\O,2,1.20705,1,123.486\C,1,1.43886,2,115.892,3,-8.02468,0\H,4,1.08774,1,105.408,2,178.264,0\H,4,1.09059,1,110.59,2,58.5683,0\H,4,1.09119,1,109.858,2,-62.4167,0\C,2,1.49626,1,111.436,3,-178.935,0\C,8,1.40685,2,120.13,1,-45.3538,0\C,9,1.40424,8,120.979,2,-178.728,0\C,10,1.3957,9,117.605,8,-0.914836,0\H,11,1.08504,10,119.111,9,179.69,0\C,11,1.38887,10,121.504,9,0.163168,0\H,13,1.0849,11,119.407,10,-179.672,0\C,13,1.39592,11,121.595,10,0.855243,0\C,9,1.50068,8,119.374,2,-4.5082,0\O,16,1.20761,9,124.323,8,-58.7476,0\O,16,1.34532,9,111.872,8,122.911,0\C,18,1.4398,16,115.729,9,178.768,0\H,19,1.08759,18,105.444,16,179.555,0\H,19,1.09083,18,110.22,16,60.049,0\H,19,1.09114,18,110.495,16,-60.7133,0\C,15,1.51025,13,119.425,11,179.237,0\H,23,1.0916,15,110.103,13,9.4138,0\H,23,1.09177,15,111.056,13,-111.027,0\H,23,1.09263,15,112.006,13,129.792,0\C,10,1.51067,9,122.447,8,177.855,0\H,27,1.09145,10,110.393,9,-167.142,0\H,27,1.09268,10,111.219,9,72.5679,0\H,27,1.09315,10,111.642,9,-47.2586,0\\\@

 Total job time:  8330.39s(wall), 48147.66s(cpu) 
 Wed Oct  4 21:30:20 2017

        *************************************************************
        *                                                           *
        *  Thank you very much for using Q-Chem.  Have a nice day.  *
        *                                                           *
        *************************************************************


