nid00665 10.128.2
Q-Chem Developer Version! Running on 10.128.2.*
                  Welcome to Q-Chem
     A Quantum Leap Into The Future Of Chemistry


 Q-Chem 5.0, Q-Chem, Inc., Pleasanton, CA (2017)

 Yihan Shao,  Zhengting Gan,  E. Epifanovsky,  A. T. B. Gilbert,  M. Wormit,  
 J. Kussmann,  A. W. Lange,  A. Behn,  Jia Deng,  Xintian Feng,  D. Ghosh,  
 M. Goldey,  P. R. Horn,  L. D. Jacobson,  I. Kaliman,  T. Kus,  A. Landau,  
 Jie Liu,  E. I. Proynov,  R. M. Richard,  R. P. Steele,  E. J. Sundstrom,  
 H. L. Woodcock III,  P. M. Zimmerman,  D. Zuev,  B. Albrecht,  E. Alguire,  
 S. A. Baeppler,  Z. Benda,  Y. A. Bernard,  E. J. Berquist,  K. B. Bravaya,  
 D. Casanova,  Chun-Min Chang,  Yunqing Chen,  A. Chien,  K. D. Closser,  
 M. P. Coons,  S. Dasgupta,  M. Diedenhofen,  Hainam Do,  R. G. Edgar,  
 Po-Tung Fang,  S. Fatehi,  Qingguo Feng,  Qinghui Ge,  A. Ghysels,  
 J. Gomes,  J. Gonthier,  A. Gunina,  M. W. D. Hanson-Heine,  
 P. H. P. Harbach,  A. W. Hauser,  J. E. Herr,  E. G. Hohenstein,  
 Z. C. Holden,  Kerwin Hui,  T.-C. Jagau,  Hyunjun Ji,  B. Kaduk,  
 K. Khistyaev,  Jaehoon Kim,  P. Klunzinger,  K. Koh,  D. Kosenkov,  
 T. Kowalczyk,  C. M. Krauter,  A. Kunitsa,  Ka Un Lao,  A. Laurent,  
 K. V. Lawler,  Joonho Lee,  D. Lefrancois,  S. Lehtola,  D. S. Levine,  
 Yi-Pei Li,  You-Sheng Lin,  Fenglai Liu,  E. Livshits,  A. Luenser,  
 P. Manohar,  E. Mansoor,  S. F. Manzer,  Shan-Ping Mao,  Yuezhi Mao,  
 N. Mardirossian,  A. V. Marenich,  L. A. Martinez-Martinez,  S. A. Maurer,  
 N. J. Mayhall,  S. C. McKenzie,  J.-M. Mewes,  A. F. Morrison,  K. Nanda,  
 T. S. Nguyen-Beck,  R. Olivares-Amaya,  J. A. Parkhill,  T. M. Perrine,  
 F. Plasser,  S. Prager,  A. Prociuk,  D. R. Rehn,  F. Rob,  M. Schneider,  
 N. Sergueev,  S. M. Sharada,  S. Sharma,  D. W. Small,  T. Stauch,  
 T. Stein,  Yu-Chuan Su,  A. J. W. Thom,  T. Tsuchimochi,  L. Vogt,  
 O. Vydrov,  M. A. Watson,  J. Wenzel,  M. de Wergifosse,  T. A. Wesolowski,  
 A. White,  J. Witte,  A. Yamada,  Jun Yang,  K. Yao,  S. Yeganeh,  
 S. R. Yost,  Zhi-Qiang You,  A. Zech,  Igor Ying Zhang,  Xing Zhang,  
 Yan Zhao,  Ying Zhu,  B. R. Brooks,  G. K. L. Chan,  C. J. Cramer,  
 M. S. Gordon,  W. J. Hehre,  A. Klamt,  M. W. Schmidt,  C. D. Sherrill,  
 D. G. Truhlar,  A. Aspuru-Guzik,  R. Baer,  A. T. Bell,  N. A. Besley,  
 Jeng-Da Chai,  A. Dreuw,  B. D. Dunietz,  T. R. Furlani,  Chao-Ping Hsu,  
 Yousung Jung,  Jing Kong,  D. S. Lambrecht,  WanZhen Liang,  C. Ochsenfeld,  
 V. A. Rassolov,  L. V. Slipchenko,  J. E. Subotnik,  T. Van Voorhis,  
 J. M. Herbert,  A. I. Krylov,  P. M. W. Gill,  M. Head-Gordon

 Contributors to earlier versions of Q-Chem not listed above: 
 R. D. Adamson,  B. Austin,  J. Baker,  G. J. O. Beran,  K. Brandhorst,  
 S. T. Brown,  E. F. C. Byrd,  A. K. Chakraborty,  C.-L. Cheng,  
 Siu Hung Chien,  D. M. Chipman,  D. L. Crittenden,  H. Dachsel,  
 R. A. DiStasio Jr.,  R. J. Doerksen,  A. D. Dutoi,  L. Fusti-Molnar,  
 W. A. Goddard III,  A. Golubeva-Zadorozhnaya,  S. R. Gwaltney,  G. Hawkins,  
 A. Heyden,  S. Hirata,  G. Kedziora,  F. J. Keil,  C. Kelley,  Jihan Kim,  
 R. A. King,  R. Z. Khaliullin,  P. P. Korambath,  W. Kurlancheek,  
 A. M. Lee,  M. S. Lee,  S. V. Levchenko,  Ching Yeh Lin,  D. Liotard,  
 R. C. Lochan,  I. Lotan,  P. E. Maslen,  N. Nair,  D. P. O'Neill,  
 D. Neuhauser,  E. Neuscamman,  C. M. Oana,  R. Olson,  B. Peters,  
 R. Peverati,  P. A. Pieniazek,  Y. M. Rhee,  J. Ritchie,  M. A. Rohrdanz,  
 E. Rosta,  N. J. Russ,  H. F. Schaefer III,  N. E. Schultz,  N. Shenvi,  
 A. C. Simmonett,  A. Sodt,  D. Stuck,  K. S. Thanthiriwatte,  V. Vanovschi,  
 Tao Wang,  A. Warshel,  C. F. Williams,  Q. Wu,  X. Xu,  W. Zhang

 Please cite Q-Chem as follows:
 Y. Shao et al., Mol. Phys. 113, 184-215 (2015)
 DOI: 10.1080/00268976.2014.952696

 Q-Chem 5.0.0 for Intel X86 EM64T Linux

 Parts of Q-Chem use Armadillo 5.200.1 (Boston Tea Smuggler).
 http://arma.sourceforge.net/

 Q-Chem begins on Wed Oct  4 17:37:16 2017  

Host: nid00665
0

     Scratch files written to /global/cscratch1/sd/junteng/scratch/14/opt_1101oo.save//

Checking the input file for inconsistencies... 	...done.

--------------------------------------------------------------
User input:
--------------------------------------------------------------
$molecule
0  1
C    0.711  -1.958   0.589
C   -0.299  -1.995   1.756
C    1.089  -0.603   0.022
C   -0.528  -0.668   2.454
O    2.255  -0.726  -0.682
O    0.458   0.435   0.138
O    0.672  -0.221   2.944
O   -1.603  -0.140   2.687
C    0.580   1.027   3.634
C    2.698   0.490  -1.286
C   -0.031  -2.720  -0.508
C   -0.144  -4.202  -0.153
C   -1.210  -4.188   0.944
C   -1.515  -2.680   1.086
O   -1.391  -2.278  -0.299
H    1.639  -2.461   0.888
H    0.068  -2.659   2.552
H   -0.050   0.928   4.523
H    1.951   0.864  -1.993
H   -0.511  -4.776  -1.011
H    0.804  -4.638   0.173
H   -2.087  -4.746   0.595
H   -0.869  -4.649   1.876
H    1.587   1.311   3.953
H    0.196   1.807   2.969
H    3.619   0.278  -1.837
H    2.918   1.240  -0.519
H    0.300  -2.531  -1.532
C   -2.908  -2.427   1.624
H   -3.642  -3.061   1.114
H   -2.968  -2.632   2.696
H   -3.235  -1.402   1.426
$end


$opt
CONSTRAINT
tors    2    1    3    5    162.3
tors    1    2    4    7    -60.0
ENDCONSTRAINT
$end

$rem
JOBTYPE                   OPT
METHOD                    B3LYP
DFT_D                     D3_OP
BASIS                     STO-3G
GEOM_OPT_MAX_CYCLES       500
SYMMETRY                  False
THRESH                    12
SCF_CONVERGENCE           8
MAX_SUB_FILE_NUM          128
MEM_STATIC                400
MEM_TOTAL                 4000
$end

--------------------------------------------------------------
 Adding empirical dispersion correction 
 ----------------------------------------------------------------
 Doing -D3(op) with
 s6 =   1.00000
 s8 =   0.78311
 a1 =   0.30000
 a2 =   4.25000
 n  =  10.00000
 -D3 energy without 3body term =     -0.0354339443 hartrees
 ----------------------------------------------------------------
             Standard Nuclear Orientation (Angstroms)
    I     Atom           X                Y                Z
 ----------------------------------------------------------------
    1      C      -0.1011848019     0.8054220658     0.6072204492
    2      C       0.6620154878    -0.5364971559     0.5955533906
    3      C      -1.4015644380     0.8875516009    -0.1690949129
    4      C      -0.1410572282    -1.7318799813     0.1194146361
    5      O      -2.1190916287     1.9620046977     0.2792423188
    6      O      -1.7586593461     0.1451011244    -1.0692679610
    7      O      -1.2361871469    -1.8724092621     0.9323420513
    8      O       0.1839039632    -2.5367797787    -0.7380435496
    9      C      -2.0705618232    -2.9788079980     0.5833882767
   10      C      -3.3601324547     2.1543130106    -0.4008725103
   11      C       0.8921947687     1.7507805700    -0.0666573788
   12      C       2.1006898551     1.9956119456     0.8359583888
   13      C       2.8581814059     0.6714609442     0.7228580976
   14      C       1.9353848860    -0.1568246325    -0.1989024928
   15      O       1.4677351984     0.8937269451    -1.0780214566
   16      H      -0.3158357451     1.0989107000     1.6422969653
   17      H       0.9675145382    -0.8059543627     1.6169564177
   18      H      -1.5277085504    -3.9211288805     0.7032368423
   19      H      -3.1925366947     2.3218430413    -1.4693196780
   20      H       2.7207990583     2.8058706669     0.4368664437
   21      H       1.8242280680     2.2474343817     1.8632024401
   22      H       3.8327460722     0.8578355890     0.2561866896
   23      H       3.0366664167     0.1979666648     1.6931015044
   24      H      -2.9267737949    -2.9833521908     1.2640838105
   25      H      -2.4439876414    -2.8714877839    -0.4398988433
   26      H      -3.8403685125     3.0440784321     0.0168317195
   27      H      -4.0212059080     1.2961810682    -0.2403095674
   28      H       0.4702491978     2.6594561976    -0.5026946926
   29      C       2.6945415386    -1.2278384490    -0.9542253256
   30      H       3.6222933193    -0.8229488311    -1.3739312116
   31      H       2.9531506788    -2.0694657777    -0.3064647586
   32      H       2.1281180017    -1.5881402477    -1.8179990175
 ----------------------------------------------------------------
 Molecular Point Group                 C1    NOp =  1
 Largest Abelian Subgroup              C1    NOp =  1
 Nuclear Repulsion Energy =  1248.6091517482 hartrees
 There are       61 alpha and       61 beta electrons
 Requested basis set is STO-3G
 There are 48 shells and 96 basis functions

 Total QAlloc Memory Limit   4000 MB
 Mega-Array Size       392 MB
 MEM_STATIC part       400 MB
 A cutoff of  1.0D-12 yielded   1028 shell pairs
 There are      4526 function pairs
 
 -------------------------------------------------------
 OpenMP Integral Computing Module                       
 Release: version 1.0, May 2013, Q-Chem Inc. Pittsburgh 
 -------------------------------------------------------
 Integral Job Info:
 Integral job number is                      11
 Integral operator is                         1
 short-range coefficients                     0
 long-range coefficients              100000000
 Omega coefficients                           0
 if combine SR and LR in K                    0
 Integral screening is                        0
 Integral computing path is                   2
 max size of driver memory is            800000
 size of driver memory is                 45569
 size of scratch memory is               945100
 max col of scratch BK array                289
 max len of scratch array in speh3           22
 max len of scratch index in speh4            8
 max int batch size is                      520
 min int batch size is                       52
 fixed nKL is                                52
 max L of basis functions is                  1
 order of int derivative is                   0
 number of shells is                         48
 number of basis is                          96
 number of cartesian basis is                96
 number of contracted shell pairs          1028
 number of primitive shell pairs           5665
 maxK2 (contraction) of shell pair            9
 max number of K2 of shell pair               1
 max number of CS2 of shell pair            150
 max number of PS2 of shell pair            666
 mem total for path MDJ                   31466
 -------------------------------------------------------
 Smallest overlap matrix eigenvalue = 1.94E-01

 Scale SEOQF with 1.000000e-01/1.000000e-01/1.000000e-01

 Standard Electronic Orientation quadrupole field applied
 Nucleus-field energy     =     0.0000000345 hartrees
 Guess from superposition of atomic densities
 Warning:  Energy on first SCF cycle will be non-variational
 A restricted hybrid HF-DFT SCF calculation will be
 performed using Pulay DIIS extrapolation
 Exchange:     0.2000 Hartree-Fock + 0.0800 Slater + 0.7200 B88
 Correlation:  0.1900 VWN1RPA + 0.8100 LYP
 Using SG-1 standard quadrature grid
 Dispersion:   Grimme D3
 SCF converges when DIIS error is below 1.0E-08
 -------------------------------------------------------
 OpenMP Integral computing Module                
 Release: version 1.0, May 2013, Q-Chem Inc. Pittsburgh 
 -------------------------------------------------------
 -------------------------------------------------------
 OpenMP BLAS3 based DFT computing Module                
 Release: version 1.0, May 2013, Q-Chem Inc. Pittsburgh 
 -------------------------------------------------------
 ---------------------------------------
  Cycle       Energy         DIIS Error
 ---------------------------------------
    1    -793.7951598601      1.10E-01
    2    -794.2843676763      1.34E-02
    3    -793.3333321269      3.22E-02
    4    -794.5216836078      4.73E-03
    5    -794.5484650511      1.51E-03
    6    -794.5513969032      2.61E-04
    7    -794.5514890854      3.74E-05
    8    -794.5514903283      2.22E-05
    9    -794.5514908913      7.66E-06
   10    -794.5514909686      1.53E-06
   11    -794.5514909718      3.16E-07
   12    -794.5514909719      9.25E-08
   13    -794.5514909719      1.78E-08
   14    -794.5514909720      6.56E-09 Convergence criterion met
 ---------------------------------------
 SCF time:  CPU 61.02 s  wall 2.58 s
 SCF   energy in the final basis set = -794.5514909720
 Total energy in the final basis set = -794.5514909720
 
 --------------------------------------------------------------
 
                    Orbital Energies (a.u.)
 --------------------------------------------------------------
 
 Alpha MOs
 -- Occupied --
-18.943 -18.932 -18.868 -18.867 -18.860 -10.109 -10.103 -10.074
-10.066 -10.062 -10.059 -10.033 -10.031 -10.012 -10.008 -10.003
 -1.043  -1.032  -0.988  -0.952  -0.944  -0.774  -0.743  -0.732
 -0.691  -0.670  -0.644  -0.600  -0.547  -0.535  -0.503  -0.481
 -0.469  -0.452  -0.439  -0.430  -0.426  -0.421  -0.414  -0.389
 -0.380  -0.373  -0.369  -0.361  -0.345  -0.338  -0.319  -0.311
 -0.307  -0.306  -0.290  -0.285  -0.273  -0.248  -0.240  -0.217
 -0.183  -0.173  -0.152  -0.141  -0.132
 -- Virtual --
  0.113   0.128   0.246   0.275   0.297   0.311   0.337   0.354
  0.375   0.382   0.400   0.402   0.409   0.414   0.433   0.434
  0.439   0.446   0.447   0.456   0.457   0.463   0.467   0.476
  0.483   0.487   0.501   0.503   0.508   0.531   0.544   0.578
  0.585   0.705   0.710
 --------------------------------------------------------------
 
          Ground-State Mulliken Net Atomic Charges

     Atom                 Charge (a.u.)
  ----------------------------------------
      1 C                    -0.083253
      2 C                    -0.085483
      3 C                     0.238543
      4 C                     0.240385
      5 O                    -0.189915
      6 O                    -0.229133
      7 O                    -0.193361
      8 O                    -0.227914
      9 C                    -0.126235
     10 C                    -0.125671
     11 C                     0.027112
     12 C                    -0.148912
     13 C                    -0.146349
     14 C                     0.112176
     15 O                    -0.212592
     16 H                     0.088932
     17 H                     0.086216
     18 H                     0.090756
     19 H                     0.094062
     20 H                     0.077409
     21 H                     0.072391
     22 H                     0.076456
     23 H                     0.069266
     24 H                     0.092224
     25 H                     0.097060
     26 H                     0.095371
     27 H                     0.092912
     28 H                     0.086999
     29 C                    -0.230002
     30 H                     0.079447
     31 H                     0.082736
     32 H                     0.098367
  ----------------------------------------
  Sum of atomic charges =     0.000000

 -----------------------------------------------------------------
                    Cartesian Multipole Moments
 -----------------------------------------------------------------
    Charge (ESU x 10^10)
                 0.0000
    Dipole Moment (Debye)
         X      -0.9000      Y       1.0167      Z       2.2398
       Tot       2.6192
    Quadrupole Moments (Debye-Ang)
        XX     -78.1689     XY      -0.4924     YY     -83.5528
        XZ       1.8518     YZ      -3.7325     ZZ     -89.8619
    Octopole Moments (Debye-Ang^2)
       XXX     -39.6060    XXY       2.0281    XYY     -24.2189
       YYY      -4.1508    XXZ      -2.1840    XYZ       5.6095
       YYZ       2.6959    XZZ      -4.9119    YZZ      -1.2831
       ZZZ      -3.9507
    Hexadecapole Moments (Debye-Ang^3)
      XXXX   -1973.1049   XXXY     -37.3837   XXYY    -550.3213
      XYYY      13.0527   YYYY   -1542.9943   XXXZ     -20.5358
      XXYZ     -15.3485   XYYZ       3.7340   YYYZ     -48.0150
      XXZZ    -415.8538   XYZZ      -7.7171   YYZZ    -326.9796
      XZZZ      -2.4473   YZZZ       1.8990   ZZZZ    -354.7750
 -----------------------------------------------------------------
 Calculating analytic gradient of the SCF energy
 Gradient of SCF Energy
            1           2           3           4           5           6
    1   0.0105824  -0.0047585  -0.0132229  -0.0145618  -0.0080439   0.0193486
    2  -0.0094286   0.0006148   0.0177705  -0.0098726  -0.0439694   0.0387808
    3  -0.0409748  -0.0271339  -0.0065933   0.0069328  -0.0438092   0.0463905
            7           8           9          10          11          12
    1   0.0251284  -0.0101926   0.0105892   0.0172321  -0.0122285  -0.0111337
    2  -0.0315334   0.0398761   0.0145324  -0.0014748  -0.0114503  -0.0268783
    3  -0.0462533   0.0454110   0.0056542   0.0108542   0.0065478  -0.0228126
           13          14          15          16          17          18
    1  -0.0225272  -0.0132804   0.0045446   0.0009547   0.0009502  -0.0038117
    2   0.0054772  -0.0016595  -0.0046165  -0.0044751  -0.0029562   0.0135603
    3  -0.0246370   0.0052221   0.0629161  -0.0049379  -0.0071049   0.0038572
           19          20          21          22          23          24
    1   0.0029927   0.0007724   0.0019036  -0.0026177  -0.0008809   0.0067039
    2   0.0017931  -0.0059840  -0.0021286   0.0055801   0.0031867  -0.0023497
    3   0.0137962   0.0006951  -0.0064503   0.0039902  -0.0052610  -0.0078703
           25          26          27          28          29          30
    1   0.0031110   0.0020007   0.0092035   0.0069460  -0.0095853  -0.0048298
    2   0.0045157  -0.0084361   0.0092190  -0.0070614   0.0139670  -0.0048305
    3   0.0126380  -0.0059197   0.0042661   0.0054435   0.0229604  -0.0035494
           31          32
    1   0.0008812   0.0078296
    2   0.0043954   0.0058359
    3  -0.0032957  -0.0009721
 Max gradient component =       6.292E-02
 RMS gradient           =       1.745E-02
 Gradient time:  CPU 16.48 s  wall 0.71 s
 Geometry Optimization Parameters
   NAtoms,    NIC,     NZ,  NCons,   NDum,   NFix, NCnnct, MaxDiis
       32     251       0       2       0       0       0       0


** CONSTRAINED OPTIMIZATION IN DELOCALIZED INTERNAL COORDINATES **
   Searching for a Minimum

   Optimization Cycle:   1

                       Coordinates (Angstroms)
     ATOM                X               Y               Z
      1  C        -0.1011848019    0.8054220658    0.6072204492
      2  C         0.6620154878   -0.5364971559    0.5955533906
      3  C        -1.4015644380    0.8875516009   -0.1690949129
      4  C        -0.1410572282   -1.7318799813    0.1194146361
      5  O        -2.1190916287    1.9620046977    0.2792423188
      6  O        -1.7586593461    0.1451011244   -1.0692679610
      7  O        -1.2361871469   -1.8724092621    0.9323420513
      8  O         0.1839039632   -2.5367797787   -0.7380435496
      9  C        -2.0705618232   -2.9788079980    0.5833882767
     10  C        -3.3601324547    2.1543130106   -0.4008725103
     11  C         0.8921947687    1.7507805700   -0.0666573788
     12  C         2.1006898551    1.9956119456    0.8359583888
     13  C         2.8581814059    0.6714609442    0.7228580976
     14  C         1.9353848860   -0.1568246325   -0.1989024928
     15  O         1.4677351984    0.8937269451   -1.0780214566
     16  H        -0.3158357451    1.0989107000    1.6422969653
     17  H         0.9675145382   -0.8059543627    1.6169564177
     18  H        -1.5277085504   -3.9211288805    0.7032368423
     19  H        -3.1925366947    2.3218430413   -1.4693196780
     20  H         2.7207990583    2.8058706669    0.4368664437
     21  H         1.8242280680    2.2474343817    1.8632024401
     22  H         3.8327460722    0.8578355890    0.2561866896
     23  H         3.0366664167    0.1979666648    1.6931015044
     24  H        -2.9267737949   -2.9833521908    1.2640838105
     25  H        -2.4439876414   -2.8714877839   -0.4398988433
     26  H        -3.8403685125    3.0440784321    0.0168317195
     27  H        -4.0212059080    1.2961810682   -0.2403095674
     28  H         0.4702491978    2.6594561976   -0.5026946926
     29  C         2.6945415386   -1.2278384490   -0.9542253256
     30  H         3.6222933193   -0.8229488311   -1.3739312116
     31  H         2.9531506788   -2.0694657777   -0.3064647586
     32  H         2.1281180017   -1.5881402477   -1.8179990175
   Point Group: c1    Number of degrees of freedom:    90


   Energy is   -794.551490972

              Constraints and their Current Values
                                        Value     Constraint
   Dihedral:        2   1   3   5      161.506      162.300
   Dihedral:        1   2   4   7      -58.727      -60.000

 Attempting to Generate Delocalized Internal Coordinates

   Using Lagrange Multiplier Algorithm


 92 Hessian modes will be used to form the next step
  Hessian Eigenvalues:
    -0.977753   -0.977753    0.045000    0.045000    0.045000    0.045000
     0.045000    0.045010    0.045298    0.045515    0.048619    0.059359
     0.061550    0.067521    0.068252    0.070602    0.073231    0.073438
     0.076637    0.079785    0.081436    0.082111    0.083599    0.083601
     0.084460    0.085259    0.090062    0.091363    0.091986    0.097105
     0.108323    0.112588    0.113785    0.113804    0.116926    0.116971
     0.122385    0.127205    0.139525    0.143598    0.160000    0.160000
     0.160000    0.160000    0.160000    0.160000    0.160000    0.160000
     0.160000    0.167195    0.181257    0.244222    0.248535    0.249951
     0.250000    0.250000    0.250000    0.250000    0.252783    0.262190
     0.267687    0.287879    0.290216    0.306804    0.306860    0.308963
     0.329030    0.337223    0.340066    0.340731    0.341491    0.341652
     0.341740    0.342327    0.342899    0.343079    0.343239    0.343448
     0.343570    0.343585    0.343737    0.344460    0.344599    0.345095
     0.411320    0.412508    0.507662    0.514426    0.952633    0.953292
     1.022753    1.022753

 Minimum Search - Taking P-RFO Step
 Searching for Lamda that Maximizes Along the Constraint modes Only
 Value Taken    Lamda =   0.00048832
 Searching for Lamda that Minimizes Along All other modes
 Value Taken    Lamda =  -0.06679124
 Calculated Step too Large.  Step scaled by  0.709798
 Step Taken.  Stepsize is  0.300000

                             Maximum     Tolerance    Cnvgd?
         Gradient            0.077184       0.000300      NO
         Displacement        0.093767       0.001200      NO
         Energy change     *********       0.000001      NO


 New Cartesian Coordinates Obtained by Inverse Iteration

 Displacement from previous Coordinates is:  0.779754
 Adding empirical dispersion correction 
 ----------------------------------------------------------------
 Doing -D3(op) with
 s6 =   1.00000
 s8 =   0.78311
 a1 =   0.30000
 a2 =   4.25000
 n  =  10.00000
 -D3 energy without 3body term =     -0.0352309661 hartrees
 ----------------------------------------------------------------
             Standard Nuclear Orientation (Angstroms)
    I     Atom           X                Y                Z
 ----------------------------------------------------------------
    1      C      -0.0797439214     0.8388611551     0.6372714498
    2      C       0.6871876729    -0.5229514557     0.6158213921
    3      C      -1.4159331845     0.8691452083    -0.1500747971
    4      C      -0.1562605528    -1.7272990775     0.1098340791
    5      O      -2.1671357639     1.9689317655     0.2867789838
    6      O      -1.7721504878     0.0810257118    -1.0437590961
    7      O      -1.2647599311    -1.8583327910     0.9634435711
    8      O       0.1295695395    -2.5392283687    -0.7862805151
    9      C      -2.1322228087    -2.9657811090     0.5812139028
   10      C      -3.4339957681     2.0967502937    -0.4236534490
   11      C       0.9494659354     1.7919718540    -0.0649351737
   12      C       2.1734149448     2.0386552595     0.8746805381
   13      C       2.9282161884     0.6784250349     0.7524420789
   14      C       1.9820451233    -0.1419548062    -0.2097968040
   15      O       1.5163656058     0.9269648398    -1.1124418283
   16      H      -0.2909468542     1.1503370691     1.6737259030
   17      H       1.0012378136    -0.7970662327     1.6390209874
   18      H      -1.6102365131    -3.9378699621     0.6593154273
   19      H      -3.2811899213     2.2295755385    -1.5110500978
   20      H       2.7970057453     2.8559455199     0.4847147917
   21      H       1.8865697596     2.2903658080     1.9059481665
   22      H       3.9102576133     0.8398428466     0.2854693934
   23      H       3.0939318770     0.1874518217     1.7226639163
   24      H      -2.9832949604    -2.9657805247     1.2830104290
   25      H      -2.5220414537    -2.8394451585    -0.4460229584
   26      H      -3.9375509309     2.9944092812    -0.0267665654
   27      H      -4.0863343432     1.2203412939    -0.2500502918
   28      H       0.5212923243     2.7051800856    -0.5099747403
   29      C       2.7176232343    -1.2431493021    -0.9932164938
   30      H       3.6533480452    -0.8448405119    -1.4123878204
   31      H       2.9609830237    -2.0959681775    -0.3462658156
   32      H       2.1188396886    -1.5924785958    -1.8456414778
 ----------------------------------------------------------------
 Molecular Point Group                 C1    NOp =  1
 Largest Abelian Subgroup              C1    NOp =  1
 Nuclear Repulsion Energy =  1229.5735205948 hartrees
 There are       61 alpha and       61 beta electrons
 Applying Cartesian multipole field
    Component          Value
    ---------          -----
     (2,0,0)        1.00000E-11
     (0,2,0)        2.00000E-11
     (0,0,2)       -3.00000E-11
 Nucleus-field energy     =     0.0000000348 hartrees
 Requested basis set is STO-3G
 There are 48 shells and 96 basis functions
 A cutoff of  1.0D-12 yielded   1024 shell pairs
 There are      4516 function pairs
 Smallest overlap matrix eigenvalue = 2.08E-01
 Guess MOs from SCF MO coefficient file
 Reading MOs from coefficient file
 Reading MOs from coefficient file
 A restricted hybrid HF-DFT SCF calculation will be
 performed using Pulay DIIS extrapolation
 Exchange:     0.2000 Hartree-Fock + 0.0800 Slater + 0.7200 B88
 Correlation:  0.1900 VWN1RPA + 0.8100 LYP
 Using SG-1 standard quadrature grid
 Dispersion:   Grimme D3
 SCF converges when DIIS error is below 1.0E-08
 Geometry optimization detected.  Setting ReadMinima to 0
 Setting SaveMinima to 0
 -------------------------------------------------------
 OpenMP Integral computing Module                
 Release: version 1.0, May 2013, Q-Chem Inc. Pittsburgh 
 -------------------------------------------------------
 -------------------------------------------------------
 OpenMP BLAS3 based DFT computing Module                
 Release: version 1.0, May 2013, Q-Chem Inc. Pittsburgh 
 -------------------------------------------------------
 ---------------------------------------
  Cycle       Energy         DIIS Error
 ---------------------------------------
    1    -794.4221672405      5.32E-03
    2    -794.5778706282      1.88E-03
    3    -794.5724748049      2.81E-03
    4    -794.5820810912      6.30E-04
    5    -794.5826186718      1.03E-04
    6    -794.5826337382      2.21E-05
    7    -794.5826340455      1.80E-05
    8    -794.5826344533      4.40E-06
    9    -794.5826344814      7.23E-07
   10    -794.5826344820      2.90E-07
   11    -794.5826344821      5.29E-08
   12    -794.5826344822      1.55E-08
   13    -794.5826344822      3.19E-09 Convergence criterion met
 ---------------------------------------
 SCF time:  CPU 56.91 s  wall 2.39 s
 SCF   energy in the final basis set = -794.5826344822
 Total energy in the final basis set = -794.5826344822
 
 --------------------------------------------------------------
 
                    Orbital Energies (a.u.)
 --------------------------------------------------------------
 
 Alpha MOs
 -- Occupied --
-18.940 -18.927 -18.874 -18.871 -18.861 -10.102 -10.096 -10.070
-10.061 -10.060 -10.057 -10.035 -10.031 -10.015 -10.010 -10.005
 -1.023  -1.012  -0.970  -0.941  -0.931  -0.764  -0.730  -0.721
 -0.680  -0.661  -0.638  -0.593  -0.542  -0.529  -0.496  -0.474
 -0.457  -0.443  -0.431  -0.420  -0.416  -0.410  -0.406  -0.382
 -0.378  -0.366  -0.364  -0.352  -0.342  -0.336  -0.311  -0.307
 -0.305  -0.301  -0.289  -0.280  -0.269  -0.251  -0.242  -0.223
 -0.181  -0.169  -0.152  -0.140  -0.136
 -- Virtual --
  0.103   0.120   0.238   0.259   0.279   0.295   0.319   0.338
  0.356   0.359   0.374   0.382   0.394   0.400   0.413   0.423
  0.426   0.430   0.434   0.438   0.439   0.443   0.448   0.451
  0.456   0.471   0.484   0.486   0.492   0.515   0.521   0.556
  0.562   0.666   0.672
 --------------------------------------------------------------
 
          Ground-State Mulliken Net Atomic Charges

     Atom                 Charge (a.u.)
  ----------------------------------------
      1 C                    -0.079151
      2 C                    -0.082096
      3 C                     0.222302
      4 C                     0.224230
      5 O                    -0.178180
      6 O                    -0.217465
      7 O                    -0.184127
      8 O                    -0.218443
      9 C                    -0.124983
     10 C                    -0.124884
     11 C                     0.025059
     12 C                    -0.146217
     13 C                    -0.144990
     14 C                     0.107595
     15 O                    -0.200385
     16 H                     0.087352
     17 H                     0.083803
     18 H                     0.087340
     19 H                     0.091185
     20 H                     0.076695
     21 H                     0.072392
     22 H                     0.075058
     23 H                     0.069165
     24 H                     0.088579
     25 H                     0.093725
     26 H                     0.092303
     27 H                     0.090083
     28 H                     0.083641
     29 C                    -0.227354
     30 H                     0.078677
     31 H                     0.081383
     32 H                     0.097710
  ----------------------------------------
  Sum of atomic charges =     0.000000

 -----------------------------------------------------------------
                    Cartesian Multipole Moments
 -----------------------------------------------------------------
    Charge (ESU x 10^10)
                 0.0000
    Dipole Moment (Debye)
         X      -0.7775      Y       1.0382      Z       2.1664
       Tot       2.5250
    Quadrupole Moments (Debye-Ang)
        XX     -77.6655     XY      -0.4508     YY     -83.8412
        XZ       2.2599     YZ      -3.4279     ZZ     -89.6932
    Octopole Moments (Debye-Ang^2)
       XXX     -41.5730    XXY       1.3797    XYY     -22.7681
       YYY      -5.8303    XXZ      -2.9305    XYZ       6.3747
       YYZ       2.5921    XZZ      -5.3280    YZZ      -0.8413
       ZZZ      -4.5121
    Hexadecapole Moments (Debye-Ang^3)
      XXXX   -2049.0295   XXXY     -54.0815   XXYY    -565.1059
      XYYY       1.1750   YYYY   -1543.1323   XXXZ     -18.5318
      XXYZ     -18.0340   XYYZ       3.6663   YYYZ     -51.5800
      XXZZ    -431.7847   XYZZ     -13.5104   YYZZ    -330.8103
      XZZZ      -2.8823   YZZZ      -4.2646   ZZZZ    -369.1331
 -----------------------------------------------------------------
 Calculating analytic gradient of the SCF energy
 Gradient of SCF Energy
            1           2           3           4           5           6
    1   0.0053100  -0.0039079  -0.0062015  -0.0123430  -0.0030932   0.0053742
    2  -0.0090032   0.0034392   0.0149403   0.0027019  -0.0195426   0.0099854
    3  -0.0165230  -0.0100846   0.0042707   0.0112340  -0.0181138   0.0109332
            7           8           9          10          11          12
    1   0.0115492  -0.0000152   0.0052256   0.0096167  -0.0076209  -0.0040958
    2  -0.0134755   0.0080069   0.0079781   0.0002190  -0.0012853  -0.0065310
    3  -0.0215005   0.0123538   0.0040486   0.0067115   0.0046607  -0.0066281
           13          14          15          16          17          18
    1  -0.0058088  -0.0077086   0.0046528  -0.0001011   0.0019631  -0.0013000
    2   0.0013409  -0.0046235  -0.0019188  -0.0026224  -0.0019331   0.0029888
    3  -0.0104396   0.0023571   0.0185101  -0.0009509  -0.0023067   0.0021353
           19          20          21          22          23          24
    1   0.0004199   0.0008209   0.0018796  -0.0009739   0.0014114   0.0009349
    2   0.0017801  -0.0023448   0.0008935   0.0029352   0.0014306  -0.0016805
    3   0.0032962   0.0007974  -0.0016919   0.0026071  -0.0013345  -0.0027165
           25          26          27          28          29          30
    1  -0.0003327  -0.0006551   0.0014134   0.0034758  -0.0040157  -0.0017469
    2   0.0012810  -0.0022380   0.0028929  -0.0022556   0.0044331  -0.0019759
    3   0.0035073  -0.0023523   0.0017855   0.0009841   0.0115528  -0.0028007
           31          32
    1   0.0010027   0.0048701
    2   0.0013792   0.0028042
    3  -0.0014388  -0.0028633
 Max gradient component =       2.150E-02
 RMS gradient           =       6.808E-03
 Gradient time:  CPU 15.77 s  wall 0.66 s
 Geometry Optimization Parameters
   NAtoms,    NIC,     NZ,  NCons,   NDum,   NFix, NCnnct, MaxDiis
       32     251       0       2       0       0       0       0

 Cartesian Hessian Update
 Hessian Updated using BFGS Update


** CONSTRAINED OPTIMIZATION IN DELOCALIZED INTERNAL COORDINATES **
   Searching for a Minimum

   Optimization Cycle:   2

                       Coordinates (Angstroms)
     ATOM                X               Y               Z
      1  C        -0.0797439214    0.8388611551    0.6372714498
      2  C         0.6871876729   -0.5229514557    0.6158213921
      3  C        -1.4159331845    0.8691452083   -0.1500747971
      4  C        -0.1562605528   -1.7272990775    0.1098340791
      5  O        -2.1671357639    1.9689317655    0.2867789838
      6  O        -1.7721504878    0.0810257118   -1.0437590961
      7  O        -1.2647599311   -1.8583327910    0.9634435711
      8  O         0.1295695395   -2.5392283687   -0.7862805151
      9  C        -2.1322228087   -2.9657811090    0.5812139028
     10  C        -3.4339957681    2.0967502937   -0.4236534490
     11  C         0.9494659354    1.7919718540   -0.0649351737
     12  C         2.1734149448    2.0386552595    0.8746805381
     13  C         2.9282161884    0.6784250349    0.7524420789
     14  C         1.9820451233   -0.1419548062   -0.2097968040
     15  O         1.5163656058    0.9269648398   -1.1124418283
     16  H        -0.2909468542    1.1503370691    1.6737259030
     17  H         1.0012378136   -0.7970662327    1.6390209874
     18  H        -1.6102365131   -3.9378699621    0.6593154273
     19  H        -3.2811899213    2.2295755385   -1.5110500978
     20  H         2.7970057453    2.8559455199    0.4847147917
     21  H         1.8865697596    2.2903658080    1.9059481665
     22  H         3.9102576133    0.8398428466    0.2854693934
     23  H         3.0939318770    0.1874518217    1.7226639163
     24  H        -2.9832949604   -2.9657805247    1.2830104290
     25  H        -2.5220414537   -2.8394451585   -0.4460229584
     26  H        -3.9375509309    2.9944092812   -0.0267665654
     27  H        -4.0863343432    1.2203412939   -0.2500502918
     28  H         0.5212923243    2.7051800856   -0.5099747403
     29  C         2.7176232343   -1.2431493021   -0.9932164938
     30  H         3.6533480452   -0.8448405119   -1.4123878204
     31  H         2.9609830237   -2.0959681775   -0.3462658156
     32  H         2.1188396886   -1.5924785958   -1.8456414778
   Point Group: c1    Number of degrees of freedom:    90


   Energy is   -794.582634482

              Constraints and their Current Values
                                        Value     Constraint
   Dihedral:        2   1   3   5      162.048      162.300
   Dihedral:        1   2   4   7      -59.612      -60.000
 Hessian Updated using BFGS Update

   Using Lagrange Multiplier Algorithm


 80 Hessian modes will be used to form the next step
  Hessian Eigenvalues:
    -0.977760   -0.977516    0.044985    0.045002    0.045009    0.045256
     0.045515    0.048619    0.059350    0.061272    0.067492    0.068251
     0.070580    0.073228    0.073427    0.076633    0.079788    0.081317
     0.082147    0.083342    0.083602    0.084437    0.085331    0.090057
     0.091291    0.091956    0.096965    0.107902    0.112532    0.113730
     0.113796    0.116926    0.116971    0.122431    0.128109    0.139800
     0.143475    0.158865    0.161559    0.167526    0.181234    0.243091
     0.244486    0.248694    0.249951    0.250124    0.252943    0.262486
     0.268910    0.289358    0.295503    0.306803    0.308563    0.318141
     0.328933    0.337249    0.340078    0.340676    0.341489    0.341723
     0.342227    0.342744    0.343001    0.343223    0.343347    0.343537
     0.343583    0.343707    0.344436    0.344582    0.345019    0.376303
     0.411893    0.416576    0.496867    0.512730    0.952825    0.972975
     1.022752    1.025202

 Minimum Search - Taking P-RFO Step
 Searching for Lamda that Maximizes Along the Constraint modes Only
 Value Taken    Lamda =   0.00000700
 Searching for Lamda that Minimizes Along All other modes
 Value Taken    Lamda =  -0.01127016
 Step Taken.  Stepsize is  0.255826

                             Maximum     Tolerance    Cnvgd?
         Gradient            0.025706       0.000300      NO
         Displacement        0.088409       0.001200      NO
         Energy change     -0.031144       0.000001      NO


 New Cartesian Coordinates Obtained by Inverse Iteration

 Displacement from previous Coordinates is:  0.978811
 Adding empirical dispersion correction 
 ----------------------------------------------------------------
 Doing -D3(op) with
 s6 =   1.00000
 s8 =   0.78311
 a1 =   0.30000
 a2 =   4.25000
 n  =  10.00000
 -D3 energy without 3body term =     -0.0354955761 hartrees
 ----------------------------------------------------------------
             Standard Nuclear Orientation (Angstroms)
    I     Atom           X                Y                Z
 ----------------------------------------------------------------
    1      C      -0.0472236194     0.8822992738     0.6832321106
    2      C       0.7150469984    -0.4949881887     0.6543143650
    3      C      -1.3993349901     0.8466278594    -0.1019645009
    4      C      -0.1600790169    -1.6856248370     0.1200942470
    5      O      -2.1898254882     1.9556096029     0.3133387223
    6      O      -1.7499838148     0.0110469429    -0.9659075348
    7      O      -1.2840167219    -1.7972731198     0.9962879321
    8      O       0.0750413742    -2.4763273320    -0.8187892309
    9      C      -2.1695308536    -2.8787146072     0.5286825063
   10      C      -3.4625350812     1.9665028166    -0.4344012780
   11      C       0.9900201371     1.8213241339    -0.0606645809
   12      C       2.2273539892     2.0600815840     0.8843472834
   13      C       2.9711086299     0.6792418286     0.7618612806
   14      C       2.0041405463    -0.1264964640    -0.2079803946
   15      O       1.5270187043     0.9433071746    -1.1241433342
   16      H      -0.2460234034     1.2220320983     1.7154937243
   17      H       1.0348379943    -0.7691648857     1.6768762399
   18      H      -1.6620261421    -3.8653903628     0.5503769219
   19      H      -3.2957341262     2.0444495012    -1.5285644561
   20      H       2.8500469796     2.8801797013     0.4919911120
   21      H       1.9329953057     2.3082325251     1.9169260474
   22      H       3.9554857827     0.8071057011     0.2832359249
   23      H       3.1209313778     0.1767690925     1.7310696280
   24      H      -3.0286128544    -2.8918970641     1.2252000220
   25      H      -2.5316746336    -2.6900512707    -0.5029516482
   26      H      -4.0161983509     2.8561808661    -0.0809435757
   27      H      -4.0618903901     1.0545126796    -0.2338321903
   28      H       0.5474758683     2.7321974995    -0.5097028857
   29      C       2.6861355187    -1.2642460810    -1.0077188668
   30      H       3.6250031636    -0.8934476991    -1.4482601557
   31      H       2.9121421530    -2.1151692246    -0.3478724020
   32      H       2.0234617034    -1.6068754306    -1.8165939469
 ----------------------------------------------------------------
 Molecular Point Group                 C1    NOp =  1
 Largest Abelian Subgroup              C1    NOp =  1
 Nuclear Repulsion Energy =  1228.7237727079 hartrees
 There are       61 alpha and       61 beta electrons
 Applying Cartesian multipole field
    Component          Value
    ---------          -----
     (2,0,0)        1.00000E-11
     (0,2,0)        2.00000E-11
     (0,0,2)       -3.00000E-11
 Nucleus-field energy     =     0.0000000340 hartrees
 Requested basis set is STO-3G
 There are 48 shells and 96 basis functions
 A cutoff of  1.0D-12 yielded   1023 shell pairs
 There are      4512 function pairs
 Smallest overlap matrix eigenvalue = 2.13E-01
 Guess MOs from SCF MO coefficient file
 Reading MOs from coefficient file
 Reading MOs from coefficient file
 A restricted hybrid HF-DFT SCF calculation will be
 performed using Pulay DIIS extrapolation
 Exchange:     0.2000 Hartree-Fock + 0.0800 Slater + 0.7200 B88
 Correlation:  0.1900 VWN1RPA + 0.8100 LYP
 Using SG-1 standard quadrature grid
 Dispersion:   Grimme D3
 SCF converges when DIIS error is below 1.0E-08
 Geometry optimization detected.  Setting ReadMinima to 0
 Setting SaveMinima to 0
 -------------------------------------------------------
 OpenMP Integral computing Module                
 Release: version 1.0, May 2013, Q-Chem Inc. Pittsburgh 
 -------------------------------------------------------
 -------------------------------------------------------
 OpenMP BLAS3 based DFT computing Module                
 Release: version 1.0, May 2013, Q-Chem Inc. Pittsburgh 
 -------------------------------------------------------
 ---------------------------------------
  Cycle       Energy         DIIS Error
 ---------------------------------------
    1    -794.4997030516      4.28E-03
    2    -794.5869031863      1.19E-03
    3    -794.5830151268      2.13E-03
    4    -794.5886767269      3.68E-04
    5    -794.5888580760      8.62E-05
    6    -794.5888682030      2.20E-05
    7    -794.5888684705      1.84E-05
    8    -794.5888689056      3.92E-06
    9    -794.5888689284      6.08E-07
   10    -794.5888689289      2.80E-07
   11    -794.5888689290      4.82E-08
   12    -794.5888689290      1.99E-08
   13    -794.5888689291      3.79E-09 Convergence criterion met
 ---------------------------------------
 SCF time:  CPU 58.33 s  wall 2.46 s
 SCF   energy in the final basis set = -794.5888689291
 Total energy in the final basis set = -794.5888689291
 
 --------------------------------------------------------------
 
                    Orbital Energies (a.u.)
 --------------------------------------------------------------
 
 Alpha MOs
 -- Occupied --
-18.940 -18.922 -18.877 -18.876 -18.863 -10.100 -10.091 -10.067
-10.059 -10.057 -10.056 -10.035 -10.030 -10.017 -10.012 -10.005
 -1.016  -1.001  -0.964  -0.938  -0.926  -0.761  -0.726  -0.717
 -0.673  -0.654  -0.635  -0.591  -0.540  -0.525  -0.491  -0.470
 -0.453  -0.439  -0.429  -0.415  -0.414  -0.404  -0.401  -0.380
 -0.376  -0.366  -0.357  -0.349  -0.339  -0.335  -0.311  -0.306
 -0.306  -0.295  -0.289  -0.277  -0.267  -0.254  -0.245  -0.226
 -0.181  -0.166  -0.155  -0.141  -0.138
 -- Virtual --
  0.097   0.117   0.238   0.254   0.274   0.287   0.310   0.327
  0.344   0.346   0.360   0.374   0.387   0.393   0.405   0.419
  0.423   0.424   0.428   0.431   0.433   0.437   0.440   0.441
  0.450   0.464   0.475   0.480   0.491   0.505   0.514   0.548
  0.554   0.649   0.659
 --------------------------------------------------------------
 
          Ground-State Mulliken Net Atomic Charges

     Atom                 Charge (a.u.)
  ----------------------------------------
      1 C                    -0.078119
      2 C                    -0.081916
      3 C                     0.216214
      4 C                     0.217128
      5 O                    -0.169962
      6 O                    -0.211433
      7 O                    -0.178998
      8 O                    -0.214599
      9 C                    -0.127330
     10 C                    -0.127192
     11 C                     0.024585
     12 C                    -0.144633
     13 C                    -0.144387
     14 C                     0.104895
     15 O                    -0.195412
     16 H                     0.086821
     17 H                     0.082269
     18 H                     0.085736
     19 H                     0.090480
     20 H                     0.076884
     21 H                     0.072799
     22 H                     0.074453
     23 H                     0.070024
     24 H                     0.085712
     25 H                     0.092824
     26 H                     0.090657
     27 H                     0.089500
     28 H                     0.082171
     29 C                    -0.226966
     30 H                     0.078153
     31 H                     0.079953
     32 H                     0.099690
  ----------------------------------------
  Sum of atomic charges =    -0.000000

 -----------------------------------------------------------------
                    Cartesian Multipole Moments
 -----------------------------------------------------------------
    Charge (ESU x 10^10)
                -0.0000
    Dipole Moment (Debye)
         X      -0.6417      Y       1.0615      Z       2.0375
       Tot       2.3853
    Quadrupole Moments (Debye-Ang)
        XX     -77.8143     XY      -0.4007     YY     -84.4899
        XZ       2.7272     YZ      -3.0244     ZZ     -89.5600
    Octopole Moments (Debye-Ang^2)
       XXX     -42.2887    XXY       0.0867    XYY     -19.6039
       YYY      -8.1767    XXZ      -4.3860    XYZ       6.1307
       YYZ       1.2649    XZZ      -5.8567    YZZ      -0.7776
       ZZZ      -6.8352
    Hexadecapole Moments (Debye-Ang^3)
      XXXX   -2081.7692   XXXY     -68.0691   XXYY    -569.6558
      XYYY     -14.7814   YYYY   -1493.9234   XXXZ     -18.7986
      XXYZ     -21.3285   XYYZ       3.2464   YYYZ     -56.3352
      XXZZ    -437.3516   XYZZ     -19.4024   YYZZ    -324.0007
      XZZZ      -3.0386   YZZZ     -14.2456   ZZZZ    -372.5619
 -----------------------------------------------------------------
 Calculating analytic gradient of the SCF energy
 Gradient of SCF Energy
            1           2           3           4           5           6
    1   0.0028798  -0.0026507  -0.0035109  -0.0052587  -0.0002537   0.0002865
    2  -0.0021987   0.0026964   0.0046738  -0.0000866  -0.0020153  -0.0017203
    3  -0.0033826  -0.0024267   0.0005097   0.0057371  -0.0009725   0.0006360
            7           8           9          10          11          12
    1   0.0013671   0.0018086   0.0034055   0.0042588  -0.0019910  -0.0025002
    2   0.0008902  -0.0014161   0.0024591  -0.0016998   0.0011874  -0.0010354
    3  -0.0044253  -0.0005304  -0.0002454   0.0013729   0.0039840  -0.0002141
           13          14          15          16          17          18
    1  -0.0015563  -0.0028297   0.0025513  -0.0000419   0.0017253   0.0000895
    2  -0.0008980  -0.0028024   0.0004346  -0.0009268   0.0000618  -0.0001471
    3  -0.0010669   0.0008014   0.0004247   0.0007003  -0.0001793   0.0002547
           19          20          21          22          23          24
    1  -0.0000082   0.0003483   0.0007219   0.0002144   0.0013225  -0.0000425
    2   0.0001524  -0.0001590   0.0010359   0.0004251  -0.0000090   0.0003250
    3  -0.0002285  -0.0003797   0.0000952   0.0000198   0.0001840   0.0002335
           25          26          27          28          29          30
    1  -0.0002109   0.0001073  -0.0001925   0.0002169  -0.0013740   0.0001525
    2  -0.0001646   0.0002268  -0.0000180  -0.0004283  -0.0004888   0.0003226
    3  -0.0000563   0.0001912   0.0001923  -0.0015419   0.0026558  -0.0004721
           31          32
    1  -0.0000574   0.0010225
    2  -0.0000425   0.0013657
    3   0.0000066  -0.0018777
 Max gradient component =       5.737E-03
 RMS gradient           =       1.769E-03
 Gradient time:  CPU 15.90 s  wall 0.67 s
 Geometry Optimization Parameters
   NAtoms,    NIC,     NZ,  NCons,   NDum,   NFix, NCnnct, MaxDiis
       32     251       0       2       0       0       0       0

 Cartesian Hessian Update
 Hessian Updated using BFGS Update


** CONSTRAINED OPTIMIZATION IN DELOCALIZED INTERNAL COORDINATES **
   Searching for a Minimum

   Optimization Cycle:   3

                       Coordinates (Angstroms)
     ATOM                X               Y               Z
      1  C        -0.0472236194    0.8822992738    0.6832321106
      2  C         0.7150469984   -0.4949881887    0.6543143650
      3  C        -1.3993349901    0.8466278594   -0.1019645009
      4  C        -0.1600790169   -1.6856248370    0.1200942470
      5  O        -2.1898254882    1.9556096029    0.3133387223
      6  O        -1.7499838148    0.0110469429   -0.9659075348
      7  O        -1.2840167219   -1.7972731198    0.9962879321
      8  O         0.0750413742   -2.4763273320   -0.8187892309
      9  C        -2.1695308536   -2.8787146072    0.5286825063
     10  C        -3.4625350812    1.9665028166   -0.4344012780
     11  C         0.9900201371    1.8213241339   -0.0606645809
     12  C         2.2273539892    2.0600815840    0.8843472834
     13  C         2.9711086299    0.6792418286    0.7618612806
     14  C         2.0041405463   -0.1264964640   -0.2079803946
     15  O         1.5270187043    0.9433071746   -1.1241433342
     16  H        -0.2460234034    1.2220320983    1.7154937243
     17  H         1.0348379943   -0.7691648857    1.6768762399
     18  H        -1.6620261421   -3.8653903628    0.5503769219
     19  H        -3.2957341262    2.0444495012   -1.5285644561
     20  H         2.8500469796    2.8801797013    0.4919911120
     21  H         1.9329953057    2.3082325251    1.9169260474
     22  H         3.9554857827    0.8071057011    0.2832359249
     23  H         3.1209313778    0.1767690925    1.7310696280
     24  H        -3.0286128544   -2.8918970641    1.2252000220
     25  H        -2.5316746336   -2.6900512707   -0.5029516482
     26  H        -4.0161983509    2.8561808661   -0.0809435757
     27  H        -4.0618903901    1.0545126796   -0.2338321903
     28  H         0.5474758683    2.7321974995   -0.5097028857
     29  C         2.6861355187   -1.2642460810   -1.0077188668
     30  H         3.6250031636   -0.8934476991   -1.4482601557
     31  H         2.9121421530   -2.1151692246   -0.3478724020
     32  H         2.0234617034   -1.6068754306   -1.8165939469
   Point Group: c1    Number of degrees of freedom:    90


   Energy is   -794.588868929

              Constraints and their Current Values
                                        Value     Constraint
   Dihedral:        2   1   3   5      162.298      162.300
   Dihedral:        1   2   4   7      -59.994      -60.000
 Hessian Updated using BFGS Update

   Using Lagrange Multiplier Algorithm


 83 Hessian modes will be used to form the next step
  Hessian Eigenvalues:
    -0.977757   -0.975341    0.043659    0.045000    0.045002    0.045042
     0.045367    0.045627    0.048638    0.059402    0.059563    0.066873
     0.068378    0.070976    0.073030    0.073558    0.076284    0.079394
     0.080628    0.082078    0.082861    0.083655    0.084425    0.085427
     0.090120    0.091215    0.092202    0.096700    0.107932    0.113257
     0.113766    0.113797    0.116927    0.116973    0.123647    0.129018
     0.140045    0.143925    0.159218    0.160597    0.161661    0.172164
     0.181027    0.242776    0.244362    0.249217    0.249988    0.250112
     0.251431    0.262167    0.267810    0.272757    0.289359    0.295479
     0.306536    0.308573    0.314799    0.328441    0.337119    0.339963
     0.340722    0.341184    0.341752    0.341801    0.342532    0.342967
     0.343210    0.343324    0.343526    0.343593    0.343702    0.344434
     0.344599    0.345139    0.374919    0.392078    0.411990    0.476129
     0.512557    0.952594    0.978531    1.022752    1.035362

 Minimum Search - Taking P-RFO Step
 Searching for Lamda that Maximizes Along the Constraint modes Only
 Value Taken    Lamda =   0.00001575
 Searching for Lamda that Minimizes Along All other modes
 Value Taken    Lamda =  -0.00116186
 Step Taken.  Stepsize is  0.116340

                             Maximum     Tolerance    Cnvgd?
         Gradient            0.006652       0.000300      NO
         Displacement        0.035073       0.001200      NO
         Energy change     -0.006234       0.000001      NO


 New Cartesian Coordinates Obtained by Inverse Iteration

 Displacement from previous Coordinates is:  0.211632
 Adding empirical dispersion correction 
 ----------------------------------------------------------------
 Doing -D3(op) with
 s6 =   1.00000
 s8 =   0.78311
 a1 =   0.30000
 a2 =   4.25000
 n  =  10.00000
 -D3 energy without 3body term =     -0.0354951126 hartrees
 ----------------------------------------------------------------
             Standard Nuclear Orientation (Angstroms)
    I     Atom           X                Y                Z
 ----------------------------------------------------------------
    1      C      -0.0446036158     0.8799432260     0.6980625849
    2      C       0.7289433395    -0.5010374165     0.6615086638
    3      C      -1.3940232451     0.8447818707    -0.0987565480
    4      C      -0.1472513764    -1.6977825753     0.1264999357
    5      O      -2.2021396285     1.9495878973     0.3187828829
    6      O      -1.7346823256     0.0236309712    -0.9806696112
    7      O      -1.2745710012    -1.8192876368     1.0131580755
    8      O       0.0696246964    -2.4748148001    -0.8273553364
    9      C      -2.1826945605    -2.8868880854     0.5357332348
   10      C      -3.4727544250     1.9731758736    -0.4476374783
   11      C       0.9909354474     1.8207874509    -0.0559578413
   12      C       2.2345991162     2.0653538816     0.8841825838
   13      C       2.9838747399     0.6892607598     0.7559494857
   14      C       2.0144542974    -0.1203675005    -0.2108326511
   15      O       1.5157660483     0.9430235623    -1.1258819735
   16      H      -0.2425735125     1.2213765927     1.7293323292
   17      H       1.0461952916    -0.7766252026     1.6838744280
   18      H      -1.6849019608    -3.8785292854     0.5282083245
   19      H      -3.2907938458     2.0673621463    -1.5378324476
   20      H       2.8490519763     2.8930568204     0.4952711297
   21      H       1.9363969864     2.3022655348     1.9181893144
   22      H       3.9669022657     0.8170747589     0.2748847821
   23      H       3.1299869365     0.1836048148     1.7234890223
   24      H      -3.0337688135    -2.9067102391     1.2415737326
   25      H      -2.5521966152    -2.6715826446    -0.4879914168
   26      H      -4.0333370037     2.8553677636    -0.0871710563
   27      H      -4.0709011179     1.0554817933    -0.2716922251
   28      H       0.5380889892     2.7322568435    -0.4936140387
   29      C       2.6912362602    -1.2638309536    -1.0121506018
   30      H       3.6234506682    -0.8989583270    -1.4697456015
   31      H       2.9271963616    -2.1050295575    -0.3431280978
   32      H       2.0080463669    -1.6239140236    -1.7952464988
 ----------------------------------------------------------------
 Molecular Point Group                 C1    NOp =  1
 Largest Abelian Subgroup              C1    NOp =  1
 Nuclear Repulsion Energy =  1225.6293480967 hartrees
 There are       61 alpha and       61 beta electrons
 Applying Cartesian multipole field
    Component          Value
    ---------          -----
     (2,0,0)        1.00000E-11
     (0,2,0)        2.00000E-11
     (0,0,2)       -3.00000E-11
 Nucleus-field energy     =     0.0000000341 hartrees
 Requested basis set is STO-3G
 There are 48 shells and 96 basis functions
 A cutoff of  1.0D-12 yielded   1022 shell pairs
 There are      4508 function pairs
 Smallest overlap matrix eigenvalue = 2.14E-01
 Guess MOs from SCF MO coefficient file
 Reading MOs from coefficient file
 Reading MOs from coefficient file
 A restricted hybrid HF-DFT SCF calculation will be
 performed using Pulay DIIS extrapolation
 Exchange:     0.2000 Hartree-Fock + 0.0800 Slater + 0.7200 B88
 Correlation:  0.1900 VWN1RPA + 0.8100 LYP
 Using SG-1 standard quadrature grid
 Dispersion:   Grimme D3
 SCF converges when DIIS error is below 1.0E-08
 Geometry optimization detected.  Setting ReadMinima to 0
 Setting SaveMinima to 0
 -------------------------------------------------------
 OpenMP Integral computing Module                
 Release: version 1.0, May 2013, Q-Chem Inc. Pittsburgh 
 -------------------------------------------------------
 -------------------------------------------------------
 OpenMP BLAS3 based DFT computing Module                
 Release: version 1.0, May 2013, Q-Chem Inc. Pittsburgh 
 -------------------------------------------------------
 ---------------------------------------
  Cycle       Energy         DIIS Error
 ---------------------------------------
    1    -794.5713154785      1.53E-03
    2    -794.5892448352      3.93E-04
    3    -794.5885533588      8.33E-04
    4    -794.5894535267      7.05E-05
    5    -794.5894600010      2.37E-05
    6    -794.5894606160      1.08E-05
    7    -794.5894607252      5.94E-06
    8    -794.5894607727      9.67E-07
    9    -794.5894607741      1.56E-07
   10    -794.5894607741      7.82E-08
   11    -794.5894607741      1.36E-08
   12    -794.5894607741      4.80E-09 Convergence criterion met
 ---------------------------------------
 SCF time:  CPU 51.54 s  wall 2.17 s
 SCF   energy in the final basis set = -794.5894607741
 Total energy in the final basis set = -794.5894607741
 
 --------------------------------------------------------------
 
                    Orbital Energies (a.u.)
 --------------------------------------------------------------
 
 Alpha MOs
 -- Occupied --
-18.936 -18.919 -18.879 -18.876 -18.866 -10.099 -10.091 -10.065
-10.059 -10.058 -10.055 -10.036 -10.030 -10.018 -10.013 -10.005
 -1.012  -0.998  -0.964  -0.935  -0.925  -0.760  -0.725  -0.717
 -0.671  -0.653  -0.635  -0.591  -0.540  -0.525  -0.490  -0.469
 -0.451  -0.438  -0.429  -0.413  -0.413  -0.403  -0.401  -0.380
 -0.376  -0.366  -0.357  -0.349  -0.339  -0.335  -0.311  -0.306
 -0.306  -0.294  -0.289  -0.276  -0.267  -0.253  -0.245  -0.227
 -0.179  -0.165  -0.154  -0.142  -0.139
 -- Virtual --
  0.097   0.116   0.234   0.250   0.269   0.286   0.307   0.326
  0.341   0.343   0.356   0.373   0.384   0.391   0.403   0.418
  0.422   0.423   0.427   0.430   0.432   0.435   0.440   0.441
  0.449   0.463   0.474   0.478   0.491   0.502   0.512   0.546
  0.553   0.647   0.657
 --------------------------------------------------------------
 
          Ground-State Mulliken Net Atomic Charges

     Atom                 Charge (a.u.)
  ----------------------------------------
      1 C                    -0.077542
      2 C                    -0.081195
      3 C                     0.213946
      4 C                     0.215147
      5 O                    -0.169858
      6 O                    -0.211099
      7 O                    -0.178121
      8 O                    -0.212650
      9 C                    -0.128782
     10 C                    -0.128440
     11 C                     0.024665
     12 C                    -0.144637
     13 C                    -0.144643
     14 C                     0.104863
     15 O                    -0.194127
     16 H                     0.087010
     17 H                     0.082171
     18 H                     0.085716
     19 H                     0.090230
     20 H                     0.077201
     21 H                     0.073113
     22 H                     0.074949
     23 H                     0.070692
     24 H                     0.086120
     25 H                     0.092456
     26 H                     0.090779
     27 H                     0.089274
     28 H                     0.082009
     29 C                    -0.227934
     30 H                     0.078580
     31 H                     0.079501
     32 H                     0.100607
  ----------------------------------------
  Sum of atomic charges =     0.000000

 -----------------------------------------------------------------
                    Cartesian Multipole Moments
 -----------------------------------------------------------------
    Charge (ESU x 10^10)
                -0.0000
    Dipole Moment (Debye)
         X      -0.5647      Y       1.0396      Z       2.0386
       Tot       2.3570
    Quadrupole Moments (Debye-Ang)
        XX     -77.6455     XY      -0.3167     YY     -84.3742
        XZ       2.7744     YZ      -2.9771     ZZ     -89.6721
    Octopole Moments (Debye-Ang^2)
       XXX     -42.8980    XXY      -0.0036    XYY     -19.8061
       YYY      -8.1949    XXZ      -4.7358    XYZ       6.2558
       YYZ       1.0351    XZZ      -5.9006    YZZ      -0.5325
       ZZZ      -6.7992
    Hexadecapole Moments (Debye-Ang^3)
      XXXX   -2087.8685   XXXY     -68.4305   XXYY    -571.1819
      XYYY     -15.1532   YYYY   -1498.4596   XXXZ     -18.9818
      XXYZ     -21.6659   XYYZ       3.0836   YYYZ     -54.7096
      XXZZ    -439.5082   XYZZ     -19.6740   YYZZ    -326.1885
      XZZZ      -3.6507   YZZZ     -13.1062   ZZZZ    -376.8711
 -----------------------------------------------------------------
 Calculating analytic gradient of the SCF energy
 Gradient of SCF Energy
            1           2           3           4           5           6
    1   0.0006118   0.0007047   0.0011952   0.0012145   0.0001951  -0.0008375
    2   0.0003763   0.0008516   0.0018736  -0.0008644  -0.0006980  -0.0010883
    3   0.0009542  -0.0014943   0.0006513   0.0029258   0.0001859  -0.0007564
            7           8           9          10          11          12
    1  -0.0009562   0.0005469  -0.0013791  -0.0014165  -0.0006129  -0.0005179
    2   0.0011428  -0.0013182  -0.0005799   0.0010374   0.0010439  -0.0000600
    3  -0.0013575  -0.0005264   0.0006837  -0.0000489   0.0019108   0.0007893
           13          14          15          16          17          18
    1   0.0000478  -0.0006053   0.0007543   0.0000805   0.0005931  -0.0000074
    2   0.0000177  -0.0008366   0.0002824  -0.0005769  -0.0000908  -0.0001279
    3   0.0003386   0.0005529  -0.0020228   0.0002599  -0.0004356  -0.0000830
           19          20          21          22          23          24
    1  -0.0001342   0.0002560   0.0002279   0.0000472   0.0004864  -0.0003287
    2  -0.0002025  -0.0001214   0.0005113   0.0002187   0.0000155  -0.0001899
    3  -0.0001128  -0.0003457   0.0000581  -0.0002098  -0.0000233  -0.0000327
           25          26          27          28          29          30
    1   0.0001624  -0.0003732  -0.0000982  -0.0002994   0.0001983   0.0004259
    2  -0.0001652   0.0001069  -0.0001111  -0.0003048  -0.0008063   0.0000384
    3  -0.0001280  -0.0001886  -0.0001898  -0.0007691  -0.0003133   0.0004767
           31          32
    1  -0.0006068   0.0004251
    2  -0.0002142   0.0008399
    3  -0.0001886  -0.0005607
 Max gradient component =       2.926E-03
 RMS gradient           =       7.530E-04
 Gradient time:  CPU 17.12 s  wall 0.72 s
 Geometry Optimization Parameters
   NAtoms,    NIC,     NZ,  NCons,   NDum,   NFix, NCnnct, MaxDiis
       32     251       0       2       0       0       0       0

 Cartesian Hessian Update
 Hessian Updated using BFGS Update


** CONSTRAINED OPTIMIZATION IN DELOCALIZED INTERNAL COORDINATES **
   Searching for a Minimum

   Optimization Cycle:   4

                       Coordinates (Angstroms)
     ATOM                X               Y               Z
      1  C        -0.0446036158    0.8799432260    0.6980625849
      2  C         0.7289433395   -0.5010374165    0.6615086638
      3  C        -1.3940232451    0.8447818707   -0.0987565480
      4  C        -0.1472513764   -1.6977825753    0.1264999357
      5  O        -2.2021396285    1.9495878973    0.3187828829
      6  O        -1.7346823256    0.0236309712   -0.9806696112
      7  O        -1.2745710012   -1.8192876368    1.0131580755
      8  O         0.0696246964   -2.4748148001   -0.8273553364
      9  C        -2.1826945605   -2.8868880854    0.5357332348
     10  C        -3.4727544250    1.9731758736   -0.4476374783
     11  C         0.9909354474    1.8207874509   -0.0559578413
     12  C         2.2345991162    2.0653538816    0.8841825838
     13  C         2.9838747399    0.6892607598    0.7559494857
     14  C         2.0144542974   -0.1203675005   -0.2108326511
     15  O         1.5157660483    0.9430235623   -1.1258819735
     16  H        -0.2425735125    1.2213765927    1.7293323292
     17  H         1.0461952916   -0.7766252026    1.6838744280
     18  H        -1.6849019608   -3.8785292854    0.5282083245
     19  H        -3.2907938458    2.0673621463   -1.5378324476
     20  H         2.8490519763    2.8930568204    0.4952711297
     21  H         1.9363969864    2.3022655348    1.9181893144
     22  H         3.9669022657    0.8170747589    0.2748847821
     23  H         3.1299869365    0.1836048148    1.7234890223
     24  H        -3.0337688135   -2.9067102391    1.2415737326
     25  H        -2.5521966152   -2.6715826446   -0.4879914168
     26  H        -4.0333370037    2.8553677636   -0.0871710563
     27  H        -4.0709011179    1.0554817933   -0.2716922251
     28  H         0.5380889892    2.7322568435   -0.4936140387
     29  C         2.6912362602   -1.2638309536   -1.0121506018
     30  H         3.6234506682   -0.8989583270   -1.4697456015
     31  H         2.9271963616   -2.1050295575   -0.3431280978
     32  H         2.0080463669   -1.6239140236   -1.7952464988
   Point Group: c1    Number of degrees of freedom:    90


   Energy is   -794.589460774

              Constraints and their Current Values
                                        Value     Constraint
   Dihedral:        2   1   3   5      162.300      162.300
   Dihedral:        1   2   4   7      -60.000      -60.000
 Hessian Updated using BFGS Update

   Using Lagrange Multiplier Algorithm


 84 Hessian modes will be used to form the next step
  Hessian Eigenvalues:
    -0.975454    0.030848    0.045000    0.045002    0.045006    0.045248
     0.045462    0.045724    0.048755    0.055543    0.059491    0.066670
     0.068384    0.071299    0.072909    0.073532    0.075705    0.079601
     0.080610    0.082032    0.082771    0.083699    0.084488    0.085472
     0.090296    0.091268    0.092230    0.096738    0.107643    0.113631
     0.113795    0.114383    0.116927    0.116973    0.124015    0.128660
     0.140582    0.143961    0.159536    0.160161    0.160843    0.161752
     0.171930    0.181183    0.242192    0.244451    0.249302    0.249992
     0.250003    0.250189    0.251336    0.262286    0.268270    0.288204
     0.292640    0.295640    0.307103    0.308816    0.323984    0.328924
     0.337592    0.340222    0.340749    0.341509    0.341755    0.342429
     0.342950    0.343166    0.343319    0.343508    0.343524    0.343698
     0.344372    0.344509    0.344976    0.347259    0.380588    0.411990
     0.452350    0.512465    0.525914    0.952962    0.976588    1.035390

 Minimum Search - Taking P-RFO Step
 Searching for Lamda that Maximizes Along the Constraint modes Only
 Value Taken    Lamda =   0.00000199
 Searching for Lamda that Minimizes Along All other modes
 Value Taken    Lamda =  -0.00028649
 Step Taken.  Stepsize is  0.078819

                             Maximum     Tolerance    Cnvgd?
         Gradient            0.004010       0.000300      NO
         Displacement        0.027130       0.001200      NO
         Energy change     -0.000592       0.000001      NO


 New Cartesian Coordinates Obtained by Inverse Iteration

 Displacement from previous Coordinates is:  0.222257
 Adding empirical dispersion correction 
 ----------------------------------------------------------------
 Doing -D3(op) with
 s6 =   1.00000
 s8 =   0.78311
 a1 =   0.30000
 a2 =   4.25000
 n  =  10.00000
 -D3 energy without 3body term =     -0.0356070427 hartrees
 ----------------------------------------------------------------
             Standard Nuclear Orientation (Angstroms)
    I     Atom           X                Y                Z
 ----------------------------------------------------------------
    1      C      -0.0423854655     0.8768638029     0.7085607702
    2      C       0.7353922431    -0.5014750904     0.6684032464
    3      C      -1.3891719881     0.8331812916    -0.0899186013
    4      C      -0.1449207496    -1.6923343755     0.1298276353
    5      O      -2.2038887529     1.9336774543     0.3290912780
    6      O      -1.7211401275     0.0153857573    -0.9774145584
    7      O      -1.2706375269    -1.8112145193     1.0207553542
    8      O       0.0570858274    -2.4576873179    -0.8357558180
    9      C      -2.1894812716    -2.8607093809     0.5246508635
   10      C      -3.4675084002     1.9484054781    -0.4482391378
   11      C       0.9890355021     1.8182096209    -0.0542433269
   12      C       2.2371309858     2.0684410143     0.8792905158
   13      C       2.9891201546     0.6947451890     0.7499751132
   14      C       2.0167137092    -0.1186176747    -0.2099738560
   15      O       1.5055460323     0.9383616543    -1.1243752151
   16      H      -0.2398138020     1.2216933531     1.7386203211
   17      H       1.0513068524    -0.7775096600     1.6913570432
   18      H      -1.7010961678    -3.8565522154     0.4956213769
   19      H      -3.2765148635     2.0488750275    -1.5363079113
   20      H       2.8456700624     2.9002315814     0.4906184014
   21      H       1.9388979735     2.3006335742     1.9142191687
   22      H       3.9711486573     0.8207625156     0.2670909725
   23      H       3.1342528799     0.1903004233     1.7181355065
   24      H      -3.0368388241    -2.8854617562     1.2343206983
   25      H      -2.5613412121    -2.6203450342    -0.4926720719
   26      H      -4.0363608350     2.8248622173    -0.0876955541
   27      H      -4.0591850542     1.0252117209    -0.2797501183
   28      H       0.5315287769     2.7299006994    -0.4861014673
   29      C       2.6882138622    -1.2671663003    -1.0081981004
   30      H       3.6118188194    -0.9059768941    -1.4847898494
   31      H       2.9383309505    -2.0973393389    -0.3302562073
   32      H       1.9926484921    -1.6453185035    -1.7718093859
 ----------------------------------------------------------------
 Molecular Point Group                 C1    NOp =  1
 Largest Abelian Subgroup              C1    NOp =  1
 Nuclear Repulsion Energy =  1227.5870825433 hartrees
 There are       61 alpha and       61 beta electrons
 Applying Cartesian multipole field
    Component          Value
    ---------          -----
     (2,0,0)        1.00000E-11
     (0,2,0)        2.00000E-11
     (0,0,2)       -3.00000E-11
 Nucleus-field energy     =     0.0000000338 hartrees
 Requested basis set is STO-3G
 There are 48 shells and 96 basis functions
 A cutoff of  1.0D-12 yielded   1022 shell pairs
 There are      4508 function pairs
 Smallest overlap matrix eigenvalue = 2.13E-01
 Guess MOs from SCF MO coefficient file
 Reading MOs from coefficient file
 Reading MOs from coefficient file
 A restricted hybrid HF-DFT SCF calculation will be
 performed using Pulay DIIS extrapolation
 Exchange:     0.2000 Hartree-Fock + 0.0800 Slater + 0.7200 B88
 Correlation:  0.1900 VWN1RPA + 0.8100 LYP
 Using SG-1 standard quadrature grid
 Dispersion:   Grimme D3
 SCF converges when DIIS error is below 1.0E-08
 Geometry optimization detected.  Setting ReadMinima to 0
 Setting SaveMinima to 0
 -------------------------------------------------------
 OpenMP Integral computing Module                
 Release: version 1.0, May 2013, Q-Chem Inc. Pittsburgh 
 -------------------------------------------------------
 -------------------------------------------------------
 OpenMP BLAS3 based DFT computing Module                
 Release: version 1.0, May 2013, Q-Chem Inc. Pittsburgh 
 -------------------------------------------------------
 ---------------------------------------
  Cycle       Energy         DIIS Error
 ---------------------------------------
    1    -794.5897529701      9.38E-04
    2    -794.5896259219      8.23E-05
    3    -794.5896102905      1.51E-04
    4    -794.5896392021      3.02E-05
    5    -794.5896402758      1.06E-05
    6    -794.5896404243      3.38E-06
    7    -794.5896404376      1.47E-06
    8    -794.5896404402      4.73E-07
    9    -794.5896404405      5.19E-08
   10    -794.5896404405      2.42E-08
   11    -794.5896404405      6.45E-09 Convergence criterion met
 ---------------------------------------
 SCF time:  CPU 48.38 s  wall 2.04 s
 SCF   energy in the final basis set = -794.5896404405
 Total energy in the final basis set = -794.5896404405
 
 --------------------------------------------------------------
 
                    Orbital Energies (a.u.)
 --------------------------------------------------------------
 
 Alpha MOs
 -- Occupied --
-18.936 -18.919 -18.879 -18.876 -18.866 -10.099 -10.091 -10.065
-10.059 -10.058 -10.055 -10.036 -10.030 -10.018 -10.013 -10.005
 -1.013  -0.998  -0.965  -0.936  -0.925  -0.760  -0.725  -0.717
 -0.671  -0.653  -0.635  -0.591  -0.540  -0.525  -0.490  -0.469
 -0.452  -0.439  -0.429  -0.413  -0.413  -0.403  -0.401  -0.381
 -0.376  -0.366  -0.356  -0.349  -0.339  -0.335  -0.311  -0.307
 -0.306  -0.294  -0.289  -0.276  -0.267  -0.254  -0.245  -0.228
 -0.179  -0.165  -0.154  -0.142  -0.139
 -- Virtual --
  0.096   0.116   0.235   0.251   0.270   0.287   0.307   0.326
  0.340   0.344   0.355   0.373   0.384   0.391   0.403   0.419
  0.422   0.424   0.427   0.430   0.432   0.434   0.439   0.441
  0.449   0.463   0.473   0.478   0.492   0.502   0.512   0.545
  0.553   0.647   0.658
 --------------------------------------------------------------
 
          Ground-State Mulliken Net Atomic Charges

     Atom                 Charge (a.u.)
  ----------------------------------------
      1 C                    -0.077737
      2 C                    -0.081322
      3 C                     0.214292
      4 C                     0.215420
      5 O                    -0.169501
      6 O                    -0.211104
      7 O                    -0.178165
      8 O                    -0.212383
      9 C                    -0.129157
     10 C                    -0.128672
     11 C                     0.024967
     12 C                    -0.144724
     13 C                    -0.144784
     14 C                     0.105123
     15 O                    -0.194184
     16 H                     0.087001
     17 H                     0.081946
     18 H                     0.085811
     19 H                     0.090239
     20 H                     0.077334
     21 H                     0.073166
     22 H                     0.075188
     23 H                     0.070891
     24 H                     0.085804
     25 H                     0.092505
     26 H                     0.090624
     27 H                     0.089271
     28 H                     0.081861
     29 C                    -0.228613
     30 H                     0.078663
     31 H                     0.079006
     32 H                     0.101236
  ----------------------------------------
  Sum of atomic charges =     0.000000

 -----------------------------------------------------------------
                    Cartesian Multipole Moments
 -----------------------------------------------------------------
    Charge (ESU x 10^10)
                -0.0000
    Dipole Moment (Debye)
         X      -0.5454      Y       1.0436      Z       2.0307
       Tot       2.3474
    Quadrupole Moments (Debye-Ang)
        XX     -77.6561     XY      -0.3015     YY     -84.4331
        XZ       2.8001     YZ      -2.9319     ZZ     -89.7439
    Octopole Moments (Debye-Ang^2)
       XXX     -42.7750    XXY      -0.1717    XYY     -19.2336
       YYY      -8.0280    XXZ      -5.0048    XYZ       6.1749
       YYZ       0.7321    XZZ      -5.8574    YZZ      -0.3723
       ZZZ      -7.0470
    Hexadecapole Moments (Debye-Ang^3)
      XXXX   -2087.5155   XXXY     -69.6203   XXYY    -569.8499
      XYYY     -18.0013   YYYY   -1483.0482   XXXZ     -19.1455
      XXYZ     -22.1031   XYYZ       2.9496   YYYZ     -55.2254
      XXZZ    -439.1553   XYZZ     -20.5771   YYZZ    -323.8772
      XZZZ      -3.7236   YZZZ     -14.8603   ZZZZ    -376.9695
 -----------------------------------------------------------------
 Calculating analytic gradient of the SCF energy
 Gradient of SCF Energy
            1           2           3           4           5           6
    1  -0.0007443   0.0004136   0.0007423   0.0020595   0.0000316  -0.0003686
    2   0.0004401   0.0007522  -0.0002518  -0.0024114   0.0007513  -0.0008466
    3   0.0021521  -0.0024804  -0.0006292   0.0019995   0.0011595  -0.0002403
            7           8           9          10          11          12
    1  -0.0018054  -0.0001194  -0.0007054  -0.0009782   0.0001954   0.0002841
    2   0.0021694  -0.0002350  -0.0005787   0.0001541   0.0003741   0.0004466
    3  -0.0002053  -0.0001279  -0.0001892  -0.0005539   0.0006167   0.0005365
           13          14          15          16          17          18
    1   0.0005144   0.0001615  -0.0001847   0.0000605   0.0001762   0.0000364
    2   0.0003488   0.0001031  -0.0001779  -0.0003710   0.0001431  -0.0001504
    3   0.0002166   0.0001689  -0.0011480   0.0001691   0.0000232   0.0000091
           19          20          21          22          23          24
    1   0.0000179   0.0000911  -0.0000289  -0.0001210   0.0000402   0.0000491
    2  -0.0001276  -0.0001268   0.0001727   0.0000693  -0.0000022   0.0001066
    3  -0.0001285  -0.0001480  -0.0000406  -0.0001235  -0.0000537  -0.0000138
           25          26          27          28          29          30
    1   0.0000909   0.0001306  -0.0000221  -0.0002697   0.0003395   0.0004019
    2  -0.0000580  -0.0000085  -0.0001466  -0.0001905  -0.0001635  -0.0002246
    3  -0.0001563   0.0000310  -0.0000506  -0.0001465  -0.0008074   0.0007391
           31          32
    1  -0.0008094   0.0003203
    2  -0.0003757   0.0004153
    3  -0.0002114  -0.0003669
 Max gradient component =       2.480E-03
 RMS gradient           =       6.985E-04
 Gradient time:  CPU 16.14 s  wall 0.68 s
 Geometry Optimization Parameters
   NAtoms,    NIC,     NZ,  NCons,   NDum,   NFix, NCnnct, MaxDiis
       32     251       0       2       0       0       0       0

 Cartesian Hessian Update
 Hessian Updated using BFGS Update


** CONSTRAINED OPTIMIZATION IN DELOCALIZED INTERNAL COORDINATES **
   Searching for a Minimum

   Optimization Cycle:   5

                       Coordinates (Angstroms)
     ATOM                X               Y               Z
[...]
 TransDip   0.135  0.217  0.162   -0.141  0.407  0.416   -0.128  0.039  0.039

 Mode:                76                     77                     78
 Frequency:      3048.69                3049.73                3055.12
 Force Cnst:      5.6372                 5.6422                 5.8724
 Red. Mass:       1.0294                 1.0296                 1.0678
 IR Active:          YES                    YES                    YES
 IR Intens:       33.797                 37.277                 13.328
 Raman Active:       YES                    YES                    YES
               X      Y      Z        X      Y      Z        X      Y      Z
 C          0.000 -0.000 -0.001   -0.000  0.000  0.001   -0.001  0.002  0.007
 C          0.001 -0.001  0.005   -0.000  0.000 -0.000   -0.013  0.012 -0.047
 C         -0.000  0.000  0.000    0.001 -0.002 -0.001    0.000 -0.000  0.000
 C          0.002 -0.000 -0.002    0.000 -0.000 -0.000    0.000 -0.000 -0.002
 O          0.000 -0.000  0.000   -0.002  0.001 -0.001   -0.000  0.000 -0.000
 O         -0.000 -0.000 -0.000    0.000  0.001  0.001   -0.000 -0.000 -0.000
 O         -0.002 -0.001  0.000   -0.000 -0.000  0.000   -0.000 -0.000  0.000
 O         -0.000  0.001  0.001   -0.000  0.000  0.000   -0.000  0.000  0.000
 C         -0.023 -0.032 -0.019   -0.003 -0.004 -0.002   -0.001 -0.002 -0.001
 C          0.004  0.000  0.003   -0.034 -0.002 -0.028    0.000  0.000  0.000
 C          0.000 -0.000  0.000   -0.000  0.000 -0.000   -0.001  0.002 -0.001
 C          0.000  0.000  0.000   -0.000 -0.000 -0.000   -0.008 -0.025 -0.019
 C         -0.002  0.001 -0.001   -0.000  0.000 -0.000    0.032 -0.017  0.023
 C          0.000  0.000 -0.000    0.000  0.000  0.000   -0.000 -0.000 -0.000
 O         -0.000 -0.000  0.000   -0.000  0.000  0.000    0.000  0.000  0.000
 H         -0.001  0.002  0.007    0.002 -0.003 -0.009    0.016 -0.028 -0.085
 H         -0.014  0.013 -0.053    0.001 -0.001  0.006    0.154 -0.133  0.564
 H         -0.250  0.579 -0.015   -0.030  0.071 -0.002   -0.014  0.032 -0.001
 H          0.016  0.016 -0.072   -0.135 -0.134  0.593    0.002  0.002 -0.008
 H         -0.002 -0.002  0.001    0.004  0.005 -0.002    0.194  0.229 -0.114
 H          0.001 -0.001 -0.004   -0.002  0.001  0.005   -0.105  0.070  0.338
 H          0.016  0.002 -0.008    0.005  0.001 -0.003   -0.333 -0.037  0.169
 H          0.002 -0.011  0.020    0.000 -0.002  0.004   -0.037  0.234 -0.435
 H          0.322 -0.047 -0.312    0.039 -0.006 -0.038    0.018 -0.003 -0.018
 H          0.217 -0.134  0.558    0.027 -0.016  0.069    0.012 -0.007  0.031
 H         -0.022  0.043  0.025    0.180 -0.347 -0.203   -0.002  0.004  0.002
 H         -0.046 -0.062  0.005    0.376  0.508 -0.040   -0.005 -0.006  0.000
 H         -0.001  0.002 -0.001    0.001 -0.002  0.001    0.009 -0.023  0.010
 C          0.001 -0.001 -0.000    0.001 -0.001 -0.000    0.003 -0.002 -0.001
 H         -0.017 -0.008  0.009   -0.009 -0.004  0.005   -0.035 -0.016  0.019
 H         -0.005  0.016 -0.013   -0.003  0.009 -0.007   -0.010  0.032 -0.024
 H          0.007  0.003  0.007    0.004  0.002  0.004    0.012  0.007  0.015
 TransDip  -0.118 -0.144  0.014   -0.180  0.045 -0.061    0.067 -0.089 -0.036

 Mode:                79                     80                     81
 Frequency:      3059.92                3067.32                3093.81
 Force Cnst:      5.9110                 5.8879                 6.2450
 Red. Mass:       1.0715                 1.0622                 1.1074
 IR Active:          YES                    YES                    YES
 IR Intens:       22.111                 37.881                  0.593
 Raman Active:       YES                    YES                    YES
               X      Y      Z        X      Y      Z        X      Y      Z
 C         -0.001  0.001  0.004   -0.001  0.002  0.007   -0.002  0.003  0.009
 C         -0.015  0.014 -0.056   -0.006  0.005 -0.023    0.002 -0.002  0.007
 C          0.000 -0.000  0.000    0.000  0.000  0.000   -0.000  0.000  0.000
 C          0.000 -0.000 -0.002    0.000  0.000 -0.001   -0.000  0.000  0.000
 O         -0.000  0.000 -0.000   -0.000  0.000 -0.000    0.000 -0.000 -0.000
 O         -0.000 -0.000 -0.000   -0.000 -0.000 -0.000    0.000 -0.000 -0.000
 O         -0.000 -0.000  0.000   -0.000 -0.000  0.000   -0.000 -0.000 -0.000
 O         -0.000  0.000  0.000   -0.000  0.000  0.000    0.000 -0.000 -0.000
 C         -0.001 -0.001 -0.001   -0.000 -0.000  0.000    0.000  0.000 -0.000
 C          0.000 -0.000  0.000    0.000  0.000  0.000    0.000 -0.000 -0.000
 C          0.001 -0.003  0.001   -0.001  0.004 -0.002    0.003 -0.006  0.002
 C          0.011  0.036  0.024   -0.008 -0.032 -0.023    0.038  0.024 -0.052
 C         -0.015  0.002 -0.001   -0.044  0.018 -0.020   -0.032 -0.021  0.049
 C         -0.001 -0.000 -0.000   -0.000  0.001  0.000   -0.001 -0.000  0.000
 O          0.000 -0.000  0.000    0.000 -0.000  0.000   -0.000  0.000  0.000
 H          0.009 -0.013 -0.044    0.014 -0.026 -0.079    0.018 -0.036 -0.105
 H          0.183 -0.159  0.672    0.073 -0.064  0.270   -0.021  0.020 -0.083
 H         -0.009  0.021 -0.001   -0.000  0.001 -0.000    0.001 -0.001  0.000
 H          0.001  0.001 -0.002    0.002  0.002 -0.008   -0.000 -0.000  0.000
 H         -0.269 -0.319  0.159    0.227  0.270 -0.136   -0.325 -0.394  0.176
 H          0.140 -0.093 -0.444   -0.129  0.088  0.410   -0.131  0.107  0.449
 H          0.169  0.016 -0.081    0.470  0.049 -0.234    0.424  0.038 -0.195
 H          0.007 -0.050  0.097    0.038 -0.251  0.465   -0.046  0.209 -0.386
 H          0.011 -0.002 -0.011    0.000 -0.000 -0.000   -0.001  0.000  0.001
 H          0.008 -0.004  0.020   -0.000  0.000 -0.001   -0.000 -0.000 -0.000
 H         -0.001  0.001  0.001   -0.002  0.004  0.002   -0.000  0.000  0.000
 H         -0.001 -0.002  0.000   -0.004 -0.006  0.000   -0.000 -0.000  0.000
 H         -0.011  0.031 -0.012    0.020 -0.053  0.023   -0.029  0.069 -0.033
 C         -0.004  0.003  0.001   -0.004  0.003  0.001    0.005  0.011 -0.009
 H          0.049  0.022 -0.027    0.049  0.022 -0.026   -0.090 -0.040  0.045
 H          0.014 -0.042  0.032    0.014 -0.044  0.033    0.035 -0.096  0.074
 H         -0.020 -0.010 -0.021   -0.020 -0.012 -0.023   -0.004 -0.000 -0.010
 TransDip  -0.024  0.148  0.012   -0.157 -0.007 -0.118    0.023  0.009  0.000

 Mode:                82                     83                     84
 Frequency:      3102.55                3110.18                3116.45
 Force Cnst:      6.2497                 6.2476                 6.2721
 Red. Mass:       1.1020                 1.0962                 1.0961
 IR Active:          YES                    YES                    YES
 IR Intens:       12.553                 17.529                 37.607
 Raman Active:       YES                    YES                    YES
               X      Y      Z        X      Y      Z        X      Y      Z
 C         -0.001  0.002  0.007    0.010 -0.019 -0.055    0.010 -0.018 -0.054
 C          0.001 -0.000  0.000   -0.001  0.001 -0.002   -0.003  0.003 -0.009
 C         -0.000  0.000  0.000    0.001 -0.001 -0.001    0.001 -0.001 -0.001
 C          0.000 -0.000 -0.000    0.000  0.000 -0.000    0.000  0.000 -0.000
 O         -0.000 -0.000 -0.000   -0.000  0.000  0.000   -0.000  0.000  0.000
 O          0.000 -0.000 -0.000    0.000  0.000  0.000    0.000  0.000  0.000
 O         -0.000 -0.000  0.000   -0.000 -0.000  0.000   -0.000 -0.000  0.000
 O         -0.000  0.000  0.000   -0.000 -0.000 -0.000   -0.000  0.000  0.000
 C         -0.000  0.000  0.000   -0.000  0.000  0.000    0.000 -0.000  0.000
 C          0.000  0.000 -0.000   -0.000  0.000  0.000   -0.001 -0.001  0.001
 C          0.001 -0.002  0.001   -0.004  0.008 -0.004    0.001 -0.002 -0.001
 C          0.013  0.008 -0.018   -0.019 -0.013  0.024    0.026  0.014 -0.039
 C          0.003  0.002 -0.004   -0.029 -0.018  0.043    0.023  0.015 -0.036
 C         -0.001 -0.001  0.001   -0.001 -0.001  0.001    0.000  0.001 -0.001
 O         -0.000  0.000 -0.000   -0.000  0.000 -0.000   -0.000  0.000  0.001
 H          0.016 -0.029 -0.087   -0.119  0.217  0.649   -0.120  0.214  0.643
 H         -0.002  0.002 -0.010    0.010 -0.008  0.028    0.030 -0.030  0.112
 H          0.001 -0.003 -0.000    0.001 -0.002  0.000   -0.002  0.004  0.000
 H         -0.000 -0.000  0.001   -0.000 -0.001  0.003    0.002  0.001 -0.005
 H         -0.110 -0.134  0.060    0.168  0.207 -0.092   -0.212 -0.259  0.115
 H         -0.044  0.036  0.150    0.058 -0.048 -0.193   -0.105  0.086  0.357
 H         -0.034 -0.002  0.018    0.394  0.034 -0.182   -0.312 -0.026  0.144
 H          0.004 -0.016  0.026   -0.040  0.181 -0.333    0.034 -0.155  0.284
 H          0.001 -0.000 -0.001    0.001 -0.000 -0.001    0.001 -0.000 -0.001
 H          0.000 -0.000  0.000   -0.000  0.000 -0.000   -0.001  0.001 -0.003
 H         -0.000  0.000  0.000    0.001 -0.003 -0.002    0.001 -0.003 -0.002
 H         -0.001 -0.002  0.000    0.002  0.003 -0.000    0.008  0.011 -0.001
 H         -0.013  0.030 -0.015    0.043 -0.101  0.049   -0.003  0.010 -0.005
 C         -0.028 -0.063  0.056   -0.005 -0.012  0.012    0.003  0.006 -0.006
 H          0.541  0.235 -0.275    0.112  0.048 -0.058   -0.053 -0.022  0.028
 H         -0.195  0.536 -0.412   -0.038  0.103 -0.079    0.018 -0.048  0.037
 H         -0.008 -0.016  0.012   -0.008 -0.007 -0.006    0.004  0.003  0.003
 TransDip  -0.047 -0.073  0.073   -0.090 -0.082  0.056    0.102  0.023 -0.166

 Mode:                85                     86                     87
 Frequency:      3122.38                3123.64                3128.35
 Force Cnst:      6.3590                 6.3654                 6.2856
 Red. Mass:       1.1070                 1.1073                 1.0901
 IR Active:          YES                    YES                    YES
 IR Intens:       19.128                 15.314                 23.660
 Raman Active:       YES                    YES                    YES
               X      Y      Z        X      Y      Z        X      Y      Z
 C          0.000 -0.000 -0.001   -0.000  0.000  0.000    0.001 -0.002 -0.007
 C         -0.000  0.000 -0.000    0.000 -0.000  0.000   -0.000  0.001 -0.002
 C         -0.000 -0.000  0.000    0.000  0.000  0.000    0.000 -0.001  0.000
 C          0.000  0.000 -0.000   -0.000 -0.000 -0.000    0.000  0.000  0.000
 O         -0.000 -0.000  0.000   -0.000 -0.000  0.000   -0.000  0.000 -0.000
 O         -0.000 -0.000  0.000   -0.000 -0.000 -0.000   -0.000  0.000 -0.000
 O         -0.000 -0.000  0.000   -0.000  0.000 -0.000   -0.000 -0.000  0.000
 O         -0.000 -0.000  0.000   -0.000  0.000 -0.000   -0.000 -0.000 -0.000
 C         -0.003  0.004 -0.003    0.045 -0.066  0.051    0.000 -0.000  0.000
 C          0.046  0.059 -0.058    0.003  0.004 -0.004   -0.001 -0.001  0.001
 C          0.001 -0.001  0.001   -0.000  0.000 -0.000    0.030 -0.072  0.035
 C          0.000  0.000 -0.000   -0.000 -0.000  0.000   -0.008 -0.008  0.005
 C          0.000  0.000 -0.000   -0.000 -0.000  0.000   -0.003  0.000  0.001
 C         -0.000  0.000 -0.000    0.000 -0.000  0.000   -0.001  0.001 -0.000
 O          0.000 -0.000  0.000   -0.000  0.000 -0.000    0.000 -0.000 -0.000
 H         -0.002  0.004  0.011    0.000 -0.001 -0.003   -0.015  0.024  0.077
 H          0.001 -0.001  0.003   -0.000  0.001 -0.001    0.005 -0.004  0.017
 H          0.018 -0.041  0.000   -0.281  0.648 -0.002   -0.000  0.000  0.000
 H         -0.147 -0.133  0.674   -0.009 -0.008  0.042    0.002  0.002 -0.011
 H         -0.001 -0.001  0.001    0.000  0.001 -0.000    0.085  0.100 -0.043
 H         -0.001  0.001  0.004    0.000 -0.000 -0.001    0.007 -0.006 -0.018
 H         -0.003 -0.000  0.001    0.002  0.000 -0.001    0.032  0.003 -0.015
 H          0.001 -0.002  0.004   -0.000  0.001 -0.003   -0.000  0.001  0.000
 H          0.003  0.000 -0.004   -0.021 -0.008  0.038    0.001 -0.000 -0.001
 H          0.014 -0.008  0.038   -0.236  0.139 -0.642   -0.001  0.001 -0.003
 H          0.016 -0.001 -0.019    0.000  0.001 -0.000    0.001 -0.002 -0.001
 H         -0.412 -0.567  0.027   -0.025 -0.034  0.002    0.008  0.011 -0.001
 H         -0.006  0.015 -0.007    0.001 -0.001  0.001   -0.343  0.825 -0.409
 C          0.000  0.000 -0.000   -0.000 -0.000  0.000   -0.000 -0.000  0.000
 H         -0.002 -0.001  0.001    0.002  0.001 -0.001    0.003  0.001 -0.002
 H          0.001 -0.002  0.001   -0.001  0.002 -0.002   -0.000  0.001 -0.001
 H          0.000  0.000 -0.000   -0.000 -0.000  0.000   -0.002 -0.001 -0.002
 TransDip   0.064  0.090 -0.086    0.055 -0.095  0.060    0.033 -0.148  0.037

 Mode:                88                     89                     90
 Frequency:      3152.60                3157.09                3164.36
 Force Cnst:      6.4788                 6.4970                 6.4729
 Red. Mass:       1.1064                 1.1063                 1.0972
 IR Active:          YES                    YES                    YES
 IR Intens:       14.471                 14.497                  2.822
 Raman Active:       YES                    YES                    YES
               X      Y      Z        X      Y      Z        X      Y      Z
 C         -0.000  0.000  0.000    0.000  0.000 -0.000    0.000 -0.000 -0.000
 C          0.000 -0.000 -0.000   -0.000  0.000 -0.000    0.000 -0.000 -0.000
 C         -0.000  0.000  0.000   -0.001 -0.000 -0.001   -0.000 -0.000 -0.000
 C          0.000  0.001  0.001   -0.000  0.000 -0.000    0.000 -0.000 -0.000
 O          0.000 -0.000 -0.000   -0.000  0.000  0.000   -0.000  0.000 -0.000
 O          0.000 -0.000 -0.000    0.000  0.000  0.000    0.000  0.000  0.000
 O          0.000 -0.000 -0.000    0.000 -0.000  0.000   -0.000  0.000  0.000
 O         -0.000 -0.000 -0.000    0.000 -0.000  0.000   -0.001 -0.000  0.000
 C         -0.052  0.023  0.076    0.000  0.000 -0.000    0.000 -0.000 -0.000
 C         -0.000 -0.000 -0.000    0.022 -0.072 -0.057    0.000 -0.000 -0.000
 C         -0.000  0.000 -0.000    0.000 -0.000  0.000    0.000 -0.000  0.000
 C          0.000  0.000  0.000   -0.000 -0.000 -0.000   -0.000  0.000 -0.000
 C          0.000 -0.000  0.000   -0.000  0.000 -0.000   -0.001  0.000  0.001
 C          0.000  0.000  0.000   -0.000  0.000  0.000   -0.001  0.000 -0.001
 O          0.000 -0.000 -0.000    0.000  0.000  0.000    0.000 -0.000  0.000
 H          0.000 -0.001 -0.002    0.000  0.000  0.002   -0.000  0.000  0.001
 H         -0.000 -0.000 -0.001    0.000 -0.000  0.000    0.000 -0.001  0.003
 H          0.109 -0.264  0.023    0.000 -0.001 -0.000   -0.001  0.001 -0.000
 H          0.000  0.000 -0.001   -0.069 -0.082  0.296   -0.000 -0.000  0.000
 H         -0.000 -0.000  0.000    0.000  0.000 -0.000    0.001  0.000 -0.000
 H          0.000 -0.000 -0.001   -0.000  0.000  0.001    0.000  0.000  0.001
 H         -0.000 -0.000  0.000    0.000  0.000 -0.000    0.011  0.002 -0.004
 H          0.000  0.000 -0.000    0.000 -0.000  0.000   -0.001  0.002 -0.005
 H          0.634 -0.092 -0.618   -0.002  0.000  0.002   -0.003  0.000  0.003
 H         -0.131  0.083 -0.305    0.001 -0.000  0.002    0.001 -0.000  0.001
 H         -0.001  0.002  0.001   -0.367  0.706  0.414   -0.001  0.001  0.001
 H          0.002  0.003 -0.000    0.182  0.230 -0.031    0.000  0.000 -0.000
 H          0.001 -0.002  0.001   -0.000  0.001 -0.000   -0.001  0.001 -0.001
 C         -0.000 -0.000 -0.000    0.000  0.000  0.000   -0.067 -0.021 -0.057
 H         -0.000 -0.000  0.000   -0.000 -0.000  0.000    0.180  0.085 -0.106
 H          0.001 -0.002  0.001   -0.000  0.000 -0.000    0.043 -0.165  0.115
 H          0.003  0.002  0.003   -0.001 -0.001 -0.001    0.590  0.334  0.663
 TransDip  -0.083  0.016  0.088    0.047 -0.096 -0.059   -0.034 -0.007 -0.041

 STANDARD THERMODYNAMIC QUANTITIES AT   298.15 K  AND     1.00 ATM

   This Molecule has  0 Imaginary Frequencies
   Zero point vibrational energy:      166.293 kcal/mol

   Atom    1 Element C  Has Mass   12.00000
   Atom    2 Element C  Has Mass   12.00000
   Atom    3 Element C  Has Mass   12.00000
   Atom    4 Element C  Has Mass   12.00000
   Atom    5 Element O  Has Mass   15.99491
   Atom    6 Element O  Has Mass   15.99491
   Atom    7 Element O  Has Mass   15.99491
   Atom    8 Element O  Has Mass   15.99491
   Atom    9 Element C  Has Mass   12.00000
   Atom   10 Element C  Has Mass   12.00000
   Atom   11 Element C  Has Mass   12.00000
   Atom   12 Element C  Has Mass   12.00000
   Atom   13 Element C  Has Mass   12.00000
   Atom   14 Element C  Has Mass   12.00000
   Atom   15 Element O  Has Mass   15.99491
   Atom   16 Element H  Has Mass    1.00783
   Atom   17 Element H  Has Mass    1.00783
   Atom   18 Element H  Has Mass    1.00783
   Atom   19 Element H  Has Mass    1.00783
   Atom   20 Element H  Has Mass    1.00783
   Atom   21 Element H  Has Mass    1.00783
   Atom   22 Element H  Has Mass    1.00783
   Atom   23 Element H  Has Mass    1.00783
   Atom   24 Element H  Has Mass    1.00783
   Atom   25 Element H  Has Mass    1.00783
   Atom   26 Element H  Has Mass    1.00783
   Atom   27 Element H  Has Mass    1.00783
   Atom   28 Element H  Has Mass    1.00783
   Atom   29 Element C  Has Mass   12.00000
   Atom   30 Element H  Has Mass    1.00783
   Atom   31 Element H  Has Mass    1.00783
   Atom   32 Element H  Has Mass    1.00783
   Molecular Mass:   228.099830 amu
   Principal axes and moments of inertia in amu*Bohr^2:
                             1           2           3
    Eigenvalues --     2653.56400  3418.93712  5127.39946
          X               0.99998    -0.00312     0.00562
          Y               0.00310     0.99999     0.00238
          Z              -0.00563    -0.00237     0.99998
   Rotational Symmetry Number is   1
   The Molecule is an Asymmetric Top
   Translational Enthalpy:        0.889 kcal/mol
   Rotational Enthalpy:           0.889 kcal/mol
   Vibrational Enthalpy:        174.466 kcal/mol
   gas constant (RT):             0.592 kcal/mol
   Translational Entropy:        42.176  cal/mol.K
   Rotational Entropy:           32.209  cal/mol.K
   Vibrational Entropy:          53.852  cal/mol.K

   Total Enthalpy:              176.836 kcal/mol
   Total Entropy:               128.236  cal/mol.K
Archival summary:
1\1\nid00665\FREQ\ProcedureUnspecified\BasisUnspecified\51116\junteng\WedOct421:08:012017WedOct421:08:012017\0\\#,FREQ,ProcedureUnspecified,BasisUnspecified,\\0,1\O\C,1,1.42423\H,2,1.08823,1,110.145\C,1,1.44676,2,98.2308,3,179.886,0\C,4,1.51229,1,110.465,2,-177.349,0\H,5,1.0867,4,111.271,1,-57.9808,0\H,5,1.09266,4,108.994,1,63.0437,0\H,5,1.093,4,110.378,1,-177.914,0\C,2,1.54393,1,103.659,3,-124.361,0\H,9,1.09098,2,110.248,1,85.3848,0\H,9,1.09182,2,112.478,1,-153.917,0\C,9,1.55421,2,100.77,1,-32.4807,0\H,12,1.09104,9,111.204,2,114.918,0\H,12,1.09178,9,113.533,2,-123.016,0\C,2,1.56018,1,102.268,3,121.966,0\H,15,1.08897,2,111.421,1,157.485,0\C,15,1.51329,2,108.67,1,-83.4999,0\O,17,1.20493,15,126.692,2,88.0695,0\O,17,1.35325,15,109.947,2,-88.9756,0\C,19,1.44026,17,115.805,15,176.616,0\H,20,1.08777,19,105.469,17,179.834,0\H,20,1.09103,19,110.501,17,-60.4959,0\H,20,1.09105,19,110.374,17,60.3363,0\C,15,1.56449,2,100.318,1,38.1919,0\H,24,1.09361,15,108,2,110.341,0\C,24,1.52151,15,114.411,2,-134.312,0\O,26,1.20196,24,128.082,15,126.153,0\O,26,1.35638,24,108.548,15,-57.97,0\C,28,1.43897,26,115.703,24,175.124,0\H,29,1.08806,28,105.478,26,-178.817,0\H,29,1.09101,28,109.782,26,-59.4809,0\H,29,1.09102,28,110.696,26,61.5409,0\\\@

 Total job time:  10618.20s(wall), 59468.84s(cpu) 
 Wed Oct  4 21:08:01 2017

        *************************************************************
        *                                                           *
        *  Thank you very much for using Q-Chem.  Have a nice day.  *
        *                                                           *
        *************************************************************


