nid04365 10.128.17
Q-Chem Developer Version! Running on 10.128.17.*
                  Welcome to Q-Chem
     A Quantum Leap Into The Future Of Chemistry


 Q-Chem 5.0, Q-Chem, Inc., Pleasanton, CA (2017)

 Yihan Shao,  Zhengting Gan,  E. Epifanovsky,  A. T. B. Gilbert,  M. Wormit,  
 J. Kussmann,  A. W. Lange,  A. Behn,  Jia Deng,  Xintian Feng,  D. Ghosh,  
 M. Goldey,  P. R. Horn,  L. D. Jacobson,  I. Kaliman,  T. Kus,  A. Landau,  
 Jie Liu,  E. I. Proynov,  R. M. Richard,  R. P. Steele,  E. J. Sundstrom,  
 H. L. Woodcock III,  P. M. Zimmerman,  D. Zuev,  B. Albrecht,  E. Alguire,  
 S. A. Baeppler,  Z. Benda,  Y. A. Bernard,  E. J. Berquist,  K. B. Bravaya,  
 D. Casanova,  Chun-Min Chang,  Yunqing Chen,  A. Chien,  K. D. Closser,  
 M. P. Coons,  S. Dasgupta,  M. Diedenhofen,  Hainam Do,  R. G. Edgar,  
 Po-Tung Fang,  S. Fatehi,  Qingguo Feng,  Qinghui Ge,  A. Ghysels,  
 J. Gomes,  J. Gonthier,  A. Gunina,  M. W. D. Hanson-Heine,  
 P. H. P. Harbach,  A. W. Hauser,  J. E. Herr,  E. G. Hohenstein,  
 Z. C. Holden,  Kerwin Hui,  T.-C. Jagau,  Hyunjun Ji,  B. Kaduk,  
 K. Khistyaev,  Jaehoon Kim,  P. Klunzinger,  K. Koh,  D. Kosenkov,  
 T. Kowalczyk,  C. M. Krauter,  A. Kunitsa,  Ka Un Lao,  A. Laurent,  
 K. V. Lawler,  Joonho Lee,  D. Lefrancois,  S. Lehtola,  D. S. Levine,  
 Yi-Pei Li,  You-Sheng Lin,  Fenglai Liu,  E. Livshits,  A. Luenser,  
 P. Manohar,  E. Mansoor,  S. F. Manzer,  Shan-Ping Mao,  Yuezhi Mao,  
 N. Mardirossian,  A. V. Marenich,  L. A. Martinez-Martinez,  S. A. Maurer,  
 N. J. Mayhall,  S. C. McKenzie,  J.-M. Mewes,  A. F. Morrison,  K. Nanda,  
 T. S. Nguyen-Beck,  R. Olivares-Amaya,  J. A. Parkhill,  T. M. Perrine,  
 F. Plasser,  S. Prager,  A. Prociuk,  D. R. Rehn,  F. Rob,  M. Schneider,  
 N. Sergueev,  S. M. Sharada,  S. Sharma,  D. W. Small,  T. Stauch,  
 T. Stein,  Yu-Chuan Su,  A. J. W. Thom,  T. Tsuchimochi,  L. Vogt,  
 O. Vydrov,  M. A. Watson,  J. Wenzel,  M. de Wergifosse,  T. A. Wesolowski,  
 A. White,  J. Witte,  A. Yamada,  Jun Yang,  K. Yao,  S. Yeganeh,  
 S. R. Yost,  Zhi-Qiang You,  A. Zech,  Igor Ying Zhang,  Xing Zhang,  
 Yan Zhao,  Ying Zhu,  B. R. Brooks,  G. K. L. Chan,  C. J. Cramer,  
 M. S. Gordon,  W. J. Hehre,  A. Klamt,  M. W. Schmidt,  C. D. Sherrill,  
 D. G. Truhlar,  A. Aspuru-Guzik,  R. Baer,  A. T. Bell,  N. A. Besley,  
 Jeng-Da Chai,  A. Dreuw,  B. D. Dunietz,  T. R. Furlani,  Chao-Ping Hsu,  
 Yousung Jung,  Jing Kong,  D. S. Lambrecht,  WanZhen Liang,  C. Ochsenfeld,  
 V. A. Rassolov,  L. V. Slipchenko,  J. E. Subotnik,  T. Van Voorhis,  
 J. M. Herbert,  A. I. Krylov,  P. M. W. Gill,  M. Head-Gordon

 Contributors to earlier versions of Q-Chem not listed above: 
 R. D. Adamson,  B. Austin,  J. Baker,  G. J. O. Beran,  K. Brandhorst,  
 S. T. Brown,  E. F. C. Byrd,  A. K. Chakraborty,  C.-L. Cheng,  
 Siu Hung Chien,  D. M. Chipman,  D. L. Crittenden,  H. Dachsel,  
 R. A. DiStasio Jr.,  R. J. Doerksen,  A. D. Dutoi,  L. Fusti-Molnar,  
 W. A. Goddard III,  A. Golubeva-Zadorozhnaya,  S. R. Gwaltney,  G. Hawkins,  
 A. Heyden,  S. Hirata,  G. Kedziora,  F. J. Keil,  C. Kelley,  Jihan Kim,  
 R. A. King,  R. Z. Khaliullin,  P. P. Korambath,  W. Kurlancheek,  
 A. M. Lee,  M. S. Lee,  S. V. Levchenko,  Ching Yeh Lin,  D. Liotard,  
 R. C. Lochan,  I. Lotan,  P. E. Maslen,  N. Nair,  D. P. O'Neill,  
 D. Neuhauser,  E. Neuscamman,  C. M. Oana,  R. Olson,  B. Peters,  
 R. Peverati,  P. A. Pieniazek,  Y. M. Rhee,  J. Ritchie,  M. A. Rohrdanz,  
 E. Rosta,  N. J. Russ,  H. F. Schaefer III,  N. E. Schultz,  N. Shenvi,  
 A. C. Simmonett,  A. Sodt,  D. Stuck,  K. S. Thanthiriwatte,  V. Vanovschi,  
 Tao Wang,  A. Warshel,  C. F. Williams,  Q. Wu,  X. Xu,  W. Zhang

 Please cite Q-Chem as follows:
 Y. Shao et al., Mol. Phys. 113, 184-215 (2015)
 DOI: 10.1080/00268976.2014.952696

 Q-Chem 5.0.0 for Intel X86 EM64T Linux

 Parts of Q-Chem use Armadillo 5.200.1 (Boston Tea Smuggler).
 http://arma.sourceforge.net/

 Q-Chem begins on Wed Oct  4 18:02:42 2017  

Host: nid04365
0

     Scratch files written to /global/cscratch1/sd/junteng/scratch/16/opt_10n01oo.save//

Checking the input file for inconsistencies... 	...done.

--------------------------------------------------------------
User input:
--------------------------------------------------------------
$molecule
0  1
C    0.355  -2.424   0.293
C   -0.264  -2.685   1.524
C    0.749  -1.045  -0.086
C   -0.385  -1.681   2.598
O    1.805  -1.090  -0.938
O    0.175  -0.038   0.291
O    0.833  -1.128   2.820
O   -1.397  -1.517   3.259
C    0.836  -0.152   3.862
C    2.258   0.195  -1.365
C    0.489  -3.469  -0.639
C    0.011  -4.748  -0.345
C   -0.620  -4.996   0.872
C   -0.760  -3.969   1.804
H    0.142   0.662   3.629
H    1.480   0.699  -1.947
H   -1.003  -5.990   1.096
H    0.581  -0.616   4.820
H    1.845   0.263   3.935
H    3.132   0.050  -2.006
H    2.557   0.804  -0.506
H    0.116  -5.548  -1.075
H   -1.248  -4.169   2.757
H    0.945  -3.290  -1.611
$end


$opt
CONSTRAINT
tors    2    1    3    5    155.0
tors    1    2    4    7    -50.0
ENDCONSTRAINT
$end

$rem
JOBTYPE                   OPT
METHOD                    B3LYP
DFT_D                     D3_OP
BASIS                     STO-3G
GEOM_OPT_MAX_CYCLES       500
SYMMETRY                  False
THRESH                    12
SCF_CONVERGENCE           8
MAX_SUB_FILE_NUM          128
MEM_STATIC                400
MEM_TOTAL                 4000
$end

--------------------------------------------------------------
 Adding empirical dispersion correction 
 ----------------------------------------------------------------
 Doing -D3(op) with
 s6 =   1.00000
 s8 =   0.78311
 a1 =   0.30000
 a2 =   4.25000
 n  =  10.00000
 -D3 energy without 3body term =     -0.0235264244 hartrees
 ----------------------------------------------------------------
             Standard Nuclear Orientation (Angstroms)
    I     Atom           X                Y                Z
 ----------------------------------------------------------------
    1      C       0.0048685472    -0.8715632622    -0.0674007052
    2      C      -1.0919198482     0.0016590604    -0.1017662538
    3      C       1.3789608532    -0.3820370773    -0.3371273238
    4      C      -0.9567219841     1.4673235547    -0.2001640574
    5      O       2.2778658221    -1.1635542316     0.3142295632
    6      O       1.6428666882     0.5580963624    -1.0666181229
    7      O      -0.0793961891     1.8906553810     0.7430785488
    8      O      -1.6538448556     2.1636006328    -0.9193155941
    9      C       0.1112497942     3.3055484230     0.7520668044
   10      C       3.6362803702    -0.7724170820     0.1130215962
   11      C      -0.2239907215    -2.2487533468     0.1045757645
   12      C      -1.5242777058    -2.7411486134     0.2370961776
   13      C      -2.6105318253    -1.8705883996     0.1829583704
   14      C      -2.3975725218    -0.5036921638     0.0120899544
   15      H       0.4798571535     3.6504889134    -0.2193577541
   16      H       3.9131930930    -0.8856432273    -0.9398426800
   17      H      -3.6244084650    -2.2560700247     0.2743863539
   18      H      -0.8213882332     3.8144524380     1.0152929683
   19      H       0.8618027747     3.5417630810     1.5113479505
   20      H       4.2706392529    -1.4319291517     0.7116990033
   21      H       3.7952127220     0.2573747806     0.4483307479
   22      H      -1.6901414468    -3.8088449794     0.3653096299
   23      H      -3.2494252071     0.1741533752    -0.0229161569
   24      H       0.6066568830    -2.9521169215     0.1126528134
 ----------------------------------------------------------------
 Molecular Point Group                 C1    NOp =  1
 Largest Abelian Subgroup              C1    NOp =  1
 Nuclear Repulsion Energy =   889.7605996999 hartrees
 There are       51 alpha and       51 beta electrons
 Requested basis set is STO-3G
 There are 38 shells and 80 basis functions

 Total QAlloc Memory Limit   4000 MB
 Mega-Array Size       392 MB
 MEM_STATIC part       400 MB
 A cutoff of  1.0D-12 yielded    631 shell pairs
 There are      3151 function pairs
 
 -------------------------------------------------------
 OpenMP Integral Computing Module                       
 Release: version 1.0, May 2013, Q-Chem Inc. Pittsburgh 
 -------------------------------------------------------
 Integral Job Info:
 Integral job number is                      11
 Integral operator is                         1
 short-range coefficients                     0
 long-range coefficients              100000000
 Omega coefficients                           0
 if combine SR and LR in K                    0
 Integral screening is                        0
 Integral computing path is                   2
 max size of driver memory is            800000
 size of driver memory is                 45569
 size of scratch memory is               945100
 max col of scratch BK array                289
 max len of scratch array in speh3           22
 max len of scratch index in speh4            8
 max int batch size is                      520
 min int batch size is                       52
 fixed nKL is                                52
 max L of basis functions is                  1
 order of int derivative is                   0
 number of shells is                         38
 number of basis is                          80
 number of cartesian basis is                80
 number of contracted shell pairs           631
 number of primitive shell pairs           3502
 maxK2 (contraction) of shell pair            9
 max number of K2 of shell pair               1
 max number of CS2 of shell pair             91
 max number of PS2 of shell pair            468
 mem total for path MDJ                   25386
 -------------------------------------------------------
 Smallest overlap matrix eigenvalue = 1.73E-01

 Scale SEOQF with 1.000000e-01/1.000000e-01/1.000000e+00

 Standard Electronic Orientation quadrupole field applied
 Nucleus-field energy     =     0.0000000031 hartrees
 Guess from superposition of atomic densities
 Warning:  Energy on first SCF cycle will be non-variational
 A restricted hybrid HF-DFT SCF calculation will be
 performed using Pulay DIIS extrapolation
 Exchange:     0.2000 Hartree-Fock + 0.0800 Slater + 0.7200 B88
 Correlation:  0.1900 VWN1RPA + 0.8100 LYP
 Using SG-1 standard quadrature grid
 Dispersion:   Grimme D3
 SCF converges when DIIS error is below 1.0E-08
 -------------------------------------------------------
 OpenMP Integral computing Module                
 Release: version 1.0, May 2013, Q-Chem Inc. Pittsburgh 
 -------------------------------------------------------
 -------------------------------------------------------
 OpenMP BLAS3 based DFT computing Module                
 Release: version 1.0, May 2013, Q-Chem Inc. Pittsburgh 
 -------------------------------------------------------
 ---------------------------------------
  Cycle       Energy         DIIS Error
 ---------------------------------------
    1    -679.1330742783      1.26E-01
    2    -678.8427567625      1.47E-02
    3    -677.8244880427      3.88E-02
    4    -679.0444374619      5.12E-03
    5    -679.0653698754      1.92E-03
    6    -679.0685893525      4.89E-04
    7    -679.0688086880      1.64E-04
    8    -679.0688325245      6.17E-05
    9    -679.0688352391      2.86E-05
   10    -679.0688361181      3.14E-06
   11    -679.0688361278      1.13E-06
   12    -679.0688361290      2.41E-07
   13    -679.0688361291      1.07E-07
   14    -679.0688361291      3.14E-08
   15    -679.0688361291      6.94E-09 Convergence criterion met
 ---------------------------------------
 SCF time:  CPU 49.44 s  wall 2.11 s
 SCF   energy in the final basis set = -679.0688361291
 Total energy in the final basis set = -679.0688361291
 
 --------------------------------------------------------------
 
                    Orbital Energies (a.u.)
 --------------------------------------------------------------
 
 Alpha MOs
 -- Occupied --
-18.949 -18.946 -18.869 -18.865 -10.118 -10.113 -10.077 -10.071
-10.028 -10.026 -10.017 -10.017 -10.016 -10.015  -1.049  -1.042
 -0.958  -0.954  -0.822  -0.734  -0.725  -0.683  -0.674  -0.597
 -0.581  -0.532  -0.505  -0.479  -0.455  -0.439  -0.432  -0.426
 -0.417  -0.402  -0.389  -0.379  -0.356  -0.354  -0.340  -0.329
 -0.320  -0.310  -0.300  -0.254  -0.248  -0.203  -0.202  -0.186
 -0.179  -0.155  -0.149
 -- Virtual --
  0.048   0.070   0.134   0.148   0.250   0.283   0.307   0.353
  0.381   0.390   0.398   0.417   0.436   0.441   0.443   0.453
  0.454   0.455   0.457   0.470   0.480   0.565   0.570   0.592
  0.607   0.692   0.707   0.784   0.805
 --------------------------------------------------------------
 
          Ground-State Mulliken Net Atomic Charges

     Atom                 Charge (a.u.)
  ----------------------------------------
      1 C                    -0.016460
      2 C                    -0.013193
      3 C                     0.236815
      4 C                     0.239331
      5 O                    -0.184254
      6 O                    -0.228518
      7 O                    -0.182816
      8 O                    -0.225997
      9 C                    -0.125951
     10 C                    -0.125656
     11 C                    -0.071459
     12 C                    -0.077394
     13 C                    -0.076184
     14 C                    -0.071171
     15 H                     0.097497
     16 H                     0.093769
     17 H                     0.085582
     18 H                     0.092573
     19 H                     0.095187
     20 H                     0.096656
     21 H                     0.094826
     22 H                     0.084752
     23 H                     0.090621
     24 H                     0.091440
  ----------------------------------------
  Sum of atomic charges =    -0.000000

 -----------------------------------------------------------------
                    Cartesian Multipole Moments
 -----------------------------------------------------------------
    Charge (ESU x 10^10)
                -0.0000
    Dipole Moment (Debye)
         X       1.2481      Y      -0.8457      Z       1.4685
       Tot       2.1046
    Quadrupole Moments (Debye-Ang)
        XX     -65.3011     XY       2.1209     YY     -67.3113
        XZ      -1.3115     YZ       4.6689     ZZ     -77.0076
    Octopole Moments (Debye-Ang^2)
       XXX      32.6486    XXY     -10.3188    XYY       7.7006
       YYY      22.5743    XXZ       7.0980    XYZ      -0.6038
       YYZ      10.9090    XZZ       8.2910    YZZ       6.2845
       ZZZ      -3.3968
    Hexadecapole Moments (Debye-Ang^3)
      XXXX   -1419.9863   XXXY     -32.5552   XXYY    -506.4431
      XYYY      11.8858   YYYY   -1399.1191   XXXZ       1.8789
      XXYZ      10.6306   XYYZ     -13.3076   YYYZ      18.6340
      XXZZ    -302.3897   XYZZ      -9.9894   YYZZ    -286.2151
      XZZZ       2.4642   YZZZ      -0.6197   ZZZZ    -173.6954
 -----------------------------------------------------------------
 Calculating analytic gradient of the SCF energy
 Gradient of SCF Energy
            1           2           3           4           5           6
    1   0.0189467   0.0093829   0.0257808   0.0081785  -0.0074890  -0.0217180
    2   0.0223592   0.0288567   0.0007986   0.0175880   0.0516881  -0.0565203
    3  -0.0065385  -0.0046518  -0.0033992   0.0079344  -0.0409363   0.0412028
            7           8           9          10          11          12
    1  -0.0442633   0.0324227  -0.0030645  -0.0197333   0.0015887  -0.0032796
    2   0.0162203  -0.0474403  -0.0223198  -0.0061442   0.0052309   0.0074133
    3  -0.0457045   0.0399112   0.0002509   0.0040683   0.0000763  -0.0004771
           13          14          15          16          17          18
    1   0.0091845   0.0031285  -0.0006871  -0.0066692   0.0075847   0.0097128
    2   0.0006146   0.0015510  -0.0080860  -0.0039866   0.0028168  -0.0100635
    3  -0.0000973   0.0000466   0.0104685   0.0118894  -0.0007431   0.0009652
           19          20          21          22          23          24
    1  -0.0071448  -0.0035130  -0.0048494   0.0009058   0.0042493  -0.0086547
    2   0.0005358   0.0078508  -0.0127042   0.0083381  -0.0067165   0.0021193
    3  -0.0078565  -0.0064892   0.0011465  -0.0011694   0.0005009  -0.0003980
 Max gradient component =       5.652E-02
 RMS gradient           =       1.839E-02
 Gradient time:  CPU 10.21 s  wall 0.44 s
 Geometry Optimization Parameters
   NAtoms,    NIC,     NZ,  NCons,   NDum,   NFix, NCnnct, MaxDiis
       24     152       0       2       0       0       0       0


** CONSTRAINED OPTIMIZATION IN DELOCALIZED INTERNAL COORDINATES **
   Searching for a Minimum

   Optimization Cycle:   1

                       Coordinates (Angstroms)
     ATOM                X               Y               Z
      1  C         0.0048685472   -0.8715632622   -0.0674007052
      2  C        -1.0919198482    0.0016590604   -0.1017662538
      3  C         1.3789608532   -0.3820370773   -0.3371273238
      4  C        -0.9567219841    1.4673235547   -0.2001640574
      5  O         2.2778658221   -1.1635542316    0.3142295632
      6  O         1.6428666882    0.5580963624   -1.0666181229
      7  O        -0.0793961891    1.8906553810    0.7430785488
      8  O        -1.6538448556    2.1636006328   -0.9193155941
      9  C         0.1112497942    3.3055484230    0.7520668044
     10  C         3.6362803702   -0.7724170820    0.1130215962
     11  C        -0.2239907215   -2.2487533468    0.1045757645
     12  C        -1.5242777058   -2.7411486134    0.2370961776
     13  C        -2.6105318253   -1.8705883996    0.1829583704
     14  C        -2.3975725218   -0.5036921638    0.0120899544
     15  H         0.4798571535    3.6504889134   -0.2193577541
     16  H         3.9131930930   -0.8856432273   -0.9398426800
     17  H        -3.6244084650   -2.2560700247    0.2743863539
     18  H        -0.8213882332    3.8144524380    1.0152929683
     19  H         0.8618027747    3.5417630810    1.5113479505
     20  H         4.2706392529   -1.4319291517    0.7116990033
     21  H         3.7952127220    0.2573747806    0.4483307479
     22  H        -1.6901414468   -3.8088449794    0.3653096299
     23  H        -3.2494252071    0.1741533752   -0.0229161569
     24  H         0.6066568830   -2.9521169215    0.1126528134
   Point Group: c1    Number of degrees of freedom:    66


   Energy is   -679.068836129

              Constraints and their Current Values
                                        Value     Constraint
   Dihedral:        2   1   3   5      152.312      155.000
   Dihedral:        1   2   4   7      -50.252      -50.000

 Attempting to Generate Delocalized Internal Coordinates

   Using Lagrange Multiplier Algorithm


 68 Hessian modes will be used to form the next step
  Hessian Eigenvalues:
    -0.977753   -0.977753    0.045000    0.045000    0.045000    0.045000
     0.045000    0.045000    0.045001    0.045001    0.045002    0.045005
     0.045013    0.045027    0.045031    0.045181    0.045530    0.113864
     0.113915    0.116869    0.116916    0.159954    0.159981    0.159993
     0.160000    0.160000    0.160000    0.160000    0.160000    0.160000
     0.160000    0.219995    0.224790    0.244310    0.248434    0.248766
     0.249810    0.249910    0.250000    0.250000    0.250000    0.250000
     0.341816    0.342672    0.342857    0.342897    0.342929    0.344092
     0.344169    0.349054    0.349829    0.349904    0.350351    0.351283
     0.412994    0.413052    0.413205    0.417941    0.448645    0.456536
     0.460014    0.465920    0.534366    0.537734    0.954630    0.958839
     1.022753    1.022753

 Minimum Search - Taking P-RFO Step
 Searching for Lamda that Maximizes Along the Constraint modes Only
 Value Taken    Lamda =   0.00110929
 Searching for Lamda that Minimizes Along All other modes
 Value Taken    Lamda =  -0.05378433
 Calculated Step too Large.  Step scaled by  0.891527
 Step Taken.  Stepsize is  0.300000

                             Maximum     Tolerance    Cnvgd?
         Gradient            0.087489       0.000300      NO
         Displacement        0.154825       0.001200      NO
         Energy change     *********       0.000001      NO


 New Cartesian Coordinates Obtained by Inverse Iteration

 Displacement from previous Coordinates is:  0.782381
 Adding empirical dispersion correction 
 ----------------------------------------------------------------
 Doing -D3(op) with
 s6 =   1.00000
 s8 =   0.78311
 a1 =   0.30000
 a2 =   4.25000
 n  =  10.00000
 -D3 energy without 3body term =     -0.0233923443 hartrees
 ----------------------------------------------------------------
             Standard Nuclear Orientation (Angstroms)
    I     Atom           X                Y                Z
 ----------------------------------------------------------------
    1      C      -0.0355805415    -0.9161835037    -0.0357767386
    2      C      -1.1475485062    -0.0316207580    -0.0751789902
    3      C       1.3798111575    -0.3818359628    -0.2937789710
    4      C      -0.9859525078     1.4942018913    -0.1829658717
    5      O       2.3269508491    -1.2136817681     0.3348640009
    6      O       1.6632433221     0.6078263536    -1.0078561696
    7      O      -0.0690837714     1.9381432068     0.7897343764
    8      O      -1.6475466475     2.2428537500    -0.9377735904
    9      C       0.1422392639     3.3899129292     0.7425299976
   10      C       3.7050702199    -0.7692882101     0.0997528525
   11      C      -0.2627335991    -2.3078947128     0.1125554235
   12      C      -1.5714385350    -2.8153274315     0.2241601108
   13      C      -2.6737994978    -1.9382248539     0.1687764429
   14      C      -2.4611632024    -0.5547073327     0.0163099338
   15      H       0.5192199558     3.7181533350    -0.2475899375
   16      H       3.9790613116    -0.8229922419    -0.9742140259
   17      H      -3.6961634454    -2.3318993222     0.2426406882
   18      H      -0.7874977445     3.9486108903     0.9768235202
   19      H       0.9023398394     3.6290102331     1.5089432701
   20      H       4.3622672251    -1.4534362215     0.6678389447
   21      H       3.8718086188     0.2660848841     0.4611876025
   22      H      -1.7322543850    -3.8955202095     0.3374772000
   23      H      -3.3161086136     0.1329260790    -0.0264666084
   24      H       0.5906941848    -2.9983535022     0.1216341376
 ----------------------------------------------------------------
 Molecular Point Group                 C1    NOp =  1
 Largest Abelian Subgroup              C1    NOp =  1
 Nuclear Repulsion Energy =   870.5615321678 hartrees
 There are       51 alpha and       51 beta electrons
 Applying Cartesian multipole field
    Component          Value
    ---------          -----
     (2,0,0)        1.00000E-11
     (0,2,0)        2.00000E-11
     (0,0,2)       -3.00000E-10
 Nucleus-field energy     =     0.0000000056 hartrees
 Requested basis set is STO-3G
 There are 38 shells and 80 basis functions
 A cutoff of  1.0D-12 yielded    629 shell pairs
 There are      3146 function pairs
 Smallest overlap matrix eigenvalue = 1.81E-01
 Guess MOs from SCF MO coefficient file
 Reading MOs from coefficient file
 Reading MOs from coefficient file
 A restricted hybrid HF-DFT SCF calculation will be
 performed using Pulay DIIS extrapolation
 Exchange:     0.2000 Hartree-Fock + 0.0800 Slater + 0.7200 B88
 Correlation:  0.1900 VWN1RPA + 0.8100 LYP
 Using SG-1 standard quadrature grid
 Dispersion:   Grimme D3
 SCF converges when DIIS error is below 1.0E-08
 Geometry optimization detected.  Setting ReadMinima to 0
 Setting SaveMinima to 0
 -------------------------------------------------------
 OpenMP Integral computing Module                
 Release: version 1.0, May 2013, Q-Chem Inc. Pittsburgh 
 -------------------------------------------------------
 -------------------------------------------------------
 OpenMP BLAS3 based DFT computing Module                
 Release: version 1.0, May 2013, Q-Chem Inc. Pittsburgh 
 -------------------------------------------------------
 ---------------------------------------
  Cycle       Energy         DIIS Error
 ---------------------------------------
    1    -678.9260925972      7.74E-03
    2    -679.0865045261      2.99E-03
    3    -679.0713990180      5.05E-03
    4    -679.0943257630      7.60E-04
    5    -679.0948871524      1.89E-04
    6    -679.0949210597      5.50E-05
    7    -679.0949238833      2.27E-05
    8    -679.0949242953      1.27E-05
    9    -679.0949244412      2.50E-06
   10    -679.0949244481      4.34E-07
   11    -679.0949244483      1.57E-07
   12    -679.0949244483      3.31E-08
   13    -679.0949244483      1.87E-08
   14    -679.0949244483      5.16E-09 Convergence criterion met
 ---------------------------------------
 SCF time:  CPU 42.42 s  wall 1.79 s
 SCF   energy in the final basis set = -679.0949244483
 Total energy in the final basis set = -679.0949244483
 
 --------------------------------------------------------------
 
                    Orbital Energies (a.u.)
 --------------------------------------------------------------
 
 Alpha MOs
 -- Occupied --
-18.943 -18.938 -18.872 -18.868 -10.108 -10.104 -10.071 -10.066
-10.031 -10.030 -10.020 -10.020 -10.019 -10.018  -1.020  -1.013
 -0.940  -0.935  -0.815  -0.724  -0.716  -0.671  -0.663  -0.589
 -0.576  -0.524  -0.498  -0.466  -0.444  -0.422  -0.418  -0.415
 -0.408  -0.398  -0.379  -0.371  -0.355  -0.349  -0.334  -0.319
 -0.317  -0.305  -0.293  -0.256  -0.249  -0.202  -0.200  -0.182
 -0.173  -0.154  -0.149
 -- Virtual --
  0.043   0.066   0.121   0.134   0.236   0.252   0.276   0.326
  0.351   0.358   0.380   0.396   0.419   0.420   0.426   0.429
  0.434   0.437   0.441   0.446   0.452   0.539   0.546   0.567
  0.580   0.650   0.651   0.748   0.773
 --------------------------------------------------------------
 
          Ground-State Mulliken Net Atomic Charges

     Atom                 Charge (a.u.)
  ----------------------------------------
      1 C                    -0.014184
      2 C                    -0.010934
      3 C                     0.215036
      4 C                     0.217537
      5 O                    -0.171693
      6 O                    -0.212864
      7 O                    -0.170421
      8 O                    -0.211499
      9 C                    -0.123619
     10 C                    -0.123832
     11 C                    -0.071576
     12 C                    -0.074776
     13 C                    -0.073571
     14 C                    -0.071439
     15 H                     0.093557
     16 H                     0.089699
     17 H                     0.085313
     18 H                     0.088474
     19 H                     0.091363
     20 H                     0.092440
     21 H                     0.091072
     22 H                     0.084646
     23 H                     0.089577
     24 H                     0.091695
  ----------------------------------------
  Sum of atomic charges =     0.000000

 -----------------------------------------------------------------
                    Cartesian Multipole Moments
 -----------------------------------------------------------------
    Charge (ESU x 10^10)
                -0.0000
    Dipole Moment (Debye)
         X       1.0372      Y      -0.9346      Z       1.2775
       Tot       1.8924
    Quadrupole Moments (Debye-Ang)
        XX     -64.8323     XY       2.5559     YY     -67.0866
        XZ      -1.3749     YZ       4.4486     ZZ     -77.0490
    Octopole Moments (Debye-Ang^2)
       XXX      34.2038    XXY      -9.7586    XYY       7.2211
       YYY      23.9828    XXZ       5.3472    XYZ      -0.5680
       YYZ      10.3341    XZZ       9.4688    YZZ       6.8664
       ZZZ      -6.3061
    Hexadecapole Moments (Debye-Ang^3)
      XXXX   -1465.7822   XXXY     -42.3913   XXYY    -528.4702
      XYYY       3.7670   YYYY   -1463.5434   XXXZ      -1.6673
      XXYZ      10.2387   XYYZ     -13.6104   YYYZ      20.1966
      XXZZ    -312.7089   XYZZ     -13.6669   YYZZ    -301.1212
      XZZZ      -1.0789   YZZZ      -1.3645   ZZZZ    -171.1311
 -----------------------------------------------------------------
 Calculating analytic gradient of the SCF energy
 Gradient of SCF Energy
            1           2           3           4           5           6
    1   0.0017827   0.0019521   0.0075105   0.0124736  -0.0021969  -0.0025061
    2   0.0049160   0.0031660  -0.0092201  -0.0004774   0.0163553  -0.0044037
    3   0.0000271  -0.0031363   0.0084105   0.0102137  -0.0123443   0.0004260
            7           8           9          10          11          12
    1  -0.0143972  -0.0004626   0.0010155  -0.0071633   0.0006743  -0.0003991
    2   0.0064405  -0.0034804  -0.0082973  -0.0045035   0.0000975  -0.0008355
    3  -0.0141410   0.0022947   0.0028252   0.0030326   0.0001929   0.0003009
           13          14          15          16          17          18
    1  -0.0004392  -0.0015441   0.0011707   0.0006924   0.0004624   0.0007640
    2  -0.0005113   0.0005140   0.0001459  -0.0013179   0.0000430   0.0000753
    3   0.0004097  -0.0000668   0.0008659   0.0005428  -0.0000539   0.0013567
           19          20          21          22          23          24
    1  -0.0002177   0.0016984   0.0006656  -0.0000332   0.0001991  -0.0017017
    2   0.0023349   0.0013022  -0.0008589   0.0004449  -0.0009585  -0.0009710
    3  -0.0008448  -0.0007811   0.0011986  -0.0001493  -0.0000796  -0.0005000
 Max gradient component =       1.636E-02
 RMS gradient           =       4.758E-03
 Gradient time:  CPU 10.29 s  wall 0.43 s
 Geometry Optimization Parameters
   NAtoms,    NIC,     NZ,  NCons,   NDum,   NFix, NCnnct, MaxDiis
       24     152       0       2       0       0       0       0

 Cartesian Hessian Update
 Hessian Updated using BFGS Update


** CONSTRAINED OPTIMIZATION IN DELOCALIZED INTERNAL COORDINATES **
   Searching for a Minimum

   Optimization Cycle:   2

                       Coordinates (Angstroms)
     ATOM                X               Y               Z
      1  C        -0.0355805415   -0.9161835037   -0.0357767386
      2  C        -1.1475485062   -0.0316207580   -0.0751789902
      3  C         1.3798111575   -0.3818359628   -0.2937789710
      4  C        -0.9859525078    1.4942018913   -0.1829658717
      5  O         2.3269508491   -1.2136817681    0.3348640009
      6  O         1.6632433221    0.6078263536   -1.0078561696
      7  O        -0.0690837714    1.9381432068    0.7897343764
      8  O        -1.6475466475    2.2428537500   -0.9377735904
      9  C         0.1422392639    3.3899129292    0.7425299976
     10  C         3.7050702199   -0.7692882101    0.0997528525
     11  C        -0.2627335991   -2.3078947128    0.1125554235
     12  C        -1.5714385350   -2.8153274315    0.2241601108
     13  C        -2.6737994978   -1.9382248539    0.1687764429
     14  C        -2.4611632024   -0.5547073327    0.0163099338
     15  H         0.5192199558    3.7181533350   -0.2475899375
     16  H         3.9790613116   -0.8229922419   -0.9742140259
     17  H        -3.6961634454   -2.3318993222    0.2426406882
     18  H        -0.7874977445    3.9486108903    0.9768235202
     19  H         0.9023398394    3.6290102331    1.5089432701
     20  H         4.3622672251   -1.4534362215    0.6678389447
     21  H         3.8718086188    0.2660848841    0.4611876025
     22  H        -1.7322543850   -3.8955202095    0.3374772000
     23  H        -3.3161086136    0.1329260790   -0.0264666084
     24  H         0.5906941848   -2.9983535022    0.1216341376
   Point Group: c1    Number of degrees of freedom:    66


   Energy is   -679.094924448

              Constraints and their Current Values
                                        Value     Constraint
   Dihedral:        2   1   3   5      154.647      155.000
   Dihedral:        1   2   4   7      -50.041      -50.000
 Hessian Updated using BFGS Update

   Using Lagrange Multiplier Algorithm


 60 Hessian modes will be used to form the next step
  Hessian Eigenvalues:
    -0.977798   -0.977659    0.044897    0.045000    0.045000    0.045000
     0.045001    0.045002    0.045002    0.045005    0.045012    0.045021
     0.045047    0.045175    0.045621    0.113787    0.113901    0.116869
     0.116916    0.158665    0.159962    0.159981    0.159993    0.160000
     0.161980    0.219994    0.224844    0.237174    0.244381    0.248668
     0.249305    0.249841    0.249974    0.251914    0.342461    0.342739
     0.342875    0.342916    0.343877    0.344135    0.346062    0.349085
     0.349851    0.349938    0.350378    0.374028    0.412867    0.413053
     0.414632    0.423802    0.449328    0.456801    0.465891    0.475370
     0.519560    0.536426    0.956630    0.990383    1.022743    1.023736

 Minimum Search - Taking P-RFO Step
 Searching for Lamda that Maximizes Along the Constraint modes Only
 Value Taken    Lamda =   0.00001530
 Searching for Lamda that Minimizes Along All other modes
 Value Taken    Lamda =  -0.00365303
 Step Taken.  Stepsize is  0.150308

                             Maximum     Tolerance    Cnvgd?
         Gradient            0.014414       0.000300      NO
         Displacement        0.061690       0.001200      NO
         Energy change     -0.026088       0.000001      NO


 New Cartesian Coordinates Obtained by Inverse Iteration

 Displacement from previous Coordinates is:  0.565148
 Adding empirical dispersion correction 
 ----------------------------------------------------------------
 Doing -D3(op) with
 s6 =   1.00000
 s8 =   0.78311
 a1 =   0.30000
 a2 =   4.25000
 n  =  10.00000
 -D3 energy without 3body term =     -0.0235079974 hartrees
 ----------------------------------------------------------------
             Standard Nuclear Orientation (Angstroms)
    I     Atom           X                Y                Z
 ----------------------------------------------------------------
    1      C      -0.0517031696    -0.9285010945    -0.0229176190
    2      C      -1.1628937890    -0.0417491493    -0.0417281106
    3      C       1.3645138614    -0.3741076535    -0.2570996263
    4      C      -0.9783613761     1.4874574355    -0.1513122902
    5      O       2.3184594103    -1.2401234485     0.3532379979
    6      O       1.6587857964     0.6571522023    -0.9114211260
    7      O      -0.0251789968     1.9057304407     0.8221713013
    8      O      -1.6045816250     2.2620148062    -0.9146095995
    9      C       0.1897952792     3.3610333673     0.7010314854
   10      C       3.6789913510    -0.7228107609     0.1070840992
   11      C      -0.2721043324    -2.3212290812     0.0956529761
   12      C      -1.5813143280    -2.8297473761     0.1968504998
   13      C      -2.6849702142    -1.9503201750     0.1617426629
   14      C      -2.4750416381    -0.5628962258     0.0397246761
   15      H       0.5495754241     3.6370557434    -0.3118762964
   16      H       3.9273878198    -0.7187159606    -0.9749871882
   17      H      -3.7080315141    -2.3457699926     0.2281737994
   18      H      -0.7381204118     3.9319954967     0.9149640016
   19      H       0.9619650310     3.6139396271     1.4514155410
   20      H       4.3630259578    -1.4085960588     0.6412653246
   21      H       3.8032610312     0.3077056960     0.4999633997
   22      H      -1.7419272454    -3.9126937474     0.2902873375
   23      H      -3.3282308567     0.1296495978     0.0084249055
   24      H       0.5925334855    -2.9997161672     0.0975894467
 ----------------------------------------------------------------
 Molecular Point Group                 C1    NOp =  1
 Largest Abelian Subgroup              C1    NOp =  1
 Nuclear Repulsion Energy =   872.1187990126 hartrees
 There are       51 alpha and       51 beta electrons
 Applying Cartesian multipole field
    Component          Value
    ---------          -----
     (2,0,0)        1.00000E-11
     (0,2,0)        2.00000E-11
     (0,0,2)       -3.00000E-10
 Nucleus-field energy     =     0.0000000079 hartrees
 Requested basis set is STO-3G
 There are 38 shells and 80 basis functions
 A cutoff of  1.0D-12 yielded    629 shell pairs
 There are      3146 function pairs
 Smallest overlap matrix eigenvalue = 1.81E-01
 Guess MOs from SCF MO coefficient file
 Reading MOs from coefficient file
 Reading MOs from coefficient file
 A restricted hybrid HF-DFT SCF calculation will be
 performed using Pulay DIIS extrapolation
 Exchange:     0.2000 Hartree-Fock + 0.0800 Slater + 0.7200 B88
 Correlation:  0.1900 VWN1RPA + 0.8100 LYP
 Using SG-1 standard quadrature grid
 Dispersion:   Grimme D3
 SCF converges when DIIS error is below 1.0E-08
 Geometry optimization detected.  Setting ReadMinima to 0
 Setting SaveMinima to 0
 -------------------------------------------------------
 OpenMP Integral computing Module                
 Release: version 1.0, May 2013, Q-Chem Inc. Pittsburgh 
 -------------------------------------------------------
 -------------------------------------------------------
 OpenMP BLAS3 based DFT computing Module                
 Release: version 1.0, May 2013, Q-Chem Inc. Pittsburgh 
 -------------------------------------------------------
 ---------------------------------------
  Cycle       Energy         DIIS Error
 ---------------------------------------
    1    -679.0590945026      4.02E-03
    2    -679.0959149593      8.77E-04
    3    -679.0936747610      1.82E-03
    4    -679.0966312280      2.39E-04
    5    -679.0966853421      7.12E-05
    6    -679.0966898418      2.53E-05
    7    -679.0966904551      9.77E-06
    8    -679.0966905428      4.70E-06
    9    -679.0966905616      1.53E-06
   10    -679.0966905641      2.38E-07
   11    -679.0966905642      6.06E-08
   12    -679.0966905642      2.30E-08
   13    -679.0966905642      9.03E-09 Convergence criterion met
 ---------------------------------------
 SCF time:  CPU 40.09 s  wall 1.69 s
 SCF   energy in the final basis set = -679.0966905642
 Total energy in the final basis set = -679.0966905642
 
 --------------------------------------------------------------
 
                    Orbital Energies (a.u.)
 --------------------------------------------------------------
 
 Alpha MOs
 -- Occupied --
-18.941 -18.936 -18.875 -18.872 -10.105 -10.103 -10.067 -10.062
-10.031 -10.030 -10.021 -10.021 -10.020 -10.019  -1.016  -1.009
 -0.938  -0.933  -0.816  -0.723  -0.716  -0.667  -0.658  -0.588
 -0.577  -0.523  -0.496  -0.464  -0.443  -0.420  -0.417  -0.413
 -0.406  -0.398  -0.375  -0.367  -0.357  -0.349  -0.333  -0.318
 -0.316  -0.304  -0.292  -0.260  -0.254  -0.203  -0.199  -0.183
 -0.172  -0.155  -0.151
 -- Virtual --
  0.041   0.065   0.119   0.132   0.237   0.251   0.274   0.318
  0.339   0.352   0.376   0.391   0.417   0.420   0.426   0.428
  0.433   0.435   0.439   0.444   0.450   0.535   0.545   0.566
  0.578   0.645   0.647   0.746   0.772
 --------------------------------------------------------------
 
          Ground-State Mulliken Net Atomic Charges

     Atom                 Charge (a.u.)
  ----------------------------------------
      1 C                    -0.014502
      2 C                    -0.011562
      3 C                     0.210851
      4 C                     0.213619
      5 O                    -0.166902
      6 O                    -0.209800
      7 O                    -0.165431
      8 O                    -0.207965
      9 C                    -0.125932
     10 C                    -0.126372
     11 C                    -0.071832
     12 C                    -0.074354
     13 C                    -0.072956
     14 C                    -0.071843
     15 H                     0.093661
     16 H                     0.089238
     17 H                     0.085423
     18 H                     0.087985
     19 H                     0.089653
     20 H                     0.090971
     21 H                     0.091136
     22 H                     0.084905
     23 H                     0.089375
     24 H                     0.092634
  ----------------------------------------
  Sum of atomic charges =     0.000000

 -----------------------------------------------------------------
                    Cartesian Multipole Moments
 -----------------------------------------------------------------
    Charge (ESU x 10^10)
                 0.0000
    Dipole Moment (Debye)
         X       0.8812      Y      -0.9751      Z       1.0967
       Tot       1.7117
    Quadrupole Moments (Debye-Ang)
        XX     -65.0921     XY       2.6855     YY     -67.6763
        XZ      -1.4464     YZ       4.1764     ZZ     -76.8523
    Octopole Moments (Debye-Ang^2)
       XXX      31.0889    XXY      -8.3450    XYY       6.2576
       YYY      22.2952    XXZ       3.8784    XYZ      -0.5815
       YYZ       8.4369    XZZ       9.7046    YZZ       7.1872
       ZZZ      -9.6348
    Hexadecapole Moments (Debye-Ang^3)
      XXXX   -1466.1405   XXXY     -52.9803   XXYY    -526.7491
      XYYY      -9.3764   YYYY   -1468.4093   XXXZ      -4.6975
      XXYZ       9.6731   XYYZ     -13.3779   YYYZ      19.0542
      XXZZ    -308.9934   XYZZ     -17.8903   YYZZ    -300.4590
      XZZZ      -4.7104   YZZZ      -2.1667   ZZZZ    -162.0576
 -----------------------------------------------------------------
 Calculating analytic gradient of the SCF energy
 Gradient of SCF Energy
            1           2           3           4           5           6
    1  -0.0012225   0.0014343   0.0050309   0.0060364  -0.0009263  -0.0004479
    2  -0.0008432  -0.0011008  -0.0040268   0.0022913   0.0016254   0.0033526
    3   0.0017441   0.0000179   0.0032101   0.0047800  -0.0009523  -0.0020783
            7           8           9          10          11          12
    1  -0.0009307  -0.0025725  -0.0020833  -0.0044595  -0.0002458   0.0006542
    2  -0.0006609   0.0020356  -0.0039393   0.0003203   0.0004667  -0.0002552
    3  -0.0016334  -0.0024765  -0.0014744  -0.0002340  -0.0005945  -0.0000376
           13          14          15          16          17          18
    1  -0.0004247  -0.0001490   0.0001305   0.0002234  -0.0001908  -0.0004559
    2   0.0006282   0.0000133   0.0003608   0.0000013   0.0000888   0.0003569
    3   0.0000140   0.0001151  -0.0005417  -0.0005533  -0.0000212   0.0001850
           19          20          21          22          23          24
    1   0.0003244  -0.0002080   0.0002355   0.0001451  -0.0001178   0.0002199
    2  -0.0006273  -0.0004973   0.0005218  -0.0001853   0.0003708  -0.0002976
    3   0.0003417   0.0003988   0.0001748   0.0000578  -0.0002381  -0.0002039
 Max gradient component =       6.036E-03
 RMS gradient           =       1.719E-03
 Gradient time:  CPU 9.44 s  wall 0.40 s
 Geometry Optimization Parameters
   NAtoms,    NIC,     NZ,  NCons,   NDum,   NFix, NCnnct, MaxDiis
       24     152       0       2       0       0       0       0

 Cartesian Hessian Update
 Hessian Updated using BFGS Update


** CONSTRAINED OPTIMIZATION IN DELOCALIZED INTERNAL COORDINATES **
   Searching for a Minimum

   Optimization Cycle:   3

                       Coordinates (Angstroms)
     ATOM                X               Y               Z
      1  C        -0.0517031696   -0.9285010945   -0.0229176190
      2  C        -1.1628937890   -0.0417491493   -0.0417281106
      3  C         1.3645138614   -0.3741076535   -0.2570996263
      4  C        -0.9783613761    1.4874574355   -0.1513122902
      5  O         2.3184594103   -1.2401234485    0.3532379979
      6  O         1.6587857964    0.6571522023   -0.9114211260
      7  O        -0.0251789968    1.9057304407    0.8221713013
      8  O        -1.6045816250    2.2620148062   -0.9146095995
      9  C         0.1897952792    3.3610333673    0.7010314854
     10  C         3.6789913510   -0.7228107609    0.1070840992
     11  C        -0.2721043324   -2.3212290812    0.0956529761
     12  C        -1.5813143280   -2.8297473761    0.1968504998
     13  C        -2.6849702142   -1.9503201750    0.1617426629
     14  C        -2.4750416381   -0.5628962258    0.0397246761
     15  H         0.5495754241    3.6370557434   -0.3118762964
     16  H         3.9273878198   -0.7187159606   -0.9749871882
     17  H        -3.7080315141   -2.3457699926    0.2281737994
     18  H        -0.7381204118    3.9319954967    0.9149640016
     19  H         0.9619650310    3.6139396271    1.4514155410
     20  H         4.3630259578   -1.4085960588    0.6412653246
     21  H         3.8032610312    0.3077056960    0.4999633997
     22  H        -1.7419272454   -3.9126937474    0.2902873375
     23  H        -3.3282308567    0.1296495978    0.0084249055
     24  H         0.5925334855   -2.9997161672    0.0975894467
   Point Group: c1    Number of degrees of freedom:    66


   Energy is   -679.096690564

              Constraints and their Current Values
                                        Value     Constraint
   Dihedral:        2   1   3   5      154.999      155.000
   Dihedral:        1   2   4   7      -50.000      -50.000
 Hessian Updated using BFGS Update

   Using Lagrange Multiplier Algorithm


 63 Hessian modes will be used to form the next step
  Hessian Eigenvalues:
    -0.977760   -0.975055    0.043615    0.045000    0.045000    0.045000
     0.045001    0.045001    0.045002    0.045005    0.045012    0.045020
     0.045031    0.045115    0.045438    0.046516    0.112654    0.113895
     0.116866    0.116916    0.157884    0.159972    0.159993    0.159995
     0.160000    0.160915    0.162878    0.219959    0.225171    0.227227
     0.244362    0.249113    0.249656    0.249901    0.249992    0.250884
     0.301890    0.342724    0.342873    0.342915    0.343317    0.343877
     0.344137    0.346148    0.349214    0.349845    0.350145    0.350497
     0.374923    0.400451    0.413063    0.413246    0.433375    0.448193
     0.456788    0.466399    0.471342    0.485681    0.536262    0.956580
     1.002658    1.022756    1.037866

 Minimum Search - Taking P-RFO Step
 Searching for Lamda that Maximizes Along the Constraint modes Only
 Value Taken    Lamda =   0.00001082
 Searching for Lamda that Minimizes Along All other modes
 Value Taken    Lamda =  -0.00051938
 Step Taken.  Stepsize is  0.046507

                             Maximum     Tolerance    Cnvgd?
         Gradient            0.007428       0.000300      NO
         Displacement        0.017087       0.001200      NO
         Energy change     -0.001766       0.000001      NO


 New Cartesian Coordinates Obtained by Inverse Iteration

 Displacement from previous Coordinates is:  0.219237
 Adding empirical dispersion correction 
 ----------------------------------------------------------------
 Doing -D3(op) with
 s6 =   1.00000
 s8 =   0.78311
 a1 =   0.30000
 a2 =   4.25000
 n  =  10.00000
 -D3 energy without 3body term =     -0.0234412082 hartrees
 ----------------------------------------------------------------
             Standard Nuclear Orientation (Angstroms)
    I     Atom           X                Y                Z
 ----------------------------------------------------------------
    1      C      -0.0518446100    -0.9192613564    -0.0296024381
    2      C      -1.1689563233    -0.0361430911    -0.0447488545
    3      C       1.3679614955    -0.3730854741    -0.2616005561
    4      C      -0.9973156402     1.4951605316    -0.1499449793
    5      O       2.3199443609    -1.2509439457     0.3510022927
    6      O       1.6779209827     0.6534099303    -0.9127774801
    7      O      -0.0424298134     1.9267764792     0.8264302983
    8      O      -1.6216932407     2.2664601737    -0.9147163551
    9      C       0.1744492127     3.3876306012     0.7069174790
   10      C       3.6940779537    -0.7544690513     0.1046421478
   11      C      -0.2669054245    -2.3123686163     0.0946363584
   12      C      -1.5730729688    -2.8276971813     0.1967213237
   13      C      -2.6799918131    -1.9546642929     0.1602176385
   14      C      -2.4771818370    -0.5662988632     0.0382272181
   15      H       0.5377795730     3.6597844575    -0.3046941077
   16      H       3.9398414585    -0.7542372590    -0.9770497876
   17      H      -3.7004943352    -2.3557828950     0.2287703822
   18      H      -0.7556588798     3.9561842234     0.9125710133
   19      H       0.9414746754     3.6449049509     1.4602939919
   20      H       4.3691672021    -1.4481822503     0.6386786204
   21      H       3.8304906881     0.2745863447     0.4947158778
   22      H      -1.7290453340    -3.9108349573     0.2930289559
   23      H      -3.3347795221     0.1203648496     0.0111576491
   24      H       0.6020970901    -2.9845357868     0.1007509102
 ----------------------------------------------------------------
 Molecular Point Group                 C1    NOp =  1
 Largest Abelian Subgroup              C1    NOp =  1
 Nuclear Repulsion Energy =   869.9455523970 hartrees
 There are       51 alpha and       51 beta electrons
 Applying Cartesian multipole field
    Component          Value
    ---------          -----
     (2,0,0)        1.00000E-11
     (0,2,0)        2.00000E-11
     (0,0,2)       -3.00000E-10
 Nucleus-field energy     =     0.0000000080 hartrees
 Requested basis set is STO-3G
 There are 38 shells and 80 basis functions
 A cutoff of  1.0D-12 yielded    629 shell pairs
 There are      3146 function pairs
 Smallest overlap matrix eigenvalue = 1.81E-01
 Guess MOs from SCF MO coefficient file
 Reading MOs from coefficient file
 Reading MOs from coefficient file
 A restricted hybrid HF-DFT SCF calculation will be
 performed using Pulay DIIS extrapolation
 Exchange:     0.2000 Hartree-Fock + 0.0800 Slater + 0.7200 B88
 Correlation:  0.1900 VWN1RPA + 0.8100 LYP
 Using SG-1 standard quadrature grid
 Dispersion:   Grimme D3
 SCF converges when DIIS error is below 1.0E-08
 Geometry optimization detected.  Setting ReadMinima to 0
 Setting SaveMinima to 0
 -------------------------------------------------------
 OpenMP Integral computing Module                
 Release: version 1.0, May 2013, Q-Chem Inc. Pittsburgh 
 -------------------------------------------------------
 -------------------------------------------------------
 OpenMP BLAS3 based DFT computing Module                
 Release: version 1.0, May 2013, Q-Chem Inc. Pittsburgh 
 -------------------------------------------------------
 ---------------------------------------
  Cycle       Energy         DIIS Error
 ---------------------------------------
    1    -679.0919735373      1.10E-03
    2    -679.0968264186      3.32E-04
    3    -679.0964470846      7.16E-04
    4    -679.0969303518      6.26E-05
    5    -679.0969339079      1.55E-05
    6    -679.0969341197      5.63E-06
    7    -679.0969341541      2.00E-06
    8    -679.0969341580      6.95E-07
    9    -679.0969341583      4.62E-07
   10    -679.0969341585      5.42E-08
   11    -679.0969341585      1.61E-08
   12    -679.0969341585      7.35E-09 Convergence criterion met
 ---------------------------------------
 SCF time:  CPU 37.98 s  wall 1.61 s
 SCF   energy in the final basis set = -679.0969341585
 Total energy in the final basis set = -679.0969341585
 
 --------------------------------------------------------------
 
                    Orbital Energies (a.u.)
 --------------------------------------------------------------
 
 Alpha MOs
 -- Occupied --
-18.938 -18.933 -18.876 -18.874 -10.105 -10.103 -10.066 -10.061
-10.032 -10.032 -10.021 -10.021 -10.021 -10.020  -1.013  -1.006
 -0.937  -0.932  -0.816  -0.723  -0.717  -0.666  -0.658  -0.589
 -0.577  -0.523  -0.496  -0.463  -0.443  -0.419  -0.417  -0.412
 -0.406  -0.399  -0.375  -0.367  -0.356  -0.349  -0.334  -0.318
 -0.317  -0.304  -0.292  -0.259  -0.253  -0.204  -0.200  -0.181
 -0.172  -0.155  -0.151
 -- Virtual --
  0.040   0.064   0.118   0.132   0.235   0.247   0.270   0.316
  0.337   0.351   0.376   0.390   0.416   0.421   0.426   0.430
  0.434   0.436   0.440   0.444   0.450   0.535   0.545   0.566
  0.577   0.645   0.648   0.746   0.772
 --------------------------------------------------------------
 
          Ground-State Mulliken Net Atomic Charges

     Atom                 Charge (a.u.)
  ----------------------------------------
      1 C                    -0.013932
      2 C                    -0.011283
      3 C                     0.210086
      4 C                     0.212811
      5 O                    -0.167173
      6 O                    -0.209063
      7 O                    -0.165201
      8 O                    -0.207291
      9 C                    -0.127374
     10 C                    -0.127830
     11 C                    -0.071582
     12 C                    -0.074376
     13 C                    -0.072863
     14 C                    -0.071719
     15 H                     0.093487
     16 H                     0.089121
     17 H                     0.085633
     18 H                     0.088052
     19 H                     0.090190
     20 H                     0.091226
     21 H                     0.091093
     22 H                     0.085141
     23 H                     0.089528
     24 H                     0.093319
  ----------------------------------------
  Sum of atomic charges =    -0.000000

 -----------------------------------------------------------------
                    Cartesian Multipole Moments
 -----------------------------------------------------------------
    Charge (ESU x 10^10)
                -0.0000
    Dipole Moment (Debye)
         X       0.8342      Y      -0.9927      Z       1.0816
       Tot       1.6885
    Quadrupole Moments (Debye-Ang)
        XX     -65.0882     XY       2.6342     YY     -67.5474
        XZ      -1.4415     YZ       4.1547     ZZ     -76.8522
    Octopole Moments (Debye-Ang^2)
       XXX      31.5446    XXY      -8.9629    XYY       6.3904
       YYY      22.5137    XXZ       4.0826    XYZ      -0.5646
       YYZ       8.6528    XZZ       9.7757    YZZ       7.0401
       ZZZ      -9.4732
    Hexadecapole Moments (Debye-Ang^3)
      XXXX   -1472.2160   XXXY     -47.9951   XXYY    -529.5586
      XYYY      -2.9554   YYYY   -1476.9430   XXXZ      -4.2116
      XXYZ       9.3887   XYYZ     -13.1821   YYYZ      18.3815
      XXZZ    -310.6043   XYZZ     -15.6990   YYZZ    -302.2979
      XZZZ      -4.1273   YZZZ      -3.3326   ZZZZ    -162.5911
 -----------------------------------------------------------------
 Calculating analytic gradient of the SCF energy
 Gradient of SCF Energy
            1           2           3           4           5           6
    1  -0.0005669  -0.0005409   0.0004226   0.0002899  -0.0007097   0.0002131
    2  -0.0010168  -0.0006454  -0.0015211  -0.0002234   0.0004120   0.0010179
    3   0.0008082  -0.0004062   0.0006581   0.0010555  -0.0000631  -0.0009969
            7           8           9          10          11          12
    1  -0.0002001  -0.0004623   0.0005162   0.0009360  -0.0002244   0.0002352
    2  -0.0000229   0.0006420   0.0006574  -0.0000980   0.0001936   0.0002697
    3  -0.0001959  -0.0006139   0.0002907   0.0002310  -0.0002613  -0.0001008
           13          14          15          16          17          18
    1   0.0001288   0.0000297  -0.0003084  -0.0000709   0.0000075   0.0000582
    2   0.0003388  -0.0002396  -0.0000245   0.0001664  -0.0000273  -0.0000475
    3  -0.0000498  -0.0000194   0.0000168   0.0000921   0.0000348  -0.0001248
           19          20          21          22          23          24
    1   0.0001092   0.0000846  -0.0000837   0.0000088   0.0000483   0.0000792
    2   0.0000688  -0.0000196  -0.0000123   0.0000146   0.0000842   0.0000331
    3   0.0000022   0.0000348  -0.0002195   0.0000201  -0.0001365  -0.0000563
 Max gradient component =       1.521E-03
 RMS gradient           =       4.311E-04
 Gradient time:  CPU 9.74 s  wall 0.41 s
 Geometry Optimization Parameters
   NAtoms,    NIC,     NZ,  NCons,   NDum,   NFix, NCnnct, MaxDiis
       24     152       0       2       0       0       0       0

 Cartesian Hessian Update
 Hessian Updated using BFGS Update


** CONSTRAINED OPTIMIZATION IN DELOCALIZED INTERNAL COORDINATES **
   Searching for a Minimum

   Optimization Cycle:   4

                       Coordinates (Angstroms)
     ATOM                X               Y               Z
      1  C        -0.0518446100   -0.9192613564   -0.0296024381
      2  C        -1.1689563233   -0.0361430911   -0.0447488545
      3  C         1.3679614955   -0.3730854741   -0.2616005561
      4  C        -0.9973156402    1.4951605316   -0.1499449793
      5  O         2.3199443609   -1.2509439457    0.3510022927
      6  O         1.6779209827    0.6534099303   -0.9127774801
      7  O        -0.0424298134    1.9267764792    0.8264302983
      8  O        -1.6216932407    2.2664601737   -0.9147163551
      9  C         0.1744492127    3.3876306012    0.7069174790
     10  C         3.6940779537   -0.7544690513    0.1046421478
     11  C        -0.2669054245   -2.3123686163    0.0946363584
     12  C        -1.5730729688   -2.8276971813    0.1967213237
     13  C        -2.6799918131   -1.9546642929    0.1602176385
     14  C        -2.4771818370   -0.5662988632    0.0382272181
     15  H         0.5377795730    3.6597844575   -0.3046941077
     16  H         3.9398414585   -0.7542372590   -0.9770497876
     17  H        -3.7004943352   -2.3557828950    0.2287703822
     18  H        -0.7556588798    3.9561842234    0.9125710133
     19  H         0.9414746754    3.6449049509    1.4602939919
     20  H         4.3691672021   -1.4481822503    0.6386786204
     21  H         3.8304906881    0.2745863447    0.4947158778
     22  H        -1.7290453340   -3.9108349573    0.2930289559
     23  H        -3.3347795221    0.1203648496    0.0111576491
     24  H         0.6020970901   -2.9845357868    0.1007509102
   Point Group: c1    Number of degrees of freedom:    66


   Energy is   -679.096934159

              Constraints and their Current Values
                                        Value     Constraint
   Dihedral:        2   1   3   5      155.000      155.000
   Dihedral:        1   2   4   7      -50.000      -50.000
 Hessian Updated using BFGS Update

   Using Lagrange Multiplier Algorithm


 64 Hessian modes will be used to form the next step
  Hessian Eigenvalues:
    -0.974674    0.041044    0.045000    0.045000    0.045000    0.045001
     0.045001    0.045002    0.045004    0.045010    0.045014    0.045030
     0.045048    0.045106    0.045730    0.046760    0.113880    0.114519
     0.116864    0.116916    0.158261    0.159971    0.159995    0.159999
     0.160000    0.160003    0.160912    0.162972    0.219375    0.221077
     0.226424    0.244322    0.248952    0.249657    0.249886    0.249983
     0.249996    0.250866    0.302064    0.342724    0.342873    0.342915
     0.343655    0.343871    0.344140    0.347430    0.349273    0.349848
     0.350184    0.350969    0.367024    0.412361    0.413094    0.413759
     0.447469    0.456570    0.461941    0.465944    0.468924    0.510441
     0.541358    0.957045    0.976459    1.034934

 Minimum Search - Taking P-RFO Step
 Searching for Lamda that Maximizes Along the Constraint modes Only
 Value Taken    Lamda =   0.00000028
 Searching for Lamda that Minimizes Along All other modes
 Value Taken    Lamda =  -0.00002980
 Step Taken.  Stepsize is  0.017521

                             Maximum     Tolerance    Cnvgd?
         Gradient            0.001331       0.000300      NO
         Displacement        0.006393       0.001200      NO
         Energy change     -0.000244       0.000001      NO


 New Cartesian Coordinates Obtained by Inverse Iteration

 Displacement from previous Coordinates is:  0.040073
 Adding empirical dispersion correction 
 ----------------------------------------------------------------
 Doing -D3(op) with
 s6 =   1.00000
 s8 =   0.78311
 a1 =   0.30000
 a2 =   4.25000
 n  =  10.00000
 -D3 energy without 3body term =     -0.0234554216 hartrees
 ----------------------------------------------------------------
             Standard Nuclear Orientation (Angstroms)
    I     Atom           X                Y                Z
 ----------------------------------------------------------------
    1      C      -0.0522848133    -0.9162598621    -0.0333085518
    2      C      -1.1702358424    -0.0349123992    -0.0460395906
    3      C       1.3666496554    -0.3687568263    -0.2612120718
    4      C      -0.9990091286     1.4951970385    -0.1513534016
    5      O       2.3171185440    -1.2502423904     0.3499310334
    6      O       1.6790093526     0.6600316112    -0.9060644924
    7      O      -0.0418349723     1.9245963746     0.8240347414
    8      O      -1.6237057557     2.2670648479    -0.9143133937
    9      C       0.1765690303     3.3848253878     0.7042580006
   10      C       3.6912309535    -0.7543767559     0.1055654373
   11      C      -0.2658538100    -2.3101889380     0.0921984361
   12      C      -1.5714464814    -2.8277417850     0.1960265546
   13      C      -2.6793667283    -1.9559310218     0.1614047624
   14      C      -2.4779467483    -0.5669016426     0.0397148150
   15      H       0.5436157001     3.6567408767    -0.3062652696
   16      H       3.9380895726    -0.7516572160    -0.9760168498
   17      H      -3.6994175503    -2.3579342759     0.2316606564
   18      H      -0.7529397336     3.9549636339     0.9089423437
   19      H       0.9422838619     3.6407547932     1.4592396185
   20      H       4.3647129553    -1.4510700043     0.6375317963
   21      H       3.8295671963     0.2727906035     0.5003045161
   22      H      -1.7259596518    -3.9110837320     0.2927953108
   23      H      -3.3367644321     0.1183014971     0.0157520715
   24      H       0.6037537766    -2.9814522935     0.0988411257
 ----------------------------------------------------------------
 Molecular Point Group                 C1    NOp =  1
 Largest Abelian Subgroup              C1    NOp =  1
 Nuclear Repulsion Energy =   870.2503975256 hartrees
 There are       51 alpha and       51 beta electrons
 Applying Cartesian multipole field
    Component          Value
    ---------          -----
     (2,0,0)        1.00000E-11
     (0,2,0)        2.00000E-11
     (0,0,2)       -3.00000E-10
 Nucleus-field energy     =     0.0000000081 hartrees
 Requested basis set is STO-3G
 There are 38 shells and 80 basis functions
 A cutoff of  1.0D-12 yielded    629 shell pairs
 There are      3146 function pairs
 Smallest overlap matrix eigenvalue = 1.81E-01
 Guess MOs from SCF MO coefficient file
 Reading MOs from coefficient file
 Reading MOs from coefficient file
 A restricted hybrid HF-DFT SCF calculation will be
 performed using Pulay DIIS extrapolation
 Exchange:     0.2000 Hartree-Fock + 0.0800 Slater + 0.7200 B88
 Correlation:  0.1900 VWN1RPA + 0.8100 LYP
 Using SG-1 standard quadrature grid
 Dispersion:   Grimme D3
 SCF converges when DIIS error is below 1.0E-08
 Geometry optimization detected.  Setting ReadMinima to 0
 Setting SaveMinima to 0
 -------------------------------------------------------
 OpenMP Integral computing Module                
 Release: version 1.0, May 2013, Q-Chem Inc. Pittsburgh 
 -------------------------------------------------------
 -------------------------------------------------------
 OpenMP BLAS3 based DFT computing Module                
 Release: version 1.0, May 2013, Q-Chem Inc. Pittsburgh 
 -------------------------------------------------------
 ---------------------------------------
  Cycle       Energy         DIIS Error
 ---------------------------------------
    1    -679.0976504057      3.22E-04
    2    -679.0969494027      4.45E-05
    3    -679.0969443459      8.57E-05
    4    -679.0969517051      1.66E-05
    5    -679.0969519214      6.62E-06
    6    -679.0969519609      1.76E-06
    7    -679.0969519641      4.87E-07
    8    -679.0969519643      2.01E-07
    9    -679.0969519643      1.23E-07
   10    -679.0969519644      1.62E-08
   11    -679.0969519644      6.34E-09 Convergence criterion met
 ---------------------------------------
 SCF time:  CPU 34.18 s  wall 1.44 s
 SCF   energy in the final basis set = -679.0969519644
 Total energy in the final basis set = -679.0969519644
 
 --------------------------------------------------------------
 
                    Orbital Energies (a.u.)
 --------------------------------------------------------------
 
 Alpha MOs
 -- Occupied --
-18.937 -18.933 -18.876 -18.874 -10.105 -10.103 -10.066 -10.061
-10.033 -10.032 -10.021 -10.021 -10.021 -10.020  -1.013  -1.007
 -0.937  -0.933  -0.816  -0.724  -0.717  -0.666  -0.658  -0.589
 -0.577  -0.523  -0.496  -0.462  -0.443  -0.419  -0.417  -0.412
 -0.406  -0.399  -0.375  -0.367  -0.357  -0.349  -0.334  -0.319
 -0.317  -0.305  -0.292  -0.260  -0.253  -0.204  -0.200  -0.181
 -0.172  -0.156  -0.152
 -- Virtual --
  0.040   0.064   0.119   0.132   0.236   0.248   0.271   0.317
  0.337   0.351   0.376   0.390   0.416   0.421   0.427   0.430
  0.434   0.436   0.440   0.444   0.450   0.535   0.545   0.565
  0.577   0.645   0.648   0.746   0.771
 --------------------------------------------------------------
 
          Ground-State Mulliken Net Atomic Charges

     Atom                 Charge (a.u.)
  ----------------------------------------
      1 C                    -0.014004
      2 C                    -0.011411
      3 C                     0.210352
      4 C                     0.213039
      5 O                    -0.167289
      6 O                    -0.209064
      7 O                    -0.165191
      8 O                    -0.207243
      9 C                    -0.127350
     10 C                    -0.127807
     11 C                    -0.071410
     12 C                    -0.074409
     13 C                    -0.072828
     14 C                    -0.071637
     15 H                     0.093410
     16 H                     0.089000
     17 H                     0.085638
     18 H                     0.088011
     19 H                     0.090097
     20 H                     0.091092
     21 H                     0.091004
     22 H                     0.085162
     23 H                     0.089470
     24 H                     0.093368
  ----------------------------------------
  Sum of atomic charges =     0.000000

 -----------------------------------------------------------------
                    Cartesian Multipole Moments
 -----------------------------------------------------------------
    Charge (ESU x 10^10)
                -0.0000
    Dipole Moment (Debye)
         X       0.8265      Y      -0.9989      Z       1.0767
       Tot       1.6852
    Quadrupole Moments (Debye-Ang)
        XX     -65.1292     XY       2.6399     YY     -67.5816
        XZ      -1.4550     YZ       4.1415     ZZ     -76.8252
    Octopole Moments (Debye-Ang^2)
       XXX      31.4233    XXY      -9.0384    XYY       6.3958
       YYY      22.2158    XXZ       4.1360    XYZ      -0.5684
       YYZ       8.6703    XZZ       9.8298    YZZ       7.0051
       ZZZ      -9.4334
    Hexadecapole Moments (Debye-Ang^3)
      XXXX   -1472.1793   XXXY     -48.1667   XXYY    -529.2896
      XYYY      -3.2561   YYYY   -1476.2275   XXXZ      -4.5511
      XXYZ       9.4557   XYYZ     -13.2694   YYYZ      18.4859
      XXZZ    -310.2862   XYZZ     -15.7807   YYZZ    -302.0404
      XZZZ      -4.3182   YZZZ      -3.1050   ZZZZ    -161.9604
 -----------------------------------------------------------------
 Calculating analytic gradient of the SCF energy
 Gradient of SCF Energy
            1           2           3           4           5           6
    1  -0.0001071   0.0000807   0.0001451  -0.0001755  -0.0003691  -0.0000466
    2   0.0000001  -0.0000385  -0.0003861  -0.0000340   0.0001634   0.0001599
    3   0.0003795  -0.0002896   0.0000177   0.0003494   0.0001910  -0.0002525
            7           8           9          10          11          12
    1   0.0001334  -0.0000495   0.0002642   0.0004971   0.0000646  -0.0001582
    2  -0.0002015   0.0000376   0.0003641   0.0000123  -0.0000224  -0.0000412
    3  -0.0000159  -0.0000830   0.0000600   0.0000729  -0.0002208  -0.0000324
           13          14          15          16          17          18
    1  -0.0000012  -0.0000506  -0.0001100  -0.0000075   0.0000027  -0.0000013
    2  -0.0001286   0.0000793   0.0000248   0.0000052  -0.0000417   0.0000193
    3  -0.0000301  -0.0000067  -0.0000533  -0.0000129   0.0000219   0.0000500
           19          20          21          22          23          24
    1   0.0000123  -0.0000550  -0.0000364  -0.0000401   0.0000173  -0.0000093
    2  -0.0000270   0.0000241   0.0000292  -0.0000116  -0.0000013   0.0000143
    3  -0.0000758  -0.0000008  -0.0000288   0.0000215  -0.0000706   0.0000092
 Max gradient component =       4.971E-04
 RMS gradient           =       1.463E-04
 Gradient time:  CPU 9.70 s  wall 0.41 s
 Geometry Optimization Parameters
   NAtoms,    NIC,     NZ,  NCons,   NDum,   NFix, NCnnct, MaxDiis
       24     152       0       2       0       0       0       0

 Cartesian Hessian Update
 Hessian Updated using BFGS Update


** CONSTRAINED OPTIMIZATION IN DELOCALIZED INTERNAL COORDINATES **
   Searching for a Minimum

   Optimization Cycle:   5

                       Coordinates (Angstroms)
     ATOM                X               Y               Z
      1  C        -0.0522848133   -0.9162598621   -0.0333085518
      2  C        -1.1702358424   -0.0349123992   -0.0460395906
      3  C         1.3666496554   -0.3687568263   -0.2612120718
      4  C        -0.9990091286    1.4951970385   -0.1513534016
      5  O         2.3171185440   -1.2502423904    0.3499310334
      6  O         1.6790093526    0.6600316112   -0.9060644924
      7  O        -0.0418349723    1.9245963746    0.8240347414
      8  O        -1.6237057557    2.2670648479   -0.9143133937
      9  C         0.1765690303    3.3848253878    0.7042580006
     10  C         3.6912309535   -0.7543767559    0.1055654373
     11  C        -0.2658538100   -2.3101889380    0.0921984361
     12  C        -1.5714464814   -2.8277417850    0.1960265546
     13  C        -2.6793667283   -1.9559310218    0.1614047624
     14  C        -2.4779467483   -0.5669016426    0.0397148150
     15  H         0.5436157001    3.6567408767   -0.3062652696
     16  H         3.9380895726   -0.7516572160   -0.9760168498
     17  H        -3.6994175503   -2.3579342759    0.2316606564
     18  H        -0.7529397336    3.9549636339    0.9089423437
     19  H         0.9422838619    3.6407547932    1.4592396185
     20  H         4.3647129553   -1.4510700043    0.6375317963
     21  H         3.8295671963    0.2727906035    0.5003045161
     22  H        -1.7259596518   -3.9110837320    0.2927953108
     23  H        -3.3367644321    0.1183014971    0.0157520715
     24  H         0.6037537766   -2.9814522935    0.0988411257
   Point Group: c1    Number of degrees of freedom:    66


   Energy is   -679.096951964

              Constraints and their Current Values
                                        Value     Constraint
   Dihedral:        2   1   3   5      155.000      155.000
   Dihedral:        1   2   4   7      -50.000      -50.000
 Hessian Updated using BFGS Update

 61 Hessian modes will be used to form the next step
  Hessian Eigenvalues:
     0.027170    0.044597    0.045000    0.045000    0.045001    0.045002
     0.045003    0.045006    0.045012    0.045029    0.045060    0.045251
     0.045539    0.047928    0.113877    0.114208    0.116913    0.116948
     0.157908    0.159545    0.159984    0.159996    0.160000    0.160631
     0.161203    0.163032    0.213135    0.220127    0.226837    0.243771
     0.246812    0.249213    0.249746    0.249989    0.250039    0.258726
     0.303020    0.342727    0.342870    0.342914    0.343441    0.344129
     0.345195    0.348213    0.349311    0.349920    0.350174    0.353880
     0.375104    0.402345    0.413134    0.413442    0.443917    0.456264
     0.462580    0.464268    0.486554    0.520556    0.534490    0.955586
     0.988264

 Minimum Search - Taking Simple RFO Step
 Searching for Lamda that Minimizes Along All modes
 Value Taken    Lamda =  -0.00001102
 Step Taken.  Stepsize is  0.017982

                             Maximum     Tolerance    Cnvgd?
         Gradient           0.000556      0.000300      NO
         Displacement       0.008502      0.001200      NO
         Energy change     -0.000018      0.000001      NO


 New Cartesian Coordinates Obtained by Inverse Iteration

 Displacement from previous Coordinates is:  0.040985
 Adding empirical dispersion correction 
 ----------------------------------------------------------------
 Doing -D3(op) with
 s6 =   1.00000
 s8 =   0.78311
 a1 =   0.30000
 a2 =   4.25000
 n  =  10.00000
 -D3 energy without 3body term =     -0.0234532707 hartrees
 ----------------------------------------------------------------
             Standard Nuclear Orientation (Angstroms)
    I     Atom           X                Y                Z
 ----------------------------------------------------------------
    1      C      -0.0516291687    -0.9137786147    -0.0373521785
    2      C      -1.1703996009    -0.0334008703    -0.0481993800
    3      C       1.3676057339    -0.3669278351    -0.2620433768
    4      C      -1.0011643269     1.4964800237    -0.1523101955
    5      O       2.3155905443    -1.2524008787     0.3482242766
    6      O       1.6837801657     0.6632865368    -0.9019720252
    7      O      -0.0433970197     1.9249728962     0.8228216577
    8      O      -1.6270593594     2.2689427516    -0.9133001187
    9      C       0.1741078954     3.3847350715     0.7031999087
   10      C       3.6900260875    -0.7585679298     0.1055965243
   11      C      -0.2640105023    -2.3077552486     0.0904624024
   12      C      -1.5688371066    -2.8264039011     0.1962790215
   13      C      -2.6775859387    -1.9555107510     0.1628051757
   14      C      -2.4774317599    -0.5664970735     0.0404126060
   15      H       0.5467989630     3.6562750610    -0.3053670366
   16      H       3.9373328340    -0.7531655917    -0.9758708923
   17      H      -3.6973608159    -2.3578394629     0.2349427481
   18      H      -0.7567324697     3.9543859725     0.9030447876
   19      H       0.9358314906     3.6417899643     1.4619564517
   20      H       4.3622207912    -1.4583826144     0.6353015229
   21      H       3.8309828127     0.2668039742     0.5040772222
   22      H      -1.7219576038    -3.9098287907     0.2940547037
   23      H      -3.3370202905     0.1178772822     0.0193585832
   24      H       0.6061435952    -2.9783324501     0.0975052097
 ----------------------------------------------------------------
 Molecular Point Group                 C1    NOp =  1
 Largest Abelian Subgroup              C1    NOp =  1
 Nuclear Repulsion Energy =   870.3341515069 hartrees
 There are       51 alpha and       51 beta electrons
 Applying Cartesian multipole field
    Component          Value
    ---------          -----
     (2,0,0)        1.00000E-11
     (0,2,0)        2.00000E-11
     (0,0,2)       -3.00000E-10
 Nucleus-field energy     =     0.0000000083 hartrees
 Requested basis set is STO-3G
 There are 38 shells and 80 basis functions
 A cutoff of  1.0D-12 yielded    629 shell pairs
 There are      3146 function pairs
 Smallest overlap matrix eigenvalue = 1.81E-01
 Guess MOs from SCF MO coefficient file
 Reading MOs from coefficient file
 Reading MOs from coefficient file
 A restricted hybrid HF-DFT SCF calculation will be
 performed using Pulay DIIS extrapolation
 Exchange:     0.2000 Hartree-Fock + 0.0800 Slater + 0.7200 B88
 Correlation:  0.1900 VWN1RPA + 0.8100 LYP
 Using SG-1 standard quadrature grid
 Dispersion:   Grimme D3
 SCF converges when DIIS error is below 1.0E-08
 Geometry optimization detected.  Setting ReadMinima to 0
 Setting SaveMinima to 0
 -------------------------------------------------------
 OpenMP Integral computing Module                
 Release: version 1.0, May 2013, Q-Chem Inc. Pittsburgh 
 -------------------------------------------------------
 -------------------------------------------------------
 OpenMP BLAS3 based DFT computing Module                
 Release: version 1.0, May 2013, Q-Chem Inc. Pittsburgh 
 -------------------------------------------------------
 ---------------------------------------
  Cycle       Energy         DIIS Error
 ---------------------------------------
    1    -679.0976131075      2.85E-04
    2    -679.0969551439      2.42E-05
    3    -679.0969537290      4.84E-05
    4    -679.0969559441      7.40E-06
    5    -679.0969559745      4.65E-06
    6    -679.0969559962      6.53E-07
    7    -679.0969559966      3.24E-07
    8    -679.0969559967      1.29E-07
    9    -679.0969559967      5.41E-08
   10    -679.0969559967      1.04E-08
   11    -679.0969559967      2.78E-09 Convergence criterion met
 ---------------------------------------
 SCF time:  CPU 35.73 s  wall 1.51 s
 SCF   energy in the final basis set = -679.0969559967
 Total energy in the final basis set = -679.0969559967
 
 --------------------------------------------------------------
 
                    Orbital Energies (a.u.)
 --------------------------------------------------------------
 
 Alpha MOs
 -- Occupied --
-18.937 -18.933 -18.876 -18.875 -10.105 -10.103 -10.066 -10.061
-10.033 -10.032 -10.021 -10.021 -10.021 -10.020  -1.013  -1.007
 -0.938  -0.933  -0.816  -0.724  -0.717  -0.666  -0.658  -0.589
 -0.577  -0.523  -0.496  -0.462  -0.443  -0.419  -0.417  -0.412
 -0.406  -0.399  -0.375  -0.367  -0.357  -0.349  -0.334  -0.319
 -0.317  -0.305  -0.292  -0.260  -0.253  -0.204  -0.200  -0.181
 -0.172  -0.156  -0.152
 -- Virtual --
  0.040   0.064   0.118   0.133   0.236   0.248   0.271   0.317
  0.338   0.351   0.376   0.390   0.416   0.421   0.427   0.430
  0.434   0.436   0.440   0.444   0.450   0.535   0.545   0.565
  0.577   0.645   0.649   0.746   0.772
 --------------------------------------------------------------
 
          Ground-State Mulliken Net Atomic Charges

     Atom                 Charge (a.u.)
  ----------------------------------------
      1 C                    -0.014020
      2 C                    -0.011450
      3 C                     0.210445
      4 C                     0.213135
      5 O                    -0.167419
      6 O                    -0.209028
      7 O                    -0.165193
      8 O                    -0.207226
      9 C                    -0.127288
     10 C                    -0.127766
     11 C                    -0.071342
     12 C                    -0.074428
     13 C                    -0.072802
     14 C                    -0.071624
     15 H                     0.093330
     16 H                     0.088922
     17 H                     0.085651
     18 H                     0.088069
     19 H                     0.090033
     20 H                     0.090964
     21 H                     0.090939
     22 H                     0.085178
     23 H                     0.089449
     24 H                     0.093472
  ----------------------------------------
  Sum of atomic charges =     0.000000

 -----------------------------------------------------------------
                    Cartesian Multipole Moments
 -----------------------------------------------------------------
    Charge (ESU x 10^10)
                -0.0000
    Dipole Moment (Debye)
         X       0.8182      Y      -1.0035      Z       1.0745
       Tot       1.6825
[...]
 C         -0.094  0.005  0.006    0.020 -0.003  0.003   -0.003 -0.030 -0.043
 C         -0.010 -0.018  0.003    0.017 -0.084  0.008   -0.002 -0.002  0.000
 C         -0.009  0.007 -0.000   -0.139  0.001  0.006   -0.000  0.001 -0.000
 C          0.006  0.016 -0.002    0.020  0.137 -0.014    0.001  0.001 -0.000
 C          0.002 -0.015  0.001    0.066 -0.045  0.002   -0.001 -0.002  0.000
 H          0.018  0.052  0.022    0.083  0.208  0.092    0.111  0.117  0.100
 H          0.491 -0.096  0.114   -0.082  0.042 -0.018   -0.331  0.301 -0.096
 H          0.021 -0.035  0.002    0.186 -0.477  0.042    0.001 -0.000 -0.000
 H          0.033  0.037 -0.005    0.171  0.188  0.049   -0.059 -0.060 -0.148
 H          0.020  0.051 -0.026    0.043  0.284 -0.097    0.207 -0.074 -0.135
 H          0.571  0.249 -0.225   -0.125 -0.071  0.028    0.039  0.376  0.560
 H          0.474 -0.173 -0.013   -0.102  0.055 -0.038    0.342 -0.220  0.185
 H          0.078 -0.016 -0.002    0.535 -0.193 -0.008    0.004 -0.000  0.000
 H          0.040  0.018 -0.002    0.015 -0.117  0.009    0.006  0.005 -0.001
 H          0.064  0.052 -0.012    0.203  0.076 -0.020    0.006  0.006 -0.001
 TransDip   0.138  0.033 -0.015    0.045  0.077  0.014    0.034  0.040  0.053

 Mode:                49                     50                     51
 Frequency:      1483.72                1496.32                1496.93
 Force Cnst:      1.3577                 1.3804                 1.3833
 Red. Mass:       1.0467                 1.0464                 1.0477
 IR Active:          YES                    YES                    YES
 IR Intens:       13.290                 16.467                  3.752
 Raman Active:       YES                    YES                    YES
               X      Y      Z        X      Y      Z        X      Y      Z
 C          0.000 -0.005  0.000   -0.004  0.003 -0.000    0.002  0.004 -0.001
 C          0.004  0.002 -0.001    0.001 -0.005  0.000   -0.002 -0.003  0.000
 C         -0.001  0.001  0.000   -0.002  0.000 -0.001   -0.005  0.004 -0.003
 C          0.001  0.003  0.002   -0.002  0.002 -0.001    0.003  0.001  0.002
 O          0.001  0.002  0.004    0.002  0.009 -0.006    0.004  0.011 -0.008
 O          0.000  0.000 -0.001    0.001 -0.003  0.002    0.001 -0.006  0.004
 O         -0.010 -0.002  0.007   -0.008  0.004 -0.011    0.005 -0.004  0.008
 O         -0.000 -0.000 -0.000    0.004 -0.002  0.004   -0.003  0.001 -0.004
 C         -0.042  0.004  0.031   -0.021  0.019 -0.030    0.015 -0.016  0.024
 C          0.004  0.011  0.017    0.010  0.026 -0.018    0.014  0.033 -0.025
 C         -0.003  0.002  0.000    0.005  0.003 -0.000    0.003 -0.001  0.000
 C          0.006  0.001 -0.000   -0.001 -0.003  0.000   -0.005 -0.001  0.000
 C         -0.000 -0.005  0.000   -0.002  0.002 -0.000    0.001  0.004 -0.000
 C         -0.004  0.000  0.000    0.004  0.004 -0.000    0.002 -0.001  0.000
 H          0.258  0.314  0.240    0.396 -0.306  0.211   -0.299  0.251 -0.156
 H          0.121 -0.103  0.035   -0.159 -0.385 -0.026   -0.222 -0.486 -0.038
 H         -0.007  0.021 -0.002    0.001 -0.012  0.001    0.006 -0.016  0.001
 H         -0.146 -0.147 -0.409   -0.177 -0.182  0.425    0.138  0.142 -0.339
 H          0.523 -0.214 -0.334    0.127  0.210 -0.147   -0.085 -0.162  0.103
 H         -0.035 -0.155 -0.211    0.142  0.064 -0.062    0.177  0.091 -0.059
 H         -0.142  0.094 -0.084   -0.130 -0.104  0.378   -0.163 -0.139  0.495
 H         -0.019  0.008  0.000   -0.004 -0.003  0.000    0.013 -0.007  0.000
 H          0.004  0.009 -0.001   -0.014 -0.014  0.002   -0.001 -0.005 -0.000
 H         -0.002  0.004 -0.000   -0.014 -0.016  0.001   -0.003 -0.007 -0.000
 TransDip   0.045 -0.047 -0.097    0.094 -0.036  0.082    0.016 -0.059 -0.009

 Mode:                52                     53                     54
 Frequency:      1516.73                1612.84                1636.83
 Force Cnst:      3.5909                 9.6731                 9.0494
 Red. Mass:       2.6494                 6.3115                 5.7327
 IR Active:          YES                    YES                    YES
 IR Intens:       12.436                 12.084                  6.622
 Raman Active:       YES                    YES                    YES
               X      Y      Z        X      Y      Z        X      Y      Z
 C          0.176 -0.062 -0.005    0.160 -0.254  0.018   -0.113 -0.177  0.027
 C         -0.038  0.176 -0.011   -0.247  0.154 -0.007    0.184  0.134 -0.014
 C         -0.056  0.022 -0.000   -0.047 -0.000  0.021   -0.001 -0.008  0.013
 C         -0.017 -0.036 -0.028    0.005  0.003 -0.033   -0.026 -0.028 -0.003
 O          0.003 -0.002  0.001   -0.005 -0.002 -0.000   -0.002 -0.003  0.001
 O          0.004 -0.006  0.002    0.017  0.018 -0.017    0.012  0.020 -0.015
 O          0.005  0.008  0.004    0.002  0.006  0.003    0.001 -0.001  0.000
 O          0.008 -0.012  0.016    0.008 -0.021  0.023    0.005  0.002  0.000
 C          0.006  0.014  0.001    0.001  0.002  0.002    0.002  0.003  0.001
 C          0.014  0.002 -0.002    0.004  0.000 -0.001   -0.002  0.000 -0.001
 C         -0.131 -0.112  0.018   -0.096  0.125 -0.008    0.252  0.216 -0.034
 C         -0.011  0.092 -0.009    0.302 -0.186  0.005   -0.210 -0.078  0.016
 C          0.085 -0.048  0.002   -0.179  0.305 -0.024    0.087  0.202 -0.024
 C         -0.121 -0.108  0.013    0.122 -0.099  0.006   -0.236 -0.251  0.032
 H         -0.004 -0.087 -0.018   -0.012 -0.020 -0.009    0.002 -0.005 -0.001
 H         -0.060 -0.034 -0.014    0.003 -0.008 -0.001    0.014  0.001  0.002
 H          0.011  0.312 -0.033   -0.001 -0.464  0.049    0.207 -0.193  0.019
 H         -0.052 -0.054  0.026   -0.006 -0.003 -0.000   -0.009 -0.009 -0.002
 H         -0.013 -0.046  0.024   -0.006 -0.009  0.008    0.005 -0.005  0.001
 H         -0.043 -0.028  0.007    0.002 -0.003 -0.003   -0.001  0.000 -0.002
 H         -0.067  0.013  0.035   -0.007  0.001  0.006    0.004 -0.001 -0.003
 H          0.221  0.047 -0.014   -0.472  0.013  0.022    0.200 -0.209  0.015
 H          0.413  0.409 -0.040    0.059 -0.184  0.012    0.352  0.306 -0.032
 H          0.401  0.408 -0.065   -0.186  0.063  0.009   -0.289 -0.317  0.054
 TransDip  -0.105  0.008 -0.041   -0.109 -0.024 -0.006    0.051 -0.064  0.003

 Mode:                55                     56                     57
 Frequency:      1773.13                1783.33                3050.25
 Force Cnst:     21.8527                22.2626                 5.6435
 Red. Mass:      11.7971                11.8812                 1.0295
 IR Active:          YES                    YES                    YES
 IR Intens:      249.830                303.620                 27.388
 Raman Active:       YES                    YES                    YES
               X      Y      Z        X      Y      Z        X      Y      Z
 C         -0.056 -0.084  0.026   -0.022 -0.002  0.004    0.000 -0.000  0.000
 C         -0.005  0.033 -0.006    0.025 -0.087  0.022   -0.000  0.000 -0.000
 C          0.296  0.608 -0.404    0.022  0.023 -0.018   -0.001  0.002 -0.001
 C          0.029 -0.012  0.026   -0.303  0.530 -0.500    0.001  0.000  0.001
 O         -0.006 -0.044  0.028   -0.002 -0.002  0.001    0.003 -0.000  0.000
 O         -0.169 -0.389  0.265   -0.008 -0.017  0.014   -0.000 -0.001  0.000
 O         -0.009 -0.001 -0.004    0.030 -0.020  0.040   -0.001 -0.001 -0.000
 O         -0.011  0.009 -0.013    0.202 -0.322  0.334   -0.000  0.000 -0.000
 C         -0.001 -0.001 -0.002    0.004  0.031 -0.006   -0.004 -0.017  0.006
 C          0.030  0.010 -0.010    0.002  0.001 -0.001    0.035  0.013 -0.014
 C         -0.013  0.019  0.001    0.010  0.009 -0.003    0.000 -0.000  0.000
 C          0.024 -0.011 -0.001   -0.012  0.003  0.001    0.000  0.000 -0.000
 C         -0.008  0.015 -0.001    0.014 -0.007 -0.002    0.000 -0.000  0.000
 C          0.005 -0.015  0.001   -0.017  0.008 -0.004    0.000 -0.000 -0.000
 H          0.011 -0.027  0.003   -0.062 -0.097 -0.087    0.145  0.024 -0.222
 H         -0.125  0.059 -0.061   -0.006  0.003 -0.004   -0.102  0.025  0.581
 H          0.001 -0.019  0.004    0.002  0.037 -0.005   -0.000 -0.000  0.000
 H          0.002 -0.004  0.021   -0.114 -0.078 -0.077   -0.197  0.162  0.000
 H         -0.002  0.013 -0.003   -0.035 -0.225  0.055    0.104  0.022  0.149
 H         -0.217 -0.079  0.072   -0.010 -0.003  0.005   -0.181  0.305 -0.193
 H         -0.122  0.086 -0.017   -0.004  0.003 -0.000   -0.160 -0.495 -0.214
 H         -0.027  0.002 -0.000    0.011 -0.003  0.004   -0.000 -0.001  0.000
 H          0.035  0.015 -0.005    0.006  0.048  0.014    0.000  0.000 -0.000
 H         -0.045  0.002  0.004   -0.005 -0.006 -0.003   -0.002  0.001 -0.000
 TransDip   0.159  0.410 -0.250   -0.234  0.318 -0.394    0.145 -0.081 -0.024

 Mode:                58                     59                     60
 Frequency:      3050.57                3123.68                3125.76
 Force Cnst:      5.6439                 6.3648                 6.3737
 Red. Mass:       1.0294                 1.1071                 1.1072
 IR Active:          YES                    YES                    YES
 IR Intens:       41.979                 17.438                 14.291
 Raman Active:       YES                    YES                    YES
               X      Y      Z        X      Y      Z        X      Y      Z
 C          0.000 -0.000  0.000    0.000 -0.000 -0.000   -0.000 -0.000  0.000
 C          0.000  0.000  0.000    0.000  0.000  0.000    0.000 -0.000 -0.000
 C         -0.000  0.001 -0.001    0.000  0.000  0.000    0.000  0.000 -0.000
 C         -0.002 -0.000 -0.002   -0.000 -0.000 -0.000   -0.000 -0.000  0.000
 O          0.001 -0.000  0.000   -0.000  0.000  0.000    0.000 -0.000  0.000
 O         -0.000 -0.000  0.000    0.000  0.000  0.000   -0.000 -0.000  0.000
 O          0.001  0.002  0.001    0.000  0.000  0.000   -0.000  0.000  0.000
 O          0.000 -0.001  0.001    0.000  0.000  0.000   -0.000  0.000  0.000
 C          0.009  0.037 -0.013    0.001 -0.001 -0.001    0.075 -0.032 -0.049
 C          0.016  0.006 -0.006   -0.008 -0.052 -0.079    0.000  0.001  0.001
 C          0.000 -0.000  0.000   -0.000  0.000  0.000    0.000  0.000  0.000
 C          0.000  0.000 -0.000    0.000 -0.000  0.000   -0.000 -0.000  0.000
 C          0.000  0.000 -0.000   -0.000  0.000  0.000    0.000 -0.000  0.000
 C          0.000 -0.000 -0.000   -0.000 -0.000  0.000   -0.000  0.000  0.000
 H         -0.322 -0.053  0.491   -0.005 -0.001  0.009   -0.366 -0.070  0.586
 H         -0.046  0.011  0.263   -0.120  0.011  0.682    0.002 -0.000 -0.012
 H         -0.001 -0.000  0.000    0.000  0.000 -0.000   -0.000 -0.000 -0.000
 H          0.435 -0.358 -0.000   -0.009  0.008 -0.000   -0.548  0.454 -0.017
 H         -0.230 -0.049 -0.329   -0.001 -0.000 -0.001    0.029 -0.003  0.012
 H         -0.082  0.138 -0.087    0.009 -0.028 -0.004   -0.001  0.002 -0.001
 H         -0.072 -0.224 -0.097    0.202  0.636  0.254   -0.003 -0.009 -0.004
 H         -0.000 -0.001  0.000    0.000  0.000 -0.000    0.000  0.000 -0.000
 H         -0.001  0.001  0.000   -0.000  0.000 -0.000    0.000 -0.000 -0.000
 H         -0.001  0.000 -0.000    0.000 -0.000 -0.000   -0.000  0.000  0.000
 TransDip   0.139  0.153  0.015   -0.012 -0.072 -0.112    0.085 -0.054 -0.067

 Mode:                61                     62                     63
 Frequency:      3157.69                3157.99                3173.22
 Force Cnst:      6.4991                 6.5001                 6.4470
 Red. Mass:       1.1063                 1.1062                 1.0867
 IR Active:          YES                    YES                    YES
 IR Intens:       13.587                 13.151                  1.656
 Raman Active:       YES                    YES                    YES
               X      Y      Z        X      Y      Z        X      Y      Z
 C          0.000  0.000 -0.000    0.000 -0.000 -0.000    0.000  0.000 -0.000
 C         -0.000 -0.000 -0.000    0.000 -0.000  0.000   -0.000 -0.000  0.000
 C         -0.001 -0.001  0.000   -0.000  0.000 -0.000   -0.000 -0.000  0.000
 C         -0.000  0.000 -0.000    0.000  0.001 -0.000    0.000 -0.000  0.000
 O         -0.000  0.000 -0.000    0.000 -0.000  0.000    0.000  0.000 -0.000
 O          0.000  0.000 -0.000    0.000 -0.000  0.000    0.000  0.000 -0.000
 O          0.000 -0.000 -0.000    0.000 -0.000  0.000   -0.000 -0.000 -0.000
 O          0.000 -0.000  0.000    0.000 -0.000  0.000   -0.000  0.000 -0.000
 C          0.000  0.000  0.000   -0.049  0.009 -0.080    0.000 -0.000  0.000
 C          0.022 -0.078  0.049    0.000 -0.000  0.000   -0.000  0.000 -0.000
 C          0.000 -0.000  0.000    0.000 -0.000  0.000    0.008 -0.010  0.000
 C          0.000  0.000 -0.000    0.000  0.000 -0.000    0.016  0.055 -0.006
 C         -0.000 -0.000  0.000   -0.000 -0.000  0.000   -0.055 -0.015  0.003
 C          0.000 -0.000  0.000    0.000 -0.000  0.000    0.015 -0.013  0.001
 H          0.001  0.000 -0.002   -0.172 -0.022  0.236    0.000 -0.000 -0.000
 H          0.053 -0.027 -0.289    0.000 -0.000  0.000   -0.000  0.000  0.001
 H          0.001  0.000 -0.000    0.002  0.000 -0.000    0.654  0.163 -0.040
 H          0.000 -0.000  0.000    0.244 -0.203 -0.015   -0.001  0.001  0.000
 H         -0.002 -0.000 -0.003    0.509  0.108  0.730   -0.001 -0.000 -0.002
 H         -0.403  0.678 -0.428   -0.001  0.002 -0.001    0.002 -0.003  0.002
 H          0.093  0.270  0.132    0.001  0.002  0.001   -0.000 -0.001 -0.000
 H         -0.001 -0.003  0.000   -0.000 -0.000  0.000   -0.180 -0.647  0.071
 H         -0.000  0.001 -0.000   -0.001  0.001 -0.000   -0.168  0.172 -0.011
 H         -0.003  0.003 -0.000   -0.000  0.000 -0.000   -0.106  0.110 -0.004
 TransDip   0.054 -0.089  0.055   -0.067 -0.014 -0.094   -0.026  0.032 -0.006

 Mode:                64                     65                     66
 Frequency:      3186.95                3199.04                3210.07
 Force Cnst:      6.5314                 6.6019                 6.6408
 Red. Mass:       1.0914                 1.0949                 1.0938
 IR Active:          YES                    YES                    YES
 IR Intens:        8.798                  7.019                  3.743
 Raman Active:       YES                    YES                    YES
               X      Y      Z        X      Y      Z        X      Y      Z
 C         -0.000  0.000  0.000   -0.000  0.001 -0.000    0.001  0.003 -0.000
 C         -0.001 -0.001  0.000   -0.003 -0.001  0.000   -0.000  0.001 -0.000
 C         -0.000  0.000 -0.000   -0.000 -0.000  0.000    0.001 -0.001  0.000
 C          0.000 -0.000  0.000    0.000 -0.001  0.000    0.000  0.000 -0.000
 O         -0.000 -0.000  0.000    0.000  0.000 -0.000    0.000  0.000 -0.000
 O          0.000 -0.000  0.000    0.000  0.000 -0.000   -0.000  0.000  0.000
 O         -0.000  0.000 -0.000    0.000  0.000  0.000   -0.000 -0.000 -0.000
 O         -0.000  0.000 -0.000   -0.000  0.000 -0.000    0.000 -0.000  0.000
 C          0.000  0.000  0.000    0.000 -0.000  0.000    0.000  0.000  0.000
 C          0.000 -0.000  0.000   -0.000  0.000 -0.000   -0.000  0.000 -0.000
 C         -0.011  0.014 -0.001    0.011 -0.012  0.000    0.059 -0.059  0.002
 C         -0.013 -0.056  0.006    0.001  0.014 -0.001   -0.009 -0.025  0.003
 C         -0.046 -0.008  0.002    0.043  0.013 -0.003   -0.011 -0.002  0.001
 C          0.030 -0.028  0.002    0.050 -0.054  0.004   -0.006  0.007 -0.000
 H          0.000  0.000 -0.000    0.000  0.000 -0.000   -0.000 -0.000  0.000
 H         -0.000 -0.000 -0.000    0.000  0.000 -0.000   -0.000  0.000  0.000
 H          0.517  0.124 -0.031   -0.473 -0.120  0.029    0.109  0.026 -0.006
 H         -0.000  0.000  0.000   -0.001  0.001  0.000    0.000 -0.000  0.000
 H         -0.001 -0.000 -0.001   -0.000  0.000 -0.000   -0.000 -0.000 -0.001
 H         -0.001  0.002 -0.001    0.001 -0.001  0.001    0.001 -0.002  0.002
 H         -0.000 -0.000 -0.000    0.000  0.000  0.000    0.000  0.000  0.000
 H          0.170  0.628 -0.069   -0.037 -0.145  0.016    0.079  0.277 -0.030
 H         -0.337  0.345 -0.023   -0.576  0.600 -0.040    0.067 -0.070  0.005
 H          0.151 -0.157  0.006   -0.134  0.137 -0.005   -0.661  0.670 -0.025
 TransDip  -0.055 -0.077  0.009    0.084  0.009 -0.007   -0.016 -0.060  0.003

 STANDARD THERMODYNAMIC QUANTITIES AT   298.15 K  AND     1.00 ATM

   This Molecule has  0 Imaginary Frequencies
   Zero point vibrational energy:      116.119 kcal/mol

   Atom    1 Element C  Has Mass   12.00000
   Atom    2 Element C  Has Mass   12.00000
   Atom    3 Element C  Has Mass   12.00000
   Atom    4 Element C  Has Mass   12.00000
   Atom    5 Element O  Has Mass   15.99491
   Atom    6 Element O  Has Mass   15.99491
   Atom    7 Element O  Has Mass   15.99491
   Atom    8 Element O  Has Mass   15.99491
   Atom    9 Element C  Has Mass   12.00000
   Atom   10 Element C  Has Mass   12.00000
   Atom   11 Element C  Has Mass   12.00000
   Atom   12 Element C  Has Mass   12.00000
   Atom   13 Element C  Has Mass   12.00000
   Atom   14 Element C  Has Mass   12.00000
   Atom   15 Element H  Has Mass    1.00783
   Atom   16 Element H  Has Mass    1.00783
   Atom   17 Element H  Has Mass    1.00783
   Atom   18 Element H  Has Mass    1.00783
   Atom   19 Element H  Has Mass    1.00783
   Atom   20 Element H  Has Mass    1.00783
   Atom   21 Element H  Has Mass    1.00783
   Atom   22 Element H  Has Mass    1.00783
   Atom   23 Element H  Has Mass    1.00783
   Atom   24 Element H  Has Mass    1.00783
   Molecular Mass:   194.057940 amu
   Principal axes and moments of inertia in amu*Bohr^2:
                             1           2           3
    Eigenvalues --     2393.57259  2463.10989  4475.09675
          X               0.96890     0.24744     0.00045
          Y              -0.24744     0.96886     0.00976
          Z               0.00198    -0.00957     0.99995
   Rotational Symmetry Number is   1
   The Molecule is an Asymmetric Top
   Translational Enthalpy:        0.889 kcal/mol
   Rotational Enthalpy:           0.889 kcal/mol
   Vibrational Enthalpy:        122.810 kcal/mol
   gas constant (RT):             0.592 kcal/mol
   Translational Entropy:        41.694  cal/mol.K
   Rotational Entropy:           31.645  cal/mol.K
   Vibrational Entropy:          44.256  cal/mol.K

   Total Enthalpy:              125.180 kcal/mol
   Total Entropy:               117.595  cal/mol.K
Archival summary:
1\1\nid04365\FREQ\ProcedureUnspecified\BasisUnspecified\41010\junteng\WedOct419:26:402017WedOct419:26:402017\0\\#,FREQ,ProcedureUnspecified,BasisUnspecified,\\0,1\O\C,1,1.34408\O,2,1.20637,1,124.528\C,1,1.43943,2,115.864,3,-9.89117,0\H,4,1.08759,1,105.428,2,177.009,0\H,4,1.0906,1,110.669,2,57.1394,0\H,4,1.09127,1,109.533,2,-63.9055,0\C,2,1.49903,1,111.236,3,-176.29,0\C,8,1.39522,2,117.316,1,125.24,0\H,9,1.08321,8,118.865,2,1.98049,0\C,9,1.39284,8,120.588,2,-177.628,0\H,11,1.08399,9,119.87,8,179.618,0\C,11,1.39293,9,119.881,8,-0.344429,0\H,13,1.08399,11,120.27,9,-179.874,0\C,13,1.39197,11,119.914,9,-0.563139,0\H,15,1.08196,13,120.245,11,-178.535,0\C,15,1.39927,13,120.653,11,0.374732,0\C,17,1.49364,15,119.901,13,-173.506,0\O,18,1.20832,17,124.787,15,148.659,0\O,18,1.34962,17,111.811,15,-29.1816,0\C,20,1.43905,18,115.953,17,176.549,0\H,21,1.08772,20,105.358,18,-179.74,0\H,21,1.0908,20,110.414,18,60.7766,0\H,21,1.09108,20,110.426,18,-60.1444,0\\\@

 Total job time:  4104.37s(wall), 20284.08s(cpu) 
 Wed Oct  4 19:26:40 2017

        *************************************************************
        *                                                           *
        *  Thank you very much for using Q-Chem.  Have a nice day.  *
        *                                                           *
        *************************************************************


