nid04577 10.128.18
Q-Chem Developer Version! Running on 10.128.18.*
                  Welcome to Q-Chem
     A Quantum Leap Into The Future Of Chemistry


 Q-Chem 5.0, Q-Chem, Inc., Pleasanton, CA (2017)

 Yihan Shao,  Zhengting Gan,  E. Epifanovsky,  A. T. B. Gilbert,  M. Wormit,  
 J. Kussmann,  A. W. Lange,  A. Behn,  Jia Deng,  Xintian Feng,  D. Ghosh,  
 M. Goldey,  P. R. Horn,  L. D. Jacobson,  I. Kaliman,  T. Kus,  A. Landau,  
 Jie Liu,  E. I. Proynov,  R. M. Richard,  R. P. Steele,  E. J. Sundstrom,  
 H. L. Woodcock III,  P. M. Zimmerman,  D. Zuev,  B. Albrecht,  E. Alguire,  
 S. A. Baeppler,  Z. Benda,  Y. A. Bernard,  E. J. Berquist,  K. B. Bravaya,  
 D. Casanova,  Chun-Min Chang,  Yunqing Chen,  A. Chien,  K. D. Closser,  
 M. P. Coons,  S. Dasgupta,  M. Diedenhofen,  Hainam Do,  R. G. Edgar,  
 Po-Tung Fang,  S. Fatehi,  Qingguo Feng,  Qinghui Ge,  A. Ghysels,  
 J. Gomes,  J. Gonthier,  A. Gunina,  M. W. D. Hanson-Heine,  
 P. H. P. Harbach,  A. W. Hauser,  J. E. Herr,  E. G. Hohenstein,  
 Z. C. Holden,  Kerwin Hui,  T.-C. Jagau,  Hyunjun Ji,  B. Kaduk,  
 K. Khistyaev,  Jaehoon Kim,  P. Klunzinger,  K. Koh,  D. Kosenkov,  
 T. Kowalczyk,  C. M. Krauter,  A. Kunitsa,  Ka Un Lao,  A. Laurent,  
 K. V. Lawler,  Joonho Lee,  D. Lefrancois,  S. Lehtola,  D. S. Levine,  
 Yi-Pei Li,  You-Sheng Lin,  Fenglai Liu,  E. Livshits,  A. Luenser,  
 P. Manohar,  E. Mansoor,  S. F. Manzer,  Shan-Ping Mao,  Yuezhi Mao,  
 N. Mardirossian,  A. V. Marenich,  L. A. Martinez-Martinez,  S. A. Maurer,  
 N. J. Mayhall,  S. C. McKenzie,  J.-M. Mewes,  A. F. Morrison,  K. Nanda,  
 T. S. Nguyen-Beck,  R. Olivares-Amaya,  J. A. Parkhill,  T. M. Perrine,  
 F. Plasser,  S. Prager,  A. Prociuk,  D. R. Rehn,  F. Rob,  M. Schneider,  
 N. Sergueev,  S. M. Sharada,  S. Sharma,  D. W. Small,  T. Stauch,  
 T. Stein,  Yu-Chuan Su,  A. J. W. Thom,  T. Tsuchimochi,  L. Vogt,  
 O. Vydrov,  M. A. Watson,  J. Wenzel,  M. de Wergifosse,  T. A. Wesolowski,  
 A. White,  J. Witte,  A. Yamada,  Jun Yang,  K. Yao,  S. Yeganeh,  
 S. R. Yost,  Zhi-Qiang You,  A. Zech,  Igor Ying Zhang,  Xing Zhang,  
 Yan Zhao,  Ying Zhu,  B. R. Brooks,  G. K. L. Chan,  C. J. Cramer,  
 M. S. Gordon,  W. J. Hehre,  A. Klamt,  M. W. Schmidt,  C. D. Sherrill,  
 D. G. Truhlar,  A. Aspuru-Guzik,  R. Baer,  A. T. Bell,  N. A. Besley,  
 Jeng-Da Chai,  A. Dreuw,  B. D. Dunietz,  T. R. Furlani,  Chao-Ping Hsu,  
 Yousung Jung,  Jing Kong,  D. S. Lambrecht,  WanZhen Liang,  C. Ochsenfeld,  
 V. A. Rassolov,  L. V. Slipchenko,  J. E. Subotnik,  T. Van Voorhis,  
 J. M. Herbert,  A. I. Krylov,  P. M. W. Gill,  M. Head-Gordon

 Contributors to earlier versions of Q-Chem not listed above: 
 R. D. Adamson,  B. Austin,  J. Baker,  G. J. O. Beran,  K. Brandhorst,  
 S. T. Brown,  E. F. C. Byrd,  A. K. Chakraborty,  C.-L. Cheng,  
 Siu Hung Chien,  D. M. Chipman,  D. L. Crittenden,  H. Dachsel,  
 R. A. DiStasio Jr.,  R. J. Doerksen,  A. D. Dutoi,  L. Fusti-Molnar,  
 W. A. Goddard III,  A. Golubeva-Zadorozhnaya,  S. R. Gwaltney,  G. Hawkins,  
 A. Heyden,  S. Hirata,  G. Kedziora,  F. J. Keil,  C. Kelley,  Jihan Kim,  
 R. A. King,  R. Z. Khaliullin,  P. P. Korambath,  W. Kurlancheek,  
 A. M. Lee,  M. S. Lee,  S. V. Levchenko,  Ching Yeh Lin,  D. Liotard,  
 R. C. Lochan,  I. Lotan,  P. E. Maslen,  N. Nair,  D. P. O'Neill,  
 D. Neuhauser,  E. Neuscamman,  C. M. Oana,  R. Olson,  B. Peters,  
 R. Peverati,  P. A. Pieniazek,  Y. M. Rhee,  J. Ritchie,  M. A. Rohrdanz,  
 E. Rosta,  N. J. Russ,  H. F. Schaefer III,  N. E. Schultz,  N. Shenvi,  
 A. C. Simmonett,  A. Sodt,  D. Stuck,  K. S. Thanthiriwatte,  V. Vanovschi,  
 Tao Wang,  A. Warshel,  C. F. Williams,  Q. Wu,  X. Xu,  W. Zhang

 Please cite Q-Chem as follows:
 Y. Shao et al., Mol. Phys. 113, 184-215 (2015)
 DOI: 10.1080/00268976.2014.952696

 Q-Chem 5.0.0 for Intel X86 EM64T Linux

 Parts of Q-Chem use Armadillo 5.200.1 (Boston Tea Smuggler).
 http://arma.sourceforge.net/

 Q-Chem begins on Wed Oct  4 17:29:54 2017  

Host: nid04577
0

     Scratch files written to /global/cscratch1/sd/junteng/scratch/13/opt_1001-+.save//

Checking the input file for inconsistencies... 	...done.

--------------------------------------------------------------
User input:
--------------------------------------------------------------
$molecule
0  1
C    0.656  -1.997   0.550
C   -0.379  -2.055   1.685
C    1.075  -0.633   0.035
C   -0.743  -0.756   2.367
O    2.254  -0.766  -0.643
O    0.466   0.414   0.178
O    0.380  -0.211   2.923
O   -1.879  -0.339   2.537
C    0.159   1.039   3.578
C    2.798   0.433  -1.203
C   -0.074  -2.721  -0.584
C   -0.239  -4.209  -0.268
C   -1.341  -4.194   0.796
C   -1.585  -2.694   0.978
O   -1.425  -2.250  -0.391
H    1.566  -2.528   0.855
H   -0.041  -2.721   2.491
H   -0.505   1.690   2.999
H    2.061   1.233  -1.326
H    0.286  -2.514  -1.595
H   -0.592  -4.755  -1.150
H    0.687  -4.677   0.078
H   -2.237  -4.682   0.398
H   -1.053  -4.703   1.720
H   -2.574  -2.451   1.372
H   -0.249   0.863   4.578
H    1.124   1.543   3.677
H    3.204   0.190  -2.189
H    3.617   0.777  -0.565
$end


$opt
CONSTRAINT
tors    2    1    3    5    157.3
tors    1    2    4    7    -56.6
ENDCONSTRAINT
$end

$rem
JOBTYPE                   OPT
METHOD                    B3LYP
DFT_D                     D3_OP
BASIS                     STO-3G
GEOM_OPT_MAX_CYCLES       500
SYMMETRY                  False
THRESH                    12
SCF_CONVERGENCE           8
MAX_SUB_FILE_NUM          128
MEM_STATIC                400
MEM_TOTAL                 4000
$end

--------------------------------------------------------------
 Adding empirical dispersion correction 
 ----------------------------------------------------------------
 Doing -D3(op) with
 s6 =   1.00000
 s8 =   0.78311
 a1 =   0.30000
 a2 =   4.25000
 n  =  10.00000
 -D3 energy without 3body term =     -0.0301175666 hartrees
 ----------------------------------------------------------------
             Standard Nuclear Orientation (Angstroms)
    I     Atom           X                Y                Z
 ----------------------------------------------------------------
    1      C       0.3697342729    -0.6344652785    -0.5682185024
    2      C       0.5830892856     0.8866305416    -0.5085431759
    3      C      -0.8699014548    -1.2078766031     0.0919214188
    4      C      -0.5598235439     1.7339384151     0.0021824174
    5      O      -1.0906277378    -2.4603631032    -0.4080500553
    6      O      -1.5566019091    -0.6636803128     0.9403504869
    7      O      -1.6498149946     1.5482939899    -0.8007775971
    8      O      -0.4799332706     2.5718972711     0.8880308806
    9      C      -2.8044492191     2.2858543985    -0.3968092184
   10      C      -2.2289112229    -3.1547881210     0.1108156327
   11      C       1.5897974066    -1.1573410878     0.1940667708
   12      C       2.8778742489    -0.9023938644    -0.5914807846
   13      C       3.0736984138     0.6062805862    -0.4118163796
   14      C       1.8273869003     0.9943712392     0.3874040257
   15      O       1.7087539834    -0.1697627505     1.2404077097
   16      H       0.3688686773    -0.9646705244    -1.6141868320
   17      H       0.8207486346     1.2891342672    -1.5030002060
   18      H      -2.9457124994     2.2580152575     0.6891040690
   19      H      -2.5806906233    -2.7639184006     1.0709042303
   20      H       1.5042519872    -2.1684976679     0.6000401094
   21      H       3.7202931181    -1.4355074158    -0.1367617613
   22      H       2.8052766319    -1.2051355012    -1.6399525713
   23      H       3.9784423183     0.7875324718     0.1780566756
   24      H       3.1670514341     1.1432862684    -1.3598201301
   25      H       1.9410338999     1.9133998678     0.9660893801
   26      H      -2.7227111035     3.3187026777    -0.7489218606
   27      H      -3.6791460159     1.8248750106    -0.8631197561
   28      H      -1.9485029726    -4.2023825341     0.2522304790
   29      H      -3.0343825811    -3.1071758873    -0.6274864507
 ----------------------------------------------------------------
 Molecular Point Group                 C1    NOp =  1
 Largest Abelian Subgroup              C1    NOp =  1
 Nuclear Repulsion Energy =  1110.7745787068 hartrees
 There are       57 alpha and       57 beta electrons
 Requested basis set is STO-3G
 There are 44 shells and 89 basis functions

 Total QAlloc Memory Limit   4000 MB
 Mega-Array Size       392 MB
 MEM_STATIC part       400 MB
 A cutoff of  1.0D-12 yielded    865 shell pairs
 There are      3901 function pairs
 
 -------------------------------------------------------
 OpenMP Integral Computing Module                       
 Release: version 1.0, May 2013, Q-Chem Inc. Pittsburgh 
 -------------------------------------------------------
 Integral Job Info:
 Integral job number is                      11
 Integral operator is                         1
 short-range coefficients                     0
 long-range coefficients              100000000
 Omega coefficients                           0
 if combine SR and LR in K                    0
 Integral screening is                        0
 Integral computing path is                   2
 max size of driver memory is            800000
 size of driver memory is                 45569
 size of scratch memory is               945100
 max col of scratch BK array                289
 max len of scratch array in speh3           22
 max len of scratch index in speh4            8
 max int batch size is                      520
 min int batch size is                       52
 fixed nKL is                                52
 max L of basis functions is                  1
 order of int derivative is                   0
 number of shells is                         44
 number of basis is                          89
 number of cartesian basis is                89
 number of contracted shell pairs           865
 number of primitive shell pairs           4854
 maxK2 (contraction) of shell pair            9
 max number of K2 of shell pair               1
 max number of CS2 of shell pair            117
 max number of PS2 of shell pair            570
 mem total for path MDJ                   27818
 -------------------------------------------------------
 Smallest overlap matrix eigenvalue = 1.94E-01

 Scale SEOQF with 1.000000e-01/1.000000e-01/1.000000e-01

 Standard Electronic Orientation quadrupole field applied
 Nucleus-field energy     =     0.0000000330 hartrees
 Guess from superposition of atomic densities
 Warning:  Energy on first SCF cycle will be non-variational
 A restricted hybrid HF-DFT SCF calculation will be
 performed using Pulay DIIS extrapolation
 Exchange:     0.2000 Hartree-Fock + 0.0800 Slater + 0.7200 B88
 Correlation:  0.1900 VWN1RPA + 0.8100 LYP
 Using SG-1 standard quadrature grid
 Dispersion:   Grimme D3
 SCF converges when DIIS error is below 1.0E-08
 -------------------------------------------------------
 OpenMP Integral computing Module                
 Release: version 1.0, May 2013, Q-Chem Inc. Pittsburgh 
 -------------------------------------------------------
 -------------------------------------------------------
 OpenMP BLAS3 based DFT computing Module                
 Release: version 1.0, May 2013, Q-Chem Inc. Pittsburgh 
 -------------------------------------------------------
 ---------------------------------------
  Cycle       Energy         DIIS Error
 ---------------------------------------
    1    -755.1333775847      1.15E-01
    2    -755.4330515638      1.43E-02
    3    -754.4849215495      3.46E-02
    4    -755.6668951176      4.97E-03
    5    -755.6923795685      1.60E-03
    6    -755.6952387513      2.89E-04
    7    -755.6953280194      8.61E-05
    8    -755.6953339718      4.56E-05
    9    -755.6953363169      5.67E-06
   10    -755.6953363555      1.52E-06
   11    -755.6953363583      3.20E-07
   12    -755.6953363584      9.74E-08
   13    -755.6953363584      1.84E-08
   14    -755.6953363584      6.30E-09 Convergence criterion met
 ---------------------------------------
 SCF time:  CPU 60.74 s  wall 2.82 s
 SCF   energy in the final basis set = -755.6953363584
 Total energy in the final basis set = -755.6953363584
 
 --------------------------------------------------------------
 
                    Orbital Energies (a.u.)
 --------------------------------------------------------------
 
 Alpha MOs
 -- Occupied --
-18.943 -18.934 -18.872 -18.868 -18.859 -10.111 -10.104 -10.073
-10.066 -10.061 -10.055 -10.036 -10.033 -10.014 -10.012  -1.042
 -1.033  -0.990  -0.953  -0.945  -0.775  -0.736  -0.726  -0.683
 -0.671  -0.604  -0.551  -0.537  -0.526  -0.488  -0.473  -0.461
 -0.440  -0.428  -0.426  -0.421  -0.415  -0.386  -0.375  -0.365
 -0.353  -0.345  -0.341  -0.326  -0.314  -0.310  -0.301  -0.289
 -0.277  -0.247  -0.240  -0.219  -0.182  -0.172  -0.155  -0.144
 -0.134
 -- Virtual --
  0.113   0.127   0.251   0.273   0.299   0.310   0.345   0.356
  0.375   0.385   0.402   0.409   0.410   0.426   0.432   0.435
  0.443   0.451   0.455   0.460   0.460   0.465   0.475   0.480
  0.491   0.502   0.518   0.541   0.575   0.584   0.702   0.708
 --------------------------------------------------------------
 
          Ground-State Mulliken Net Atomic Charges

     Atom                 Charge (a.u.)
  ----------------------------------------
      1 C                    -0.082971
      2 C                    -0.085571
      3 C                     0.240451
      4 C                     0.242231
      5 O                    -0.189960
      6 O                    -0.229387
      7 O                    -0.191160
      8 O                    -0.229880
      9 C                    -0.125822
     10 C                    -0.130239
     11 C                     0.028296
     12 C                    -0.148142
     13 C                    -0.147404
     14 C                     0.027402
     15 O                    -0.209209
     16 H                     0.089321
     17 H                     0.087279
     18 H                     0.100295
     19 H                     0.102343
     20 H                     0.088273
     21 H                     0.078598
     22 H                     0.072977
     23 H                     0.078897
     24 H                     0.071806
     25 H                     0.097598
     26 H                     0.087949
     27 H                     0.092564
     28 H                     0.092952
     29 H                     0.090514
  ----------------------------------------
  Sum of atomic charges =    -0.000000

 -----------------------------------------------------------------
                    Cartesian Multipole Moments
 -----------------------------------------------------------------
    Charge (ESU x 10^10)
                 0.0000
    Dipole Moment (Debye)
         X      -0.4166      Y      -1.4010      Z      -2.3203
       Tot       2.7423
    Quadrupole Moments (Debye-Ang)
        XX     -73.2573     XY       1.4702     YY     -76.5838
        XZ      -0.8786     YZ      -4.0885     ZZ     -84.4320
    Octopole Moments (Debye-Ang^2)
       XXX     -32.0675    XXY       2.6418    XYY     -21.2123
       YYY     -18.0132    XXZ      -1.5320    XYZ       2.6868
       YYZ       0.4941    XZZ      -5.4483    YZZ      -0.5880
       ZZZ       2.8189
    Hexadecapole Moments (Debye-Ang^3)
      XXXX   -1766.3352   XXXY      -9.1296   XXYY    -491.3941
      XYYY      25.6612   YYYY   -1433.0856   XXXZ      29.3497
      XXYZ       1.9950   XYYZ       9.5677   YYYZ     -42.5702
      XXZZ    -358.3887   XYZZ       4.2414   YYZZ    -298.1186
      XZZZ      -2.0840   YZZZ       6.4186   ZZZZ    -270.9550
 -----------------------------------------------------------------
 Calculating analytic gradient of the SCF energy
 Gradient of SCF Energy
            1           2           3           4           5           6
    1   0.0021799  -0.0079730  -0.0035713  -0.0118003  -0.0264753   0.0361920
    2   0.0147913  -0.0097851  -0.0216101   0.0028776   0.0360793  -0.0275161
    3   0.0422889   0.0229121   0.0047460  -0.0042293   0.0358437  -0.0453326
            7           8           9          10          11          12
    1   0.0164333   0.0007554   0.0161062   0.0147445  -0.0138282  -0.0217591
    2   0.0367505  -0.0371405  -0.0106249   0.0095456   0.0058728   0.0198850
    3   0.0447053  -0.0455882  -0.0072183  -0.0088297  -0.0065146   0.0225080
           13          14          15          16          17          18
    1  -0.0241050  -0.0105318   0.0070337  -0.0006561  -0.0000244   0.0002217
    2  -0.0176790  -0.0004173   0.0029261   0.0044461   0.0029786  -0.0041832
    3   0.0175573  -0.0072092  -0.0670699   0.0053539   0.0078343  -0.0111811
           19          20          21          22          23          24
    1   0.0033618   0.0038078  -0.0013620   0.0001313  -0.0031001  -0.0009921
    2  -0.0087182   0.0089398   0.0060041   0.0020688  -0.0049969  -0.0034859
    3  -0.0085645  -0.0049610  -0.0006986   0.0063589  -0.0026417   0.0059499
           25          26          27          28          29
    1   0.0056966   0.0025947   0.0072903  -0.0031770   0.0128064
    2  -0.0092234  -0.0145968   0.0054778   0.0113557  -0.0000218
    3  -0.0076017  -0.0009062   0.0069966  -0.0001980   0.0056898
 Max gradient component =       6.707E-02
 RMS gradient           =       1.788E-02
 Gradient time:  CPU 24.65 s  wall 1.18 s
 Geometry Optimization Parameters
   NAtoms,    NIC,     NZ,  NCons,   NDum,   NFix, NCnnct, MaxDiis
       29     227       0       2       0       0       0       0


** CONSTRAINED OPTIMIZATION IN DELOCALIZED INTERNAL COORDINATES **
   Searching for a Minimum

   Optimization Cycle:   1

                       Coordinates (Angstroms)
     ATOM                X               Y               Z
      1  C         0.3697342729   -0.6344652785   -0.5682185024
      2  C         0.5830892856    0.8866305416   -0.5085431759
      3  C        -0.8699014548   -1.2078766031    0.0919214188
      4  C        -0.5598235439    1.7339384151    0.0021824174
      5  O        -1.0906277378   -2.4603631032   -0.4080500553
      6  O        -1.5566019091   -0.6636803128    0.9403504869
      7  O        -1.6498149946    1.5482939899   -0.8007775971
      8  O        -0.4799332706    2.5718972711    0.8880308806
      9  C        -2.8044492191    2.2858543985   -0.3968092184
     10  C        -2.2289112229   -3.1547881210    0.1108156327
     11  C         1.5897974066   -1.1573410878    0.1940667708
     12  C         2.8778742489   -0.9023938644   -0.5914807846
     13  C         3.0736984138    0.6062805862   -0.4118163796
     14  C         1.8273869003    0.9943712392    0.3874040257
     15  O         1.7087539834   -0.1697627505    1.2404077097
     16  H         0.3688686773   -0.9646705244   -1.6141868320
     17  H         0.8207486346    1.2891342672   -1.5030002060
     18  H        -2.9457124994    2.2580152575    0.6891040690
     19  H        -2.5806906233   -2.7639184006    1.0709042303
     20  H         1.5042519872   -2.1684976679    0.6000401094
     21  H         3.7202931181   -1.4355074158   -0.1367617613
     22  H         2.8052766319   -1.2051355012   -1.6399525713
     23  H         3.9784423183    0.7875324718    0.1780566756
     24  H         3.1670514341    1.1432862684   -1.3598201301
     25  H         1.9410338999    1.9133998678    0.9660893801
     26  H        -2.7227111035    3.3187026777   -0.7489218606
     27  H        -3.6791460159    1.8248750106   -0.8631197561
     28  H        -1.9485029726   -4.2023825341    0.2522304790
     29  H        -3.0343825811   -3.1071758873   -0.6274864507
   Point Group: c1    Number of degrees of freedom:    81


   Energy is   -755.695336358

              Constraints and their Current Values
                                        Value     Constraint
   Dihedral:        2   1   3   5      161.585      157.300
   Dihedral:        1   2   4   7      -59.895      -56.600

 Attempting to Generate Delocalized Internal Coordinates

   Using Lagrange Multiplier Algorithm


 83 Hessian modes will be used to form the next step
  Hessian Eigenvalues:
    -0.977753   -0.977753    0.045000    0.045000    0.045000    0.045000
     0.045004    0.045352    0.045530    0.048627    0.058814    0.061923
     0.065581    0.067904    0.070808    0.072130    0.074343    0.075916
     0.081732    0.083785    0.084157    0.085390    0.086890    0.088227
     0.091114    0.091429    0.097232    0.098159    0.112260    0.112299
     0.113404    0.116979    0.117194    0.120275    0.121575    0.138015
     0.140421    0.160000    0.160000    0.160000    0.160000    0.160000
     0.160000    0.168655    0.174257    0.246664    0.248450    0.249983
     0.250000    0.250000    0.250000    0.250000    0.257040    0.266186
     0.268519    0.290485    0.293737    0.306576    0.311874    0.329392
     0.338114    0.340326    0.341575    0.341941    0.342237    0.342787
     0.342803    0.343231    0.343866    0.343905    0.343937    0.344082
     0.344477    0.344724    0.345856    0.408772    0.412181    0.516485
     0.516574    0.945024    0.955398    1.022753    1.022753

 Minimum Search - Taking P-RFO Step
 Searching for Lamda that Maximizes Along the Constraint modes Only
 Value Taken    Lamda =   0.00458575
 Searching for Lamda that Minimizes Along All other modes
 Value Taken    Lamda =  -0.06937052
 Calculated Step too Large.  Step scaled by  0.709524
 Step Taken.  Stepsize is  0.300000

                             Maximum     Tolerance    Cnvgd?
         Gradient            0.093336       0.000300      NO
         Displacement        0.104395       0.001200      NO
         Energy change     *********       0.000001      NO


 New Cartesian Coordinates Obtained by Inverse Iteration

 Displacement from previous Coordinates is:  1.140175
 Adding empirical dispersion correction 
 ----------------------------------------------------------------
 Doing -D3(op) with
 s6 =   1.00000
 s8 =   0.78311
 a1 =   0.30000
 a2 =   4.25000
 n  =  10.00000
 -D3 energy without 3body term =     -0.0300463428 hartrees
 ----------------------------------------------------------------
             Standard Nuclear Orientation (Angstroms)
    I     Atom           X                Y                Z
 ----------------------------------------------------------------
    1      C       0.4233659491    -0.6525580314    -0.5652563810
    2      C       0.6252763003     0.8862539567    -0.5114885393
    3      C      -0.8726670085    -1.1905967497     0.0965926847
    4      C      -0.5742725915     1.7294766602    -0.0004703815
    5      O      -1.1473027340    -2.4532172118    -0.4438967699
    6      O      -1.5733497215    -0.6091379342     0.9430010136
    7      O      -1.6873375223     1.4678000446    -0.8111319683
    8      O      -0.5404609152     2.5821653900     0.9041947620
    9      C      -2.8847173033     2.1776199830    -0.3797839573
   10      C      -2.3571596100    -3.0686969760     0.0830969783
   11      C       1.6785167554    -1.1660965558     0.2244472313
   12      C       2.9809919059    -0.9103471092    -0.6054219487
   13      C       3.1636524480     0.6313488430    -0.4331041199
   14      C       1.8948068850     1.0056383729     0.4050276530
   15      O       1.7860456972    -0.1634634074     1.3022133869
   16      H       0.4261947221    -0.9940287686    -1.6138084919
   17      H       0.8601616035     1.2772623487    -1.5172533139
   18      H      -3.0011217344     2.1609101078     0.7193936917
   19      H      -2.6694238409    -2.6250476908     1.0461140057
   20      H       1.5932290031    -2.1819954604     0.6439407067
   21      H       3.8319757456    -1.4458980241    -0.1602064748
   22      H       2.8930792379    -1.2233563337    -1.6560368562
   23      H       4.0745564739     0.8411684487     0.1458980408
   24      H       3.2342360920     1.1688655787    -1.3900380199
   25      H       1.9847216744     1.9393763092     0.9835444939
   26      H      -2.8724478373     3.2264321158    -0.7317894177
   27      H      -3.7506502089     1.6644131252    -0.8314574898
   28      H      -2.1557254459    -4.1436764932     0.2358057728
   29      H      -3.1790819557    -2.9663613286    -0.6494672868
 ----------------------------------------------------------------
 Molecular Point Group                 C1    NOp =  1
 Largest Abelian Subgroup              C1    NOp =  1
 Nuclear Repulsion Energy =  1093.9712019064 hartrees
 There are       57 alpha and       57 beta electrons
 Applying Cartesian multipole field
    Component          Value
    ---------          -----
     (2,0,0)        1.00000E-11
     (0,2,0)        2.00000E-11
     (0,0,2)       -3.00000E-11
 Nucleus-field energy     =     0.0000000330 hartrees
 Requested basis set is STO-3G
 There are 44 shells and 89 basis functions
 A cutoff of  1.0D-12 yielded    862 shell pairs
 There are      3892 function pairs
 Smallest overlap matrix eigenvalue = 2.07E-01
 Guess MOs from SCF MO coefficient file
 Reading MOs from coefficient file
 Reading MOs from coefficient file
 A restricted hybrid HF-DFT SCF calculation will be
 performed using Pulay DIIS extrapolation
 Exchange:     0.2000 Hartree-Fock + 0.0800 Slater + 0.7200 B88
 Correlation:  0.1900 VWN1RPA + 0.8100 LYP
 Using SG-1 standard quadrature grid
 Dispersion:   Grimme D3
 SCF converges when DIIS error is below 1.0E-08
 Geometry optimization detected.  Setting ReadMinima to 0
 Setting SaveMinima to 0
 -------------------------------------------------------
 OpenMP Integral computing Module                
 Release: version 1.0, May 2013, Q-Chem Inc. Pittsburgh 
 -------------------------------------------------------
 -------------------------------------------------------
 OpenMP BLAS3 based DFT computing Module                
 Release: version 1.0, May 2013, Q-Chem Inc. Pittsburgh 
 -------------------------------------------------------
 ---------------------------------------
  Cycle       Energy         DIIS Error
 ---------------------------------------
    1    -755.5630239207      6.06E-03
    2    -755.7203975602      2.08E-03
    3    -755.7136674566      3.24E-03
    4    -755.7248822294      6.55E-04
    5    -755.7253870819      1.12E-04
    6    -755.7254025969      2.52E-05
    7    -755.7254028624      2.27E-05
    8    -755.7254034325      4.85E-06
    9    -755.7254034636      8.51E-07
   10    -755.7254034646      4.08E-07
   11    -755.7254034649      7.12E-08
   12    -755.7254034649      3.01E-08
   13    -755.7254034649      4.28E-09 Convergence criterion met
 ---------------------------------------
 SCF time:  CPU 52.16 s  wall 2.19 s
 SCF   energy in the final basis set = -755.7254034649
 Total energy in the final basis set = -755.7254034649
 
 --------------------------------------------------------------
 
                    Orbital Energies (a.u.)
 --------------------------------------------------------------
 
 Alpha MOs
 -- Occupied --
-18.940 -18.929 -18.879 -18.871 -18.861 -10.104 -10.097 -10.068
-10.062 -10.060 -10.054 -10.037 -10.034 -10.017 -10.015  -1.024
 -1.012  -0.971  -0.942  -0.932  -0.766  -0.726  -0.711  -0.672
 -0.661  -0.596  -0.547  -0.535  -0.516  -0.480  -0.462  -0.452
 -0.432  -0.418  -0.417  -0.411  -0.407  -0.380  -0.366  -0.357
 -0.348  -0.339  -0.333  -0.322  -0.309  -0.304  -0.299  -0.284
 -0.274  -0.248  -0.241  -0.227  -0.180  -0.168  -0.155  -0.144
 -0.138
 -- Virtual --
  0.103   0.119   0.239   0.260   0.278   0.292   0.324   0.343
  0.358   0.361   0.377   0.382   0.394   0.415   0.419   0.422
  0.426   0.432   0.436   0.442   0.445   0.448   0.450   0.454
  0.466   0.476   0.501   0.517   0.554   0.562   0.665   0.668
 --------------------------------------------------------------
 
          Ground-State Mulliken Net Atomic Charges

     Atom                 Charge (a.u.)
  ----------------------------------------
      1 C                    -0.078869
      2 C                    -0.081382
      3 C                     0.224246
      4 C                     0.225569
      5 O                    -0.179308
      6 O                    -0.218059
      7 O                    -0.182197
      8 O                    -0.219647
      9 C                    -0.124282
     10 C                    -0.128843
     11 C                     0.024969
     12 C                    -0.145421
     13 C                    -0.144549
     14 C                     0.024306
     15 O                    -0.194873
     16 H                     0.087716
     17 H                     0.084533
     18 H                     0.097754
     19 H                     0.099874
     20 H                     0.084778
     21 H                     0.077696
     22 H                     0.073100
     23 H                     0.077715
     24 H                     0.071836
     25 H                     0.093031
     26 H                     0.084559
     27 H                     0.089302
     28 H                     0.089522
     29 H                     0.086925
  ----------------------------------------
  Sum of atomic charges =    -0.000000

 -----------------------------------------------------------------
                    Cartesian Multipole Moments
 -----------------------------------------------------------------
    Charge (ESU x 10^10)
                 0.0000
    Dipole Moment (Debye)
         X      -0.3029      Y      -1.3630      Z      -2.2864
       Tot       2.6790
    Quadrupole Moments (Debye-Ang)
        XX     -72.4291     XY       1.6099     YY     -77.3504
        XZ      -1.2412     YZ      -3.9939     ZZ     -84.3912
    Octopole Moments (Debye-Ang^2)
       XXX     -34.5987    XXY       1.7685    XYY     -20.1234
       YYY     -16.1443    XXZ      -2.5509    XYZ       2.9767
       YYZ       0.5930    XZZ      -5.7979    YZZ      -0.5263
       ZZZ       2.2459
    Hexadecapole Moments (Debye-Ang^3)
      XXXX   -1880.2626   XXXY     -12.4825   XXYY    -501.9991
      XYYY      19.6469   YYYY   -1393.9771   XXXZ      26.4264
      XXYZ       0.0783   XYYZ       9.4059   YYYZ     -46.9534
      XXZZ    -381.9631   XYZZ       2.1582   YYZZ    -291.5532
      XZZZ      -4.1544   YZZZ       0.0154   ZZZZ    -279.3460
 -----------------------------------------------------------------
 Calculating analytic gradient of the SCF energy
 Gradient of SCF Energy
            1           2           3           4           5           6
    1   0.0016732  -0.0045395   0.0025689  -0.0079483  -0.0130291   0.0082466
    2   0.0151238  -0.0126770  -0.0179362  -0.0052500   0.0163942  -0.0047841
    3   0.0186114   0.0077765  -0.0029564  -0.0114925   0.0161697  -0.0130598
            7           8           9          10          11          12
    1   0.0064836   0.0019000   0.0080602   0.0105802  -0.0069139  -0.0063672
    2   0.0162765  -0.0073760  -0.0059630   0.0055328  -0.0037483   0.0049414
    3   0.0214660  -0.0111948  -0.0051851  -0.0070086  -0.0057526   0.0065294
           13          14          15          16          17          18
    1  -0.0067534  -0.0061666   0.0034226  -0.0010724   0.0000891  -0.0011411
    2  -0.0053733   0.0052190   0.0003653   0.0036626   0.0022672  -0.0017142
    3   0.0059561  -0.0038621  -0.0165987   0.0006152   0.0026501  -0.0028857
           19          20          21          22          23          24
    1   0.0001143   0.0022800   0.0000306   0.0017802  -0.0008194   0.0014988
    2  -0.0040971   0.0031932   0.0026795  -0.0000958  -0.0022377  -0.0009152
    3  -0.0013775  -0.0010936  -0.0007535   0.0018088  -0.0012659   0.0016982
           25          26          27          28          29
    1   0.0036491   0.0001901   0.0006059  -0.0014666   0.0030442
    2  -0.0032787  -0.0038449   0.0021248   0.0025901  -0.0010790
    3  -0.0023809  -0.0010641   0.0027754   0.0007072   0.0011680
 Max gradient component =       2.147E-02
 RMS gradient           =       7.170E-03
 Gradient time:  CPU 13.73 s  wall 0.58 s
 Geometry Optimization Parameters
   NAtoms,    NIC,     NZ,  NCons,   NDum,   NFix, NCnnct, MaxDiis
       29     227       0       2       0       0       0       0

 Cartesian Hessian Update
 Hessian Updated using BFGS Update


** CONSTRAINED OPTIMIZATION IN DELOCALIZED INTERNAL COORDINATES **
   Searching for a Minimum

   Optimization Cycle:   2

                       Coordinates (Angstroms)
     ATOM                X               Y               Z
      1  C         0.4233659491   -0.6525580314   -0.5652563810
      2  C         0.6252763003    0.8862539567   -0.5114885393
      3  C        -0.8726670085   -1.1905967497    0.0965926847
      4  C        -0.5742725915    1.7294766602   -0.0004703815
      5  O        -1.1473027340   -2.4532172118   -0.4438967699
      6  O        -1.5733497215   -0.6091379342    0.9430010136
      7  O        -1.6873375223    1.4678000446   -0.8111319683
      8  O        -0.5404609152    2.5821653900    0.9041947620
      9  C        -2.8847173033    2.1776199830   -0.3797839573
     10  C        -2.3571596100   -3.0686969760    0.0830969783
     11  C         1.6785167554   -1.1660965558    0.2244472313
     12  C         2.9809919059   -0.9103471092   -0.6054219487
     13  C         3.1636524480    0.6313488430   -0.4331041199
     14  C         1.8948068850    1.0056383729    0.4050276530
     15  O         1.7860456972   -0.1634634074    1.3022133869
     16  H         0.4261947221   -0.9940287686   -1.6138084919
     17  H         0.8601616035    1.2772623487   -1.5172533139
     18  H        -3.0011217344    2.1609101078    0.7193936917
     19  H        -2.6694238409   -2.6250476908    1.0461140057
     20  H         1.5932290031   -2.1819954604    0.6439407067
     21  H         3.8319757456   -1.4458980241   -0.1602064748
     22  H         2.8930792379   -1.2233563337   -1.6560368562
     23  H         4.0745564739    0.8411684487    0.1458980408
     24  H         3.2342360920    1.1688655787   -1.3900380199
     25  H         1.9847216744    1.9393763092    0.9835444939
     26  H        -2.8724478373    3.2264321158   -0.7317894177
     27  H        -3.7506502089    1.6644131252   -0.8314574898
     28  H        -2.1557254459   -4.1436764932    0.2358057728
     29  H        -3.1790819557   -2.9663613286   -0.6494672868
   Point Group: c1    Number of degrees of freedom:    81


   Energy is   -755.725403465

              Constraints and their Current Values
                                        Value     Constraint
   Dihedral:        2   1   3   5      158.641      157.300
   Dihedral:        1   2   4   7      -57.644      -56.600
 Hessian Updated using BFGS Update

   Using Lagrange Multiplier Algorithm


 75 Hessian modes will be used to form the next step
  Hessian Eigenvalues:
    -0.977804   -0.976208    0.044894    0.045000    0.045005    0.045436
     0.045545    0.048626    0.058819    0.061802    0.065595    0.067835
     0.070829    0.072145    0.074335    0.075947    0.081735    0.083699
     0.084143    0.085559    0.086930    0.088252    0.091044    0.091423
     0.097086    0.098159    0.112168    0.112416    0.113362    0.116981
     0.117200    0.121546    0.121786    0.138001    0.141549    0.159181
     0.161004    0.168846    0.174226    0.239591    0.246700    0.248558
     0.249985    0.250199    0.256232    0.267444    0.268577    0.292023
     0.299555    0.308568    0.320276    0.329535    0.338146    0.340346
     0.341555    0.341955    0.342216    0.342771    0.343192    0.343757
     0.343866    0.343923    0.344074    0.344424    0.344654    0.345778
     0.380803    0.405565    0.415429    0.502413    0.516545    0.949221
     0.967071    1.022734    1.029062

 Minimum Search - Taking P-RFO Step
 Searching for Lamda that Maximizes Along the Constraint modes Only
 Value Taken    Lamda =   0.00060940
 Searching for Lamda that Minimizes Along All other modes
 Value Taken    Lamda =  -0.01084199
 Step Taken.  Stepsize is  0.238364

                             Maximum     Tolerance    Cnvgd?
         Gradient            0.031433       0.000300      NO
         Displacement        0.070653       0.001200      NO
         Energy change     -0.030067       0.000001      NO


 New Cartesian Coordinates Obtained by Inverse Iteration

 Displacement from previous Coordinates is:  0.662241
 Adding empirical dispersion correction 
 ----------------------------------------------------------------
 Doing -D3(op) with
 s6 =   1.00000
 s8 =   0.78311
 a1 =   0.30000
 a2 =   4.25000
 n  =  10.00000
 -D3 energy without 3body term =     -0.0300830714 hartrees
 ----------------------------------------------------------------
             Standard Nuclear Orientation (Angstroms)
    I     Atom           X                Y                Z
 ----------------------------------------------------------------
    1      C       0.4550103649    -0.6803289281    -0.5923745019
    2      C       0.6477293523     0.8840059354    -0.5251489408
    3      C      -0.8666754443    -1.1979170884     0.0703813831
    4      C      -0.5857257959     1.7117393104    -0.0155462983
    5      O      -1.1751773867    -2.4663750389    -0.4993170705
    6      O      -1.5602488444    -0.6221276195     0.9388568043
    7      O      -1.6990145475     1.4056158521    -0.8516373836
    8      O      -0.5996901521     2.5509670019     0.9114504863
    9      C      -2.8975405007     2.1161244289    -0.3706990980
   10      C      -2.4173781285    -3.0035872467     0.0888273076
   11      C       1.7162281934    -1.1713864806     0.2330465879
   12      C       3.0222287701    -0.9003445445    -0.6082171190
   13      C       3.1879373373     0.6561869547    -0.4302858601
   14      C       1.9081329085     1.0036051421     0.4222165604
   15      O       1.7948418076    -0.1691275356     1.3268248403
   16      H       0.4756763470    -1.0371969382    -1.6380163630
   17      H       0.8926976710     1.2746355786    -1.5309902564
   18      H      -2.9743312743     2.0850638026     0.7350650518
   19      H      -2.6492003939    -2.5008270700     1.0496465195
   20      H       1.6241857642    -2.1919468315     0.6538373601
   21      H       3.8765321113    -1.4399358442    -0.1680398148
   22      H       2.9191370949    -1.2112455605    -1.6606616421
   23      H       4.0973746130     0.8888858237     0.1475998019
   24      H       3.2328146901     1.2031871120    -1.3861289984
   25      H       1.9594138845     1.9421187883     1.0083019473
   26      H      -2.8964064045     3.1775263264    -0.6974541855
   27      H      -3.7658221031     1.5978671813    -0.8197760174
   28      H      -2.2730709684    -4.0894040448     0.2522881908
   29      H      -3.2645669016    -2.8515252571    -0.6113902871
 ----------------------------------------------------------------
 Molecular Point Group                 C1    NOp =  1
 Largest Abelian Subgroup              C1    NOp =  1
 Nuclear Repulsion Energy =  1088.9528417418 hartrees
 There are       57 alpha and       57 beta electrons
 Applying Cartesian multipole field
    Component          Value
    ---------          -----
     (2,0,0)        1.00000E-11
     (0,2,0)        2.00000E-11
     (0,0,2)       -3.00000E-11
 Nucleus-field energy     =     0.0000000325 hartrees
 Requested basis set is STO-3G
 There are 44 shells and 89 basis functions
 A cutoff of  1.0D-12 yielded    863 shell pairs
 There are      3896 function pairs
 Smallest overlap matrix eigenvalue = 2.13E-01
 Guess MOs from SCF MO coefficient file
 Reading MOs from coefficient file
 Reading MOs from coefficient file
 A restricted hybrid HF-DFT SCF calculation will be
 performed using Pulay DIIS extrapolation
 Exchange:     0.2000 Hartree-Fock + 0.0800 Slater + 0.7200 B88
 Correlation:  0.1900 VWN1RPA + 0.8100 LYP
 Using SG-1 standard quadrature grid
 Dispersion:   Grimme D3
 SCF converges when DIIS error is below 1.0E-08
 Geometry optimization detected.  Setting ReadMinima to 0
 Setting SaveMinima to 0
 -------------------------------------------------------
 OpenMP Integral computing Module                
 Release: version 1.0, May 2013, Q-Chem Inc. Pittsburgh 
 -------------------------------------------------------
 -------------------------------------------------------
 OpenMP BLAS3 based DFT computing Module                
 Release: version 1.0, May 2013, Q-Chem Inc. Pittsburgh 
 -------------------------------------------------------
 ---------------------------------------
  Cycle       Energy         DIIS Error
 ---------------------------------------
    1    -755.6439949961      3.81E-03
    2    -755.7289845293      1.39E-03
    3    -755.7251577837      2.33E-03
    4    -755.7310104964      3.92E-04
    5    -755.7311906298      8.31E-05
    6    -755.7311988699      2.19E-05
    7    -755.7311990634      1.87E-05
    8    -755.7311994554      3.57E-06
    9    -755.7311994721      5.52E-07
   10    -755.7311994725      2.99E-07
   11    -755.7311994726      3.54E-08
   12    -755.7311994726      1.55E-08
   13    -755.7311994726      4.20E-09 Convergence criterion met
 ---------------------------------------
 SCF time:  CPU 53.49 s  wall 2.25 s
 SCF   energy in the final basis set = -755.7311994726
 Total energy in the final basis set = -755.7311994726
 
 --------------------------------------------------------------
 
                    Orbital Energies (a.u.)
 --------------------------------------------------------------
 
 Alpha MOs
 -- Occupied --
-18.937 -18.927 -18.883 -18.875 -18.866 -10.100 -10.094 -10.062
-10.060 -10.058 -10.055 -10.038 -10.033 -10.020 -10.018  -1.015
 -1.004  -0.966  -0.937  -0.929  -0.762  -0.722  -0.706  -0.665
 -0.655  -0.593  -0.544  -0.536  -0.510  -0.474  -0.457  -0.450
 -0.430  -0.415  -0.413  -0.407  -0.403  -0.376  -0.360  -0.354
 -0.346  -0.339  -0.330  -0.322  -0.310  -0.302  -0.297  -0.280
 -0.272  -0.252  -0.246  -0.231  -0.179  -0.167  -0.157  -0.146
 -0.141
 -- Virtual --
  0.097   0.114   0.237   0.256   0.271   0.283   0.313   0.333
  0.344   0.347   0.362   0.374   0.386   0.407   0.413   0.419
  0.422   0.427   0.428   0.435   0.437   0.439   0.443   0.445
  0.452   0.468   0.491   0.507   0.545   0.552   0.649   0.652
 --------------------------------------------------------------
 
          Ground-State Mulliken Net Atomic Charges

     Atom                 Charge (a.u.)
  ----------------------------------------
      1 C                    -0.077143
      2 C                    -0.079972
      3 C                     0.215961
      4 C                     0.217208
      5 O                    -0.171832
      6 O                    -0.213119
      7 O                    -0.175298
      8 O                    -0.213816
      9 C                    -0.126697
     10 C                    -0.132815
     11 C                     0.024208
     12 C                    -0.143922
     13 C                    -0.143105
     14 C                     0.023321
     15 O                    -0.189190
     16 H                     0.087135
     17 H                     0.082910
     18 H                     0.097475
     19 H                     0.100753
     20 H                     0.083266
     21 H                     0.077740
     22 H                     0.073620
     23 H                     0.077370
     24 H                     0.072495
     25 H                     0.091067
     26 H                     0.083080
     27 H                     0.087310
     28 H                     0.087278
     29 H                     0.084710
  ----------------------------------------
  Sum of atomic charges =     0.000000

 -----------------------------------------------------------------
                    Cartesian Multipole Moments
 -----------------------------------------------------------------
    Charge (ESU x 10^10)
                 0.0000
    Dipole Moment (Debye)
         X      -0.0973      Y      -1.1865      Z      -2.2086
       Tot       2.5091
    Quadrupole Moments (Debye-Ang)
        XX     -72.4784     XY       1.5106     YY     -77.8449
        XZ      -1.4582     YZ      -3.8602     ZZ     -84.4579
    Octopole Moments (Debye-Ang^2)
       XXX     -34.1279    XXY       1.9244    XYY     -17.7757
       YYY     -11.2919    XXZ      -2.0934    XYZ       3.1726
       YYZ       1.6659    XZZ      -5.3785    YZZ       0.2844
       ZZZ       3.6202
    Hexadecapole Moments (Debye-Ang^3)
      XXXX   -1921.1888   XXXY     -15.2009   XXYY    -507.0172
      XYYY      12.1920   YYYY   -1365.0912   XXXZ      25.2668
      XXYZ      -0.6784   XYYZ       8.3451   YYYZ     -47.8962
      XXZZ    -390.8778   XYZZ       0.3404   YYZZ    -287.4502
      XZZZ      -5.9222   YZZZ      -2.1086   ZZZZ    -286.5075
 -----------------------------------------------------------------
 Calculating analytic gradient of the SCF energy
 Gradient of SCF Energy
            1           2           3           4           5           6
    1   0.0025905  -0.0003500   0.0003712  -0.0053554  -0.0014875  -0.0023226
    2   0.0029716  -0.0047746  -0.0102909   0.0003931   0.0032030   0.0016066
    3   0.0041591   0.0028833  -0.0001099  -0.0061368   0.0012696  -0.0016547
            7           8           9          10          11          12
    1   0.0009233   0.0006167   0.0049685   0.0044761  -0.0010995  -0.0025914
    2   0.0005354   0.0021616  -0.0014190   0.0045280  -0.0033317   0.0003560
    3   0.0032974   0.0009191  -0.0000199  -0.0017748  -0.0046292   0.0001913
           13          14          15          16          17          18
    1  -0.0028078  -0.0016280   0.0017241  -0.0008437   0.0003790  -0.0001758
    2  -0.0003660   0.0027639   0.0003655   0.0016323   0.0013191   0.0000958
    3  -0.0003837  -0.0015444   0.0008707  -0.0010632   0.0003284   0.0004864
           19          20          21          22          23          24
    1  -0.0007345  -0.0000767   0.0004101   0.0009202   0.0000403   0.0013058
    2  -0.0008282   0.0001028   0.0003950  -0.0008923  -0.0002292   0.0005365
    3   0.0009061   0.0009356   0.0003830  -0.0000515   0.0005285  -0.0000231
           25          26          27          28          29
    1   0.0011540  -0.0001502  -0.0000022  -0.0000047  -0.0002501
    2   0.0001159   0.0001956  -0.0006281  -0.0004433  -0.0000741
    3   0.0003335  -0.0004511   0.0000790   0.0004726  -0.0002013
 Max gradient component =       1.029E-02
 RMS gradient           =       2.228E-03
 Gradient time:  CPU 14.16 s  wall 0.60 s
 Geometry Optimization Parameters
   NAtoms,    NIC,     NZ,  NCons,   NDum,   NFix, NCnnct, MaxDiis
       29     227       0       2       0       0       0       0

 Cartesian Hessian Update
 Hessian Updated using BFGS Update


** CONSTRAINED OPTIMIZATION IN DELOCALIZED INTERNAL COORDINATES **
   Searching for a Minimum

   Optimization Cycle:   3

                       Coordinates (Angstroms)
     ATOM                X               Y               Z
      1  C         0.4550103649   -0.6803289281   -0.5923745019
      2  C         0.6477293523    0.8840059354   -0.5251489408
      3  C        -0.8666754443   -1.1979170884    0.0703813831
      4  C        -0.5857257959    1.7117393104   -0.0155462983
      5  O        -1.1751773867   -2.4663750389   -0.4993170705
      6  O        -1.5602488444   -0.6221276195    0.9388568043
      7  O        -1.6990145475    1.4056158521   -0.8516373836
      8  O        -0.5996901521    2.5509670019    0.9114504863
      9  C        -2.8975405007    2.1161244289   -0.3706990980
     10  C        -2.4173781285   -3.0035872467    0.0888273076
     11  C         1.7162281934   -1.1713864806    0.2330465879
     12  C         3.0222287701   -0.9003445445   -0.6082171190
     13  C         3.1879373373    0.6561869547   -0.4302858601
     14  C         1.9081329085    1.0036051421    0.4222165604
     15  O         1.7948418076   -0.1691275356    1.3268248403
     16  H         0.4756763470   -1.0371969382   -1.6380163630
     17  H         0.8926976710    1.2746355786   -1.5309902564
     18  H        -2.9743312743    2.0850638026    0.7350650518
     19  H        -2.6492003939   -2.5008270700    1.0496465195
     20  H         1.6241857642   -2.1919468315    0.6538373601
     21  H         3.8765321113   -1.4399358442   -0.1680398148
     22  H         2.9191370949   -1.2112455605   -1.6606616421
     23  H         4.0973746130    0.8888858237    0.1475998019
     24  H         3.2328146901    1.2031871120   -1.3861289984
     25  H         1.9594138845    1.9421187883    1.0083019473
     26  H        -2.8964064045    3.1775263264   -0.6974541855
     27  H        -3.7658221031    1.5978671813   -0.8197760174
     28  H        -2.2730709684   -4.0894040448    0.2522881908
     29  H        -3.2645669016   -2.8515252571   -0.6113902871
   Point Group: c1    Number of degrees of freedom:    81


   Energy is   -755.731199473

              Constraints and their Current Values
                                        Value     Constraint
   Dihedral:        2   1   3   5      157.307      157.300
   Dihedral:        1   2   4   7      -56.602      -56.600
 Hessian Updated using BFGS Update

   Using Lagrange Multiplier Algorithm


 78 Hessian modes will be used to form the next step
  Hessian Eigenvalues:
    -0.977416   -0.976750    0.041979    0.045000    0.045004    0.045028
     0.045430    0.045548    0.048574    0.058791    0.059788    0.065570
     0.067128    0.070819    0.072144    0.074295    0.075972    0.081645
     0.082634    0.084115    0.085033    0.086555    0.088226    0.091172
     0.091455    0.096233    0.098159    0.111919    0.112725    0.113282
     0.116979    0.117188    0.121551    0.121934    0.138210    0.141788
     0.157682    0.160725    0.161005    0.169009    0.174239    0.246217
     0.247166    0.249769    0.249992    0.250195    0.253589    0.267211
     0.268560    0.274113    0.292239    0.302907    0.308564    0.318592
     0.329512    0.338147    0.340330    0.341614    0.341868    0.342280
     0.342648    0.343184    0.343670    0.343873    0.343920    0.344076
     0.344435    0.344714    0.345832    0.380877    0.397917    0.412142
     0.478189    0.516574    0.949742    0.982940    1.023407    1.029898

 Minimum Search - Taking P-RFO Step
 Searching for Lamda that Maximizes Along the Constraint modes Only
 Value Taken    Lamda =   0.00001569
 Searching for Lamda that Minimizes Along All other modes
 Value Taken    Lamda =  -0.00142693
 Step Taken.  Stepsize is  0.141856

                             Maximum     Tolerance    Cnvgd?
         Gradient            0.005844       0.000300      NO
         Displacement        0.062131       0.001200      NO
         Energy change     -0.005796       0.000001      NO


 New Cartesian Coordinates Obtained by Inverse Iteration

 Displacement from previous Coordinates is:  0.288596
 Adding empirical dispersion correction 
 ----------------------------------------------------------------
 Doing -D3(op) with
 s6 =   1.00000
 s8 =   0.78311
 a1 =   0.30000
 a2 =   4.25000
 n  =  10.00000
 -D3 energy without 3body term =     -0.0301714821 hartrees
 ----------------------------------------------------------------
             Standard Nuclear Orientation (Angstroms)
    I     Atom           X                Y                Z
 ----------------------------------------------------------------
    1      C       0.4616365661    -0.6778489868    -0.6128935030
    2      C       0.6610079244     0.8900522118    -0.5307689566
    3      C      -0.8602051981    -1.1780888390     0.0644101167
    4      C      -0.5807072411     1.7057940278    -0.0140817747
    5      O      -1.2001489932    -2.4485063389    -0.5089867444
    6      O      -1.5143277250    -0.6106380655     0.9687366478
    7      O      -1.6988837077     1.4033557251    -0.8620098319
    8      O      -0.6085928756     2.5228668139     0.9312902089
    9      C      -2.9181872040     2.0997077511    -0.3863153893
   10      C      -2.4365206590    -2.9926369523     0.1062426352
   11      C       1.7224499921    -1.1713386204     0.2235270993
   12      C       3.0359765242    -0.8977962042    -0.6122249901
   13      C       3.2046847128     0.6574887962    -0.4197567764
   14      C       1.9169216969     0.9952498349     0.4299226111
   15      O       1.7895282147    -0.1808390041     1.3257350367
   16      H       0.4849485164    -1.0384264405    -1.6565281220
   17      H       0.9091028656     1.2845082658    -1.5340379461
   18      H      -3.0103202023     2.0454826015     0.7167304636
   19      H      -2.6337346458    -2.4859776850     1.0718564017
   20      H       1.6226219067    -2.1956304232     0.6335161879
   21      H       3.8862725911    -1.4484533333    -0.1785884302
   22      H       2.9262198927    -1.1942252364    -1.6679572374
   23      H       4.1140035546     0.8889853535     0.1585031380
   24      H       3.2418399363     1.2111336679    -1.3715959322
   25      H       1.9537870439     1.9300225491     1.0230058300
   26      H      -2.9155531189     3.1683035805    -0.6878680729
   27      H      -3.7764487485     1.5891784702    -0.8621652515
   28      H      -2.2924229466    -4.0798426670     0.2555136455
   29      H      -3.2998566085    -2.8276276427    -0.5705520593
 ----------------------------------------------------------------
 Molecular Point Group                 C1    NOp =  1
 Largest Abelian Subgroup              C1    NOp =  1
 Nuclear Repulsion Energy =  1087.9201906648 hartrees
 There are       57 alpha and       57 beta electrons
 Applying Cartesian multipole field
    Component          Value
    ---------          -----
     (2,0,0)        1.00000E-11
     (0,2,0)        2.00000E-11
     (0,0,2)       -3.00000E-11
 Nucleus-field energy     =     0.0000000322 hartrees
 Requested basis set is STO-3G
 There are 44 shells and 89 basis functions
 A cutoff of  1.0D-12 yielded    862 shell pairs
 There are      3895 function pairs
 Smallest overlap matrix eigenvalue = 2.13E-01
 Guess MOs from SCF MO coefficient file
 Reading MOs from coefficient file
 Reading MOs from coefficient file
 A restricted hybrid HF-DFT SCF calculation will be
 performed using Pulay DIIS extrapolation
 Exchange:     0.2000 Hartree-Fock + 0.0800 Slater + 0.7200 B88
 Correlation:  0.1900 VWN1RPA + 0.8100 LYP
 Using SG-1 standard quadrature grid
 Dispersion:   Grimme D3
 SCF converges when DIIS error is below 1.0E-08
 Geometry optimization detected.  Setting ReadMinima to 0
 Setting SaveMinima to 0
 -------------------------------------------------------
 OpenMP Integral computing Module                
 Release: version 1.0, May 2013, Q-Chem Inc. Pittsburgh 
 -------------------------------------------------------
 -------------------------------------------------------
 OpenMP BLAS3 based DFT computing Module                
 Release: version 1.0, May 2013, Q-Chem Inc. Pittsburgh 
 -------------------------------------------------------
 ---------------------------------------
  Cycle       Energy         DIIS Error
 ---------------------------------------
    1    -755.7141760518      2.33E-03
    2    -755.7316543409      4.73E-04
    3    -755.7306666677      1.05E-03
    4    -755.7319238748      7.89E-05
    5    -755.7319304557      3.32E-05
    6    -755.7319316126      1.22E-05
    7    -755.7319317087      8.41E-06
    8    -755.7319317899      8.48E-07
    9    -755.7319317908      2.43E-07
   10    -755.7319317908      9.60E-08
   11    -755.7319317908      1.72E-08
   12    -755.7319317908      4.00E-09 Convergence criterion met
 ---------------------------------------
 SCF time:  CPU 49.92 s  wall 2.10 s
 SCF   energy in the final basis set = -755.7319317908
 Total energy in the final basis set = -755.7319317908
 
 --------------------------------------------------------------
 
                    Orbital Energies (a.u.)
 --------------------------------------------------------------
 
 Alpha MOs
 -- Occupied --
-18.933 -18.924 -18.885 -18.876 -18.868 -10.099 -10.093 -10.060
-10.060 -10.057 -10.055 -10.038 -10.034 -10.020 -10.018  -1.010
 -1.000  -0.967  -0.935  -0.927  -0.761  -0.721  -0.705  -0.664
 -0.654  -0.593  -0.544  -0.536  -0.509  -0.472  -0.455  -0.450
 -0.430  -0.414  -0.411  -0.406  -0.402  -0.375  -0.360  -0.354
 -0.346  -0.339  -0.330  -0.323  -0.310  -0.302  -0.295  -0.280
 -0.271  -0.250  -0.245  -0.233  -0.177  -0.166  -0.157  -0.146
 -0.142
 -- Virtual --
  0.096   0.114   0.233   0.253   0.266   0.283   0.312   0.331
  0.341   0.345   0.359   0.372   0.384   0.404   0.411   0.419
  0.422   0.425   0.428   0.433   0.437   0.438   0.442   0.445
  0.450   0.466   0.489   0.506   0.543   0.551   0.648   0.650
 --------------------------------------------------------------
 
          Ground-State Mulliken Net Atomic Charges

     Atom                 Charge (a.u.)
  ----------------------------------------
      1 C                    -0.076970
      2 C                    -0.079664
      3 C                     0.214224
      4 C                     0.215282
      5 O                    -0.171180
      6 O                    -0.211725
      7 O                    -0.175298
      8 O                    -0.212338
      9 C                    -0.128486
     10 C                    -0.134441
     11 C                     0.024766
     12 C                    -0.143984
     13 C                    -0.143141
     14 C                     0.023735
     15 O                    -0.188229
     16 H                     0.087441
     17 H                     0.082928
     18 H                     0.096962
     19 H                     0.100288
     20 H                     0.082909
     21 H                     0.078104
     22 H                     0.073932
     23 H                     0.077856
     24 H                     0.073019
     25 H                     0.090903
     26 H                     0.083074
     27 H                     0.087573
     28 H                     0.087803
     29 H                     0.084658
  ----------------------------------------
  Sum of atomic charges =    -0.000000

 -----------------------------------------------------------------
                    Cartesian Multipole Moments
 -----------------------------------------------------------------
    Charge (ESU x 10^10)
                 0.0000
    Dipole Moment (Debye)
         X      -0.0521      Y      -1.1476      Z      -2.2183
       Tot       2.4981
    Quadrupole Moments (Debye-Ang)
        XX     -72.1142     XY       1.5018     YY     -77.7915
        XZ      -1.4940     YZ      -3.8552     ZZ     -84.6203
    Octopole Moments (Debye-Ang^2)
       XXX     -35.2694    XXY       1.9228    XYY     -17.7400
       YYY     -10.8430    XXZ      -2.0377    XYZ       3.4460
       YYZ       1.8043    XZZ      -5.2254    YZZ       0.2906
       ZZZ       3.4297
    Hexadecapole Moments (Debye-Ang^3)
      XXXX   -1930.5122   XXXY     -15.7081   XXYY    -506.9564
      XYYY      11.7265   YYYY   -1346.6837   XXXZ      25.7499
      XXYZ      -0.9146   XYYZ       7.9220   YYYZ     -46.2393
      XXZZ    -394.2330   XYZZ       0.2787   YYZZ    -286.5056
      XZZZ      -5.7928   YZZZ      -1.1954   ZZZZ    -291.4643
 -----------------------------------------------------------------
 Calculating analytic gradient of the SCF energy
 Gradient of SCF Energy
            1           2           3           4           5           6
    1   0.0007740   0.0009071   0.0021552   0.0012637  -0.0001272  -0.0018935
    2   0.0001354  -0.0014672  -0.0010164   0.0012252   0.0000696   0.0018649
    3  -0.0001498   0.0034667  -0.0001021  -0.0039253  -0.0002646   0.0002833
            7           8           9          10          11          12
    1   0.0000874   0.0001257  -0.0024603  -0.0011970   0.0005422  -0.0001754
    2  -0.0012340   0.0013854  -0.0004088  -0.0022418  -0.0007436  -0.0004394
    3   0.0012303   0.0011916  -0.0001578   0.0000163  -0.0024132  -0.0008274
           13          14          15          16          17          18
    1  -0.0002247  -0.0000012   0.0007391  -0.0003649   0.0000907   0.0002148
    2   0.0004519  -0.0001466   0.0002681   0.0011190   0.0004116   0.0004792
    3  -0.0011778  -0.0006678   0.0027352  -0.0006172   0.0000530  -0.0000592
           19          20          21          22          23          24
    1   0.0002933  -0.0006382   0.0002491   0.0003528   0.0001383   0.0006138
    2   0.0002692   0.0002282   0.0002270  -0.0005663  -0.0001535   0.0003418
    3  -0.0003474   0.0007832   0.0003179  -0.0000049   0.0002974   0.0001245
           25          26          27          28          29
    1  -0.0000305  -0.0002596  -0.0005137  -0.0003132  -0.0003476
    2  -0.0000138   0.0002260   0.0000214  -0.0003992   0.0001067
    3   0.0002567  -0.0000915   0.0000804  -0.0001104   0.0000800
 Max gradient component =       3.925E-03
 RMS gradient           =       1.015E-03
 Gradient time:  CPU 13.78 s  wall 0.58 s
 Geometry Optimization Parameters
   NAtoms,    NIC,     NZ,  NCons,   NDum,   NFix, NCnnct, MaxDiis
       29     227       0       2       0       0       0       0

 Cartesian Hessian Update
 Hessian Updated using BFGS Update


** CONSTRAINED OPTIMIZATION IN DELOCALIZED INTERNAL COORDINATES **
   Searching for a Minimum

   Optimization Cycle:   4

                       Coordinates (Angstroms)
     ATOM                X               Y               Z
      1  C         0.4616365661   -0.6778489868   -0.6128935030
      2  C         0.6610079244    0.8900522118   -0.5307689566
      3  C        -0.8602051981   -1.1780888390    0.0644101167
      4  C        -0.5807072411    1.7057940278   -0.0140817747
      5  O        -1.2001489932   -2.4485063389   -0.5089867444
      6  O        -1.5143277250   -0.6106380655    0.9687366478
      7  O        -1.6988837077    1.4033557251   -0.8620098319
      8  O        -0.6085928756    2.5228668139    0.9312902089
      9  C        -2.9181872040    2.0997077511   -0.3863153893
     10  C        -2.4365206590   -2.9926369523    0.1062426352
     11  C         1.7224499921   -1.1713386204    0.2235270993
     12  C         3.0359765242   -0.8977962042   -0.6122249901
     13  C         3.2046847128    0.6574887962   -0.4197567764
     14  C         1.9169216969    0.9952498349    0.4299226111
     15  O         1.7895282147   -0.1808390041    1.3257350367
     16  H         0.4849485164   -1.0384264405   -1.6565281220
     17  H         0.9091028656    1.2845082658   -1.5340379461
     18  H        -3.0103202023    2.0454826015    0.7167304636
     19  H        -2.6337346458   -2.4859776850    1.0718564017
     20  H         1.6226219067   -2.1956304232    0.6335161879
     21  H         3.8862725911   -1.4484533333   -0.1785884302
     22  H         2.9262198927   -1.1942252364   -1.6679572374
     23  H         4.1140035546    0.8889853535    0.1585031380
     24  H         3.2418399363    1.2111336679   -1.3715959322
     25  H         1.9537870439    1.9300225491    1.0230058300
     26  H        -2.9155531189    3.1683035805   -0.6878680729
     27  H        -3.7764487485    1.5891784702   -0.8621652515
     28  H        -2.2924229466   -4.0798426670    0.2555136455
     29  H        -3.2998566085   -2.8276276427   -0.5705520593
   Point Group: c1    Number of degrees of freedom:    81


   Energy is   -755.731931791

              Constraints and their Current Values
                                        Value     Constraint
   Dihedral:        2   1   3   5      157.300      157.300
   Dihedral:        1   2   4   7      -56.600      -56.600
 Hessian Updated using BFGS Update

   Using Lagrange Multiplier Algorithm


 79 Hessian modes will be used to form the next step
  Hessian Eigenvalues:
    -0.974588    0.027795    0.045000    0.045001    0.045007    0.045129
     0.045431    0.045583    0.048508    0.056420    0.058839    0.065541
     0.066715    0.070825    0.072142    0.074281    0.075993    0.081560
     0.082344    0.084113    0.084767    0.086467    0.088240    0.091202
     0.091460    0.096652    0.098175    0.112490    0.112702    0.113747
     0.116989    0.117254    0.121536    0.123390    0.138162    0.141883
     0.158905    0.160050    0.160903    0.162193    0.169567    0.174263
     0.246016    0.247119    0.249681    0.250000    0.250075    0.250198
     0.255019    0.267229    0.268550    0.287834    0.292527    0.306537
     0.308670    0.325265    0.329604    0.338160    0.340375    0.341596
     0.342114    0.342261    0.343138    0.343351    0.343873    0.343898
     0.343954    0.344223    0.344435    0.344725    0.345843    0.394412
     0.410090    0.446212    0.515850    0.563560    0.949600    0.983789
     1.031981

 Minimum Search - Taking P-RFO Step
 Searching for Lamda that Maximizes Along the Constraint modes Only
 Value Taken    Lamda =   0.00000215
 Searching for Lamda that Minimizes Along All other modes
 Value Taken    Lamda =  -0.00042057
 Step Taken.  Stepsize is  0.098420

                             Maximum     Tolerance    Cnvgd?
         Gradient            0.004314       0.000300      NO
         Displacement        0.045228       0.001200      NO
         Energy change     -0.000732       0.000001      NO


 New Cartesian Coordinates Obtained by Inverse Iteration

 Displacement from previous Coordinates is:  0.262141
 Adding empirical dispersion correction 
 ----------------------------------------------------------------
 Doing -D3(op) with
 s6 =   1.00000
 s8 =   0.78311
 a1 =   0.30000
 a2 =   4.25000
 n  =  10.00000
 -D3 energy without 3body term =     -0.0302821731 hartrees
 ----------------------------------------------------------------
             Standard Nuclear Orientation (Angstroms)
    I     Atom           X                Y                Z
 ----------------------------------------------------------------
    1      C       0.4631079109    -0.6779403909    -0.6327820818
    2      C       0.6637508043     0.8897227888    -0.5385354420
    3      C      -0.8549977049    -1.1704933148     0.0531053351
    4      C      -0.5840551966     1.6921221799    -0.0194919795
    5      O      -1.2116628587    -2.4362506275    -0.5219718402
    6      O      -1.4822499937    -0.6145458896     0.9822611275
    7      O      -1.6957089447     1.3886078824    -0.8777714177
    8      O      -0.6261931789     2.4938083741     0.9372537131
    9      C      -2.9143468552     2.0784321721    -0.3927988778
   10      C      -2.4407257170    -2.9626002927     0.1226979818
   11      C       1.7200066487    -1.1743635957     0.2120240178
   12      C       3.0396684670    -0.8928430002    -0.6129105793
   13      C       3.2063921716     0.6606103360    -0.4062589959
   14      C       1.9108770306     0.9896152871     0.4348966078
   15      O       1.7736423226    -0.1923618501     1.3194647003
   16      H       0.4905639717    -1.0399855839    -1.6753558849
   17      H       0.9154613583     1.2889950195    -1.5387959859
   18      H      -3.0133130829     1.9976233104     0.7081697990
   19      H      -2.6120719864    -2.4495086821     1.0902409510
   20      H       1.6196403498    -2.2030450333     0.6105637569
   21      H       3.8867181289    -1.4502922970    -0.1824632182
   22      H       2.9317510236    -1.1756322523    -1.6723806334
   23      H       4.1125236008     0.8921912460     0.1762722080
   24      H       3.2420467680     1.2192237871    -1.3550455389
   25      H       1.9371109729     1.9210405419     1.0337009127
   26      H      -2.9060196947     3.1533358776    -0.6700741379
   27      H      -3.7692382707     1.5801960272    -0.8864600063
   28      H      -2.3023641230    -4.0499021545     0.2728619311
   29      H      -3.3152218582    -2.7915066556    -0.5377574176
 ----------------------------------------------------------------
 Molecular Point Group                 C1    NOp =  1
 Largest Abelian Subgroup              C1    NOp =  1
 Nuclear Repulsion Energy =  1090.0296733803 hartrees
 There are       57 alpha and       57 beta electrons
 Applying Cartesian multipole field
    Component          Value
    ---------          -----
     (2,0,0)        1.00000E-11
     (0,2,0)        2.00000E-11
     (0,0,2)       -3.00000E-11
 Nucleus-field energy     =     0.0000000317 hartrees
 Requested basis set is STO-3G
 There are 44 shells and 89 basis functions
 A cutoff of  1.0D-12 yielded    864 shell pairs
 There are      3900 function pairs
 Smallest overlap matrix eigenvalue = 2.13E-01
 Guess MOs from SCF MO coefficient file
 Reading MOs from coefficient file
 Reading MOs from coefficient file
 A restricted hybrid HF-DFT SCF calculation will be
 performed using Pulay DIIS extrapolation
 Exchange:     0.2000 Hartree-Fock + 0.0800 Slater + 0.7200 B88
 Correlation:  0.1900 VWN1RPA + 0.8100 LYP
 Using SG-1 standard quadrature grid
 Dispersion:   Grimme D3
 SCF converges when DIIS error is below 1.0E-08
 Geometry optimization detected.  Setting ReadMinima to 0
 Setting SaveMinima to 0
 -------------------------------------------------------
 OpenMP Integral computing Module                
 Release: version 1.0, May 2013, Q-Chem Inc. Pittsburgh 
 -------------------------------------------------------
 -------------------------------------------------------
 OpenMP BLAS3 based DFT computing Module                
 Release: version 1.0, May 2013, Q-Chem Inc. Pittsburgh 
 -------------------------------------------------------
 ---------------------------------------
  Cycle       Energy         DIIS Error
 ---------------------------------------
    1    -755.7312096563      1.61E-03
    2    -755.7321435414      1.18E-04
    3    -755.7321285143      1.93E-04
    4    -755.7321684191      4.94E-05
    5    -755.7321709029      1.74E-05
    6    -755.7321712565      4.15E-06
    7    -755.7321712754      1.58E-06
    8    -755.7321712774      1.07E-06
    9    -755.7321712786      1.09E-07
   10    -755.7321712786      4.92E-08
   11    -755.7321712786      1.19E-08
   12    -755.7321712786      2.42E-09 Convergence criterion met
 ---------------------------------------
 SCF time:  CPU 48.99 s  wall 2.06 s
 SCF   energy in the final basis set = -755.7321712786
 Total energy in the final basis set = -755.7321712786
 
 --------------------------------------------------------------
 
                    Orbital Energies (a.u.)
 --------------------------------------------------------------
 
 Alpha MOs
 -- Occupied --
-18.933 -18.924 -18.886 -18.876 -18.868 -10.099 -10.093 -10.060
-10.059 -10.057 -10.056 -10.038 -10.034 -10.020 -10.019  -1.011
 -1.000  -0.968  -0.936  -0.928  -0.761  -0.722  -0.705  -0.663
 -0.653  -0.593  -0.544  -0.537  -0.508  -0.472  -0.455  -0.451
 -0.430  -0.414  -0.411  -0.406  -0.402  -0.375  -0.359  -0.354
 -0.346  -0.339  -0.331  -0.323  -0.310  -0.303  -0.295  -0.280
 -0.271  -0.251  -0.246  -0.233  -0.177  -0.167  -0.157  -0.147
 -0.143
 -- Virtual --
  0.095   0.114   0.235   0.254   0.267   0.283   0.312   0.331
  0.340   0.345   0.358   0.372   0.384   0.403   0.410   0.420
  0.423   0.425   0.429   0.433   0.437   0.438   0.442   0.445
  0.450   0.466   0.488   0.507   0.543   0.551   0.648   0.651
 --------------------------------------------------------------
 
          Ground-State Mulliken Net Atomic Charges

     Atom                 Charge (a.u.)
  ----------------------------------------
      1 C                    -0.077177
      2 C                    -0.079875
      3 C                     0.214639
      4 C                     0.215315
      5 O                    -0.170456
      6 O                    -0.212093
      7 O                    -0.175345
      8 O                    -0.211958
      9 C                    -0.128944
     10 C                    -0.135328
     11 C                     0.025224
     12 C                    -0.144113
     13 C                    -0.143200
     14 C                     0.024071
     15 O                    -0.188379
     16 H                     0.087499
     17 H                     0.082842
     18 H                     0.096931
     19 H                     0.100947
     20 H                     0.082831
     21 H                     0.078225
     22 H                     0.073923
     23 H                     0.078060
     24 H                     0.073106
     25 H                     0.091018
     26 H                     0.083214
     27 H                     0.087265
     28 H                     0.087407
     29 H                     0.084351
  ----------------------------------------
  Sum of atomic charges =    -0.000000

 -----------------------------------------------------------------
                    Cartesian Multipole Moments
 -----------------------------------------------------------------
    Charge (ESU x 10^10)
                 0.0000
    Dipole Moment (Debye)
         X      -0.0127      Y      -1.0956      Z      -2.2136
       Tot       2.4699
    Quadrupole Moments (Debye-Ang)
        XX     -72.1034     XY       1.4581     YY     -77.8585
        XZ      -1.5079     YZ      -3.8307     ZZ     -84.7137
    Octopole Moments (Debye-Ang^2)
       XXX     -34.9881    XXY       2.0717    XYY     -16.8850
       YYY      -9.3144    XXZ      -1.5966    XYZ       3.6763
       YYZ       2.2071    XZZ      -4.9460    YZZ       0.5389
       ZZZ       3.9199
    Hexadecapole Moments (Debye-Ang^3)
      XXXX   -1927.7308   XXXY     -15.4993   XXYY    -505.4367
      XYYY      10.1338   YYYY   -1327.2920   XXXZ      26.0231
      XXYZ      -0.9814   XYYZ       7.6362   YYYZ     -44.8336
      XXZZ    -394.0583   XYZZ       0.4021   YYZZ    -283.9513
      XZZZ      -5.4872   YZZZ      -0.2679   ZZZZ    -294.2568
 -----------------------------------------------------------------
 Calculating analytic gradient of the SCF energy
 Gradient of SCF Energy
            1           2           3           4           5           6
    1  -0.0006670   0.0005612  -0.0002185   0.0009897   0.0012307  -0.0008805
    2  -0.0009843  -0.0006324   0.0015102   0.0027333  -0.0016400   0.0002371
    3  -0.0022221   0.0039655   0.0008414  -0.0022423  -0.0016370   0.0000103
            7           8           9          10          11          12
    1  -0.0006139  -0.0001090  -0.0013907  -0.0009858   0.0006996   0.0006263
    2  -0.0023992   0.0002935   0.0002369  -0.0003888  -0.0001019  -0.0006538
    3  -0.0003153   0.0006157   0.0005979   0.0009646  -0.0006053  -0.0007210
           13          14          15          16          17          18
    1   0.0006025   0.0004480   0.0001987   0.0001314  -0.0001043   0.0002590
    2   0.0005103  -0.0005292   0.0002272   0.0007753  -0.0001851   0.0003265
    3  -0.0007306   0.0002261   0.0012121  -0.0003352  -0.0001708   0.0000944
           19          20          21          22          23          24
    1   0.0000227  -0.0005742  -0.0000040   0.0000444  -0.0000033   0.0000624
    2   0.0002441   0.0001273   0.0001494  -0.0002366  -0.0000841   0.0001382
    3   0.0000470   0.0003714   0.0002063   0.0000477   0.0000912   0.0001135
           25          26          27          28          29
    1  -0.0003369  -0.0000819   0.0000692   0.0001721  -0.0001477
    2   0.0000929   0.0001359  -0.0001849   0.0000658   0.0002166
    3   0.0000545  -0.0002417   0.0000545  -0.0002759  -0.0000171
 Max gradient component =       3.966E-03
 RMS gradient           =       8.692E-04
 Gradient time:  CPU 13.86 s  wall 0.58 s
 Geometry Optimization Parameters
   NAtoms,    NIC,     NZ,  NCons,   NDum,   NFix, NCnnct, MaxDiis
       29     227       0       2       0       0       0       0

 Cartesian Hessian Update
 Hessian Updated using BFGS Update


** CONSTRAINED OPTIMIZATION IN DELOCALIZED INTERNAL COORDINATES **
   Searching for a Minimum

   Optimization Cycle:   5

                       Coordinates (Angstroms)
     ATOM                X               Y               Z
      1  C         0.4631079109   -0.6779403909   -0.6327820818
      2  C         0.6637508043    0.8897227888   -0.5385354420
      3  C        -0.8549977049   -1.1704933148    0.0531053351
      4  C        -0.5840551966    1.6921221799   -0.0194919795
      5  O        -1.2116628587   -2.4362506275   -0.5219718402
      6  O        -1.4822499937   -0.6145458896    0.9822611275
      7  O        -1.6957089447    1.3886078824   -0.8777714177
      8  O        -0.6261931789    2.4938083741    0.9372537131
      9  C        -2.9143468552    2.0784321721   -0.3927988778
     10  C        -2.4407257170   -2.9626002927    0.1226979818
     11  C         1.7200066487   -1.1743635957    0.2120240178
     12  C         3.0396684670   -0.8928430002   -0.6129105793
     13  C         3.2063921716    0.6606103360   -0.4062589959
     14  C         1.9108770306    0.9896152871    0.4348966078
     15  O         1.7736423226   -0.1923618501    1.3194647003
     16  H         0.4905639717   -1.0399855839   -1.6753558849
     17  H         0.9154613583    1.2889950195   -1.5387959859
     18  H        -3.0133130829    1.9976233104    0.7081697990
     19  H        -2.6120719864   -2.4495086821    1.0902409510
     20  H         1.6196403498   -2.2030450333    0.6105637569
     21  H         3.8867181289   -1.4502922970   -0.1824632182
     22  H         2.9317510236   -1.1756322523   -1.6723806334
     23  H         4.1125236008    0.8921912460    0.1762722080
     24  H         3.2420467680    1.2192237871   -1.3550455389
     25  H         1.9371109729    1.9210405419    1.0337009127
     26  H        -2.9060196947    3.1533358776   -0.6700741379
     27  H        -3.7692382707    1.5801960272   -0.8864600063
     28  H        -2.3023641230   -4.0499021545    0.2728619311
     29  H        -3.3152218582   -2.7915066556   -0.5377574176
   Point Group: c1    Number of degrees of freedom:    81


   Energy is   -755.732171279

              Constraints and their Current Values
                                        Value     Constraint
   Dihedral:        2   1   3   5      157.300      157.300
   Dihedral:        1   2   4   7      -56.600      -56.600
 Hessian Updated using BFGS Update

 78 Hessian modes will be used to form the next step
  Hessian Eigenvalues:
     0.019344    0.045000    0.045007    0.045012    0.045392    0.045446
     0.046178    0.048479    0.055953    0.058835    0.065542    0.066926
     0.070844    0.072178    0.074309    0.076008    0.081713    0.083529
     0.084114    0.085135    0.086585    0.088247    0.091195    0.091448
     0.097041    0.098159    0.112335    0.112818    0.113489    0.116979
     0.117252    0.121759    0.121902    0.138130    0.142077    0.159126
     0.159991    0.160193    0.160943    0.162626    0.169355    0.174325
     0.246270    0.247421    0.249208    0.249938    0.250101    0.251500
     0.254755    0.267660    0.268581    0.291933    0.301894    0.308524
     0.318972    0.328828    0.338085    0.339271    0.340392    0.341637
     0.342193    0.342291    0.343181    0.343675    0.343855    0.343889
     0.344092    0.344353    0.344698    0.345782    0.359457    0.386224
     0.410716    0.452072    0.513530    0.531011    0.949483    0.976499

 Minimum Search - Taking Simple RFO Step
 Searching for Lamda that Minimizes Along All modes
 Value Taken    Lamda =  -0.00015537
 Step Taken.  Stepsize is  0.068848

                             Maximum     Tolerance    Cnvgd?
         Gradient           0.001984      0.000300      NO
         Displacement       0.025207      0.001200      NO
         Energy change     -0.000239      0.000001      NO


 New Cartesian Coordinates Obtained by Inverse Iteration

 Displacement from previous Coordinates is:  0.133991
 Adding empirical dispersion correction 
[...]
 C         -0.000  0.000  0.000    0.042 -0.036 -0.035   -0.003  0.002 -0.003
 C         -0.000 -0.000  0.000    0.050  0.033 -0.019    0.002  0.003  0.004
 C         -0.000  0.000 -0.000   -0.001  0.008  0.003    0.003 -0.009 -0.009
 O         -0.000 -0.000  0.000   -0.001 -0.000  0.000   -0.000 -0.003 -0.002
 H          0.001  0.001 -0.000    0.025  0.002 -0.003    0.193  0.067 -0.044
 H         -0.002  0.001 -0.001    0.053 -0.027 -0.000   -0.044 -0.007 -0.002
 H          0.130  0.592  0.286    0.007 -0.001  0.002   -0.049 -0.005 -0.034
 H          0.141 -0.064 -0.029   -0.000  0.003  0.000    0.067  0.094  0.032
 H          0.001  0.000  0.001    0.022 -0.016 -0.003   -0.000 -0.003  0.009
 H         -0.000 -0.001 -0.001   -0.052  0.193  0.466   -0.016 -0.006  0.017
 H          0.001 -0.001  0.000   -0.407  0.306 -0.046    0.001  0.006 -0.004
 H          0.001 -0.000 -0.001   -0.143 -0.289  0.354    0.014 -0.013 -0.012
 H          0.001  0.000  0.000   -0.431 -0.165 -0.157   -0.002 -0.003 -0.001
 H         -0.000 -0.000  0.001    0.015  0.015 -0.003    0.003 -0.017 -0.014
 H         -0.210 -0.036  0.585    0.005 -0.000  0.001   -0.066 -0.009 -0.041
 H          0.225 -0.076 -0.215    0.006 -0.003 -0.005   -0.076  0.069  0.049
 H         -0.065  0.001  0.018    0.000  0.001 -0.003    0.145  0.050 -0.103
 H          0.010 -0.017 -0.166   -0.000 -0.000  0.001    0.039  0.112  0.000
 TransDip   0.055  0.007  0.052   -0.048  0.001  0.063   -0.234  0.088  0.057

 Mode:                67                     68                     69
 Frequency:      1805.02                3049.50                3049.86
 Force Cnst:     21.9757                 5.6414                 5.6410
 Red. Mass:      11.4479                 1.0296                 1.0293
 IR Active:          YES                    YES                    YES
 IR Intens:      398.978                 24.758                 46.101
 Raman Active:       YES                    YES                    YES
               X      Y      Z        X      Y      Z        X      Y      Z
 C          0.023 -0.008 -0.032    0.000  0.000  0.001    0.000  0.000  0.000
 C          0.015 -0.027 -0.035    0.000  0.001 -0.002   -0.001 -0.001  0.003
 C         -0.224  0.145  0.303   -0.000 -0.002 -0.001   -0.000 -0.001 -0.001
 C         -0.042  0.413  0.518    0.001  0.000  0.001   -0.002 -0.001 -0.002
 O          0.012 -0.010 -0.018    0.002  0.002 -0.000    0.001  0.001 -0.000
 O          0.133 -0.106 -0.193   -0.000  0.000  0.001   -0.000  0.000  0.000
 O         -0.002 -0.022 -0.033   -0.001  0.000 -0.000    0.002 -0.001  0.000
 O          0.006 -0.263 -0.335   -0.000 -0.000 -0.000    0.000  0.001  0.001
 C         -0.018  0.015  0.012   -0.013  0.010  0.009    0.028 -0.021 -0.019
 C         -0.013 -0.004  0.009    0.032  0.009 -0.022    0.015  0.004 -0.010
 C          0.010  0.001  0.010   -0.000  0.000 -0.000   -0.000  0.000 -0.000
 C         -0.002  0.001 -0.003    0.000 -0.000 -0.000    0.000 -0.000 -0.000
 C         -0.004 -0.003 -0.006   -0.000 -0.000  0.000    0.001  0.001 -0.001
 C          0.004  0.004  0.016   -0.000  0.000  0.000   -0.000  0.000 -0.000
 O         -0.001 -0.002 -0.008    0.000  0.000  0.000    0.000 -0.000  0.000
 H          0.124  0.050 -0.043   -0.000 -0.004 -0.011   -0.000  0.000  0.000
 H          0.114 -0.121 -0.026   -0.006 -0.009  0.025    0.008  0.013 -0.033
 H          0.106 -0.044  0.050    0.079  0.100 -0.227   -0.172 -0.218  0.494
 H          0.040  0.057  0.021    0.103 -0.084  0.553    0.047 -0.039  0.255
 H         -0.021 -0.007 -0.013   -0.001 -0.003  0.001    0.000  0.000 -0.000
 H         -0.015 -0.012  0.010   -0.004  0.003 -0.002   -0.002  0.001 -0.001
 H          0.006  0.003 -0.004    0.001  0.001  0.006    0.000  0.000  0.002
 H         -0.021  0.015  0.020    0.002  0.000  0.002   -0.009 -0.002 -0.006
 H          0.005 -0.003 -0.004    0.000  0.003 -0.005   -0.000 -0.008  0.013
 H         -0.056  0.042 -0.003    0.000  0.000  0.000    0.000 -0.001 -0.001
 H          0.116  0.012  0.027   -0.041 -0.259 -0.019    0.089  0.564  0.042
 H          0.128 -0.099 -0.082    0.125  0.040  0.140   -0.272 -0.086 -0.303
 H          0.087  0.030 -0.063   -0.027 -0.350 -0.195   -0.012 -0.161 -0.090
 H          0.022  0.066  0.001   -0.479  0.321 -0.079   -0.220  0.147 -0.036
 TransDip  -0.035  0.428  0.474    0.058  0.143 -0.041    0.213 -0.039 -0.018

 Mode:                70                     71                     72
 Frequency:      3056.60                3061.56                3067.31
 Force Cnst:      5.8557                 5.9424                 5.8936
 Red. Mass:       1.0638                 1.0760                 1.0632
 IR Active:          YES                    YES                    YES
 IR Intens:       16.506                 14.258                 35.668
 Raman Active:       YES                    YES                    YES
               X      Y      Z        X      Y      Z        X      Y      Z
 C          0.000 -0.002 -0.007    0.000  0.001  0.005   -0.000  0.003  0.008
 C         -0.008 -0.012  0.031    0.015  0.024 -0.062    0.006  0.009 -0.025
 C          0.000  0.000 -0.000   -0.000 -0.000  0.000   -0.000 -0.000  0.000
 C          0.000  0.000  0.001   -0.000 -0.000 -0.002   -0.000  0.000 -0.001
 O         -0.000 -0.000  0.000    0.000  0.000 -0.000    0.000  0.000 -0.000
 O         -0.000  0.000  0.000    0.000 -0.000 -0.000    0.000 -0.000 -0.000
 O         -0.000  0.000 -0.000    0.000 -0.000  0.000    0.000 -0.000  0.000
 O         -0.000 -0.000 -0.000    0.000  0.000  0.000    0.000  0.000  0.000
 C         -0.001  0.001  0.001    0.001 -0.001 -0.001    0.000 -0.000  0.000
 C          0.000  0.000 -0.000   -0.000 -0.000  0.000   -0.000 -0.000  0.000
 C         -0.000 -0.002  0.001    0.000 -0.002  0.001   -0.000  0.004 -0.002
 C         -0.019  0.024  0.027   -0.017  0.023  0.025    0.016 -0.024 -0.028
 C          0.030  0.029 -0.020    0.005  0.001  0.003    0.037  0.031 -0.014
 C         -0.001 -0.001 -0.001    0.001 -0.000 -0.001   -0.001 -0.002 -0.002
 O          0.000 -0.000 -0.000   -0.000 -0.000  0.000   -0.000 -0.000  0.000
 H         -0.002  0.026  0.081   -0.001 -0.019 -0.064    0.003 -0.029 -0.091
 H          0.094  0.144 -0.378   -0.186 -0.285  0.751   -0.073 -0.113  0.299
 H          0.007  0.008 -0.019   -0.008 -0.009  0.020   -0.000 -0.000  0.000
 H          0.001 -0.001  0.006   -0.000  0.000 -0.003   -0.001  0.001 -0.008
 H          0.001  0.025 -0.008    0.001  0.023 -0.007   -0.003 -0.048  0.017
 H          0.275 -0.186  0.140    0.255 -0.174  0.131   -0.252  0.172 -0.131
 H         -0.063 -0.099 -0.458   -0.059 -0.092 -0.423    0.064  0.102  0.460
 H         -0.327 -0.059 -0.226   -0.058 -0.012 -0.036   -0.412 -0.076 -0.280
 H         -0.017 -0.286  0.465   -0.001 -0.001  0.005   -0.015 -0.279  0.453
 H          0.003  0.014  0.009   -0.000  0.005  0.002    0.004  0.034  0.022
 H         -0.003 -0.021 -0.002    0.004  0.024  0.002    0.000  0.002  0.000
 H          0.010  0.003  0.012   -0.011 -0.004 -0.013   -0.001 -0.000 -0.001
 H         -0.000 -0.003 -0.002    0.000  0.002  0.001    0.000  0.004  0.002
 H         -0.005  0.003 -0.001    0.002 -0.001  0.000    0.006 -0.004  0.001
 TransDip   0.030  0.120  0.041   -0.038  0.115  0.007    0.146  0.048 -0.114

 Mode:                73                     74                     75
 Frequency:      3096.22                3109.92                3116.68
 Force Cnst:      6.2516                 6.2246                 6.2965
 Red. Mass:       1.1068                 1.0923                 1.1002
 IR Active:          YES                    YES                    YES
 IR Intens:        0.890                  8.072                 36.316
 Raman Active:       YES                    YES                    YES
               X      Y      Z        X      Y      Z        X      Y      Z
 C         -0.000  0.003  0.010    0.001 -0.021 -0.066    0.001 -0.014 -0.044
 C         -0.001 -0.002  0.006    0.001  0.003 -0.005    0.002  0.004 -0.008
 C          0.000  0.000  0.000   -0.001 -0.001 -0.001   -0.000 -0.001 -0.001
 C         -0.000  0.000  0.000   -0.000  0.000 -0.000   -0.000  0.000 -0.000
 O         -0.000 -0.000 -0.000    0.000  0.000  0.000   -0.000  0.000  0.000
 O         -0.000 -0.000 -0.000   -0.000  0.000  0.000   -0.000  0.000  0.000
 O          0.000  0.000 -0.000    0.000 -0.000  0.000    0.000 -0.000  0.000
 O         -0.000 -0.000 -0.000    0.000 -0.000 -0.000    0.000  0.000  0.000
 C         -0.000  0.000 -0.000    0.000  0.000  0.000   -0.000 -0.000  0.000
 C         -0.000  0.000 -0.000    0.001  0.000  0.000    0.001 -0.000  0.001
 C         -0.001 -0.007  0.002    0.002  0.008 -0.003   -0.001 -0.005  0.001
 C         -0.042  0.019 -0.051    0.017 -0.009  0.018   -0.033  0.013 -0.046
 C          0.032 -0.012  0.053    0.025 -0.008  0.038   -0.028  0.010 -0.044
 C          0.000 -0.002 -0.001    0.001 -0.002 -0.001   -0.000  0.002 -0.000
 O         -0.000  0.000 -0.000   -0.000  0.000  0.000    0.000  0.000  0.001
 H          0.004 -0.039 -0.119   -0.014  0.250  0.776   -0.007  0.166  0.518
 H          0.016  0.026 -0.069   -0.017 -0.026  0.061   -0.023 -0.040  0.098
 H         -0.000 -0.000  0.000    0.000  0.001 -0.001    0.001  0.001 -0.003
 H          0.000 -0.000  0.000   -0.000 -0.001  0.002   -0.001  0.000 -0.005
 H          0.008  0.084 -0.032   -0.011 -0.097  0.037    0.004  0.052 -0.020
 H          0.459 -0.317  0.213   -0.192  0.135 -0.090    0.348 -0.244  0.162
 H          0.043  0.094  0.396   -0.014 -0.033 -0.127    0.044  0.094  0.391
 H         -0.411 -0.084 -0.263   -0.313 -0.064 -0.201    0.353  0.074  0.228
 H          0.026  0.233 -0.369    0.018  0.160 -0.250   -0.021 -0.193  0.301
 H          0.001  0.020  0.014    0.002  0.027  0.019   -0.001 -0.010 -0.006
 H         -0.000 -0.002 -0.000   -0.000 -0.000  0.000    0.001  0.004  0.000
 H          0.000  0.000  0.000   -0.000 -0.000 -0.001   -0.001 -0.000 -0.001
 H         -0.000  0.000  0.000   -0.000 -0.003 -0.002    0.000 -0.003 -0.001
 H          0.000 -0.000  0.000   -0.005  0.003 -0.001   -0.010  0.007 -0.001
 TransDip  -0.017 -0.003  0.025    0.076 -0.050  0.008   -0.100  0.008 -0.165

 Mode:                76                     77                     78
 Frequency:      3122.63                3124.84                3131.98
 Force Cnst:      6.3602                 6.3709                 6.2990
 Red. Mass:       1.1071                 1.1074                 1.0899
 IR Active:          YES                    YES                    YES
 IR Intens:       18.532                 15.560                 21.703
 Raman Active:       YES                    YES                    YES
               X      Y      Z        X      Y      Z        X      Y      Z
 C         -0.000 -0.000 -0.001    0.000  0.000  0.000   -0.000 -0.001 -0.005
 C          0.000  0.000 -0.000   -0.000 -0.000  0.000   -0.000  0.001 -0.001
 C          0.000 -0.000  0.000   -0.000  0.000  0.000   -0.000 -0.001  0.000
 C         -0.000 -0.000 -0.000    0.000  0.000 -0.000   -0.000  0.000 -0.000
 O          0.000 -0.000  0.000    0.000 -0.000 -0.000    0.000  0.000 -0.000
 O          0.000 -0.000  0.000    0.000 -0.000 -0.000    0.000  0.000 -0.000
 O          0.000 -0.000  0.000    0.000  0.000 -0.000    0.000 -0.000  0.000
 O          0.000  0.000  0.000   -0.000  0.000 -0.000    0.000 -0.000  0.000
 C          0.001  0.002 -0.001   -0.028 -0.080  0.044   -0.000 -0.000  0.000
 C         -0.058  0.042 -0.063   -0.002  0.001 -0.002    0.001 -0.000  0.001
 C         -0.000 -0.001  0.000   -0.000  0.000 -0.000   -0.008 -0.079  0.031
 C         -0.000  0.000 -0.000    0.000 -0.000  0.000    0.010 -0.005  0.006
 C         -0.000  0.000 -0.000    0.000 -0.000  0.000    0.003  0.001  0.001
 C         -0.000 -0.000 -0.000   -0.000  0.000  0.000   -0.000 -0.003 -0.003
 O          0.000 -0.000  0.000    0.000  0.000 -0.000   -0.000 -0.000 -0.000
 H          0.000  0.003  0.009    0.000 -0.001 -0.003    0.001  0.017  0.057
 H         -0.001 -0.001  0.002    0.000  0.001 -0.001   -0.003 -0.006  0.015
 H         -0.006 -0.007  0.017    0.205  0.255 -0.617    0.001  0.001 -0.002
 H          0.116 -0.089  0.687    0.004 -0.003  0.021   -0.001  0.001 -0.006
 H          0.001  0.010 -0.004   -0.000 -0.001  0.001    0.092  0.909 -0.358
 H          0.002 -0.002  0.001   -0.001  0.001 -0.000   -0.110  0.074 -0.049
 H          0.000  0.001  0.005   -0.000 -0.000 -0.001   -0.004 -0.008 -0.025
 H          0.003  0.001  0.002   -0.002 -0.000 -0.001   -0.024 -0.005 -0.016
 H         -0.000 -0.002  0.004    0.000  0.001 -0.002    0.000  0.000  0.001
 H          0.000  0.001  0.001    0.000 -0.001 -0.001    0.003  0.048  0.035
 H         -0.003 -0.022 -0.002    0.112  0.696  0.068    0.000 -0.000 -0.000
 H         -0.002 -0.000 -0.002    0.012 -0.010  0.027   -0.001 -0.000 -0.001
 H         -0.013 -0.015 -0.025   -0.000  0.001  0.000    0.000 -0.001 -0.001
 H          0.578 -0.394  0.078    0.017 -0.011  0.002   -0.008  0.005 -0.001
 TransDip  -0.084  0.064 -0.089   -0.026 -0.112  0.053    0.013 -0.145  0.031

 Mode:                79                     80                     81
 Frequency:      3153.26                3156.19                3162.54
 Force Cnst:      6.4820                 6.4922                 6.4267
 Red. Mass:       1.1065                 1.1062                 1.0906
 IR Active:          YES                    YES                    YES
 IR Intens:       14.096                 14.358                  5.594
 Raman Active:       YES                    YES                    YES
               X      Y      Z        X      Y      Z        X      Y      Z
 C         -0.000 -0.000 -0.000   -0.000  0.000 -0.000    0.001  0.001  0.002
 C          0.000  0.000  0.000    0.000  0.000 -0.000    0.000 -0.000  0.001
 C         -0.000 -0.000 -0.000    0.001  0.000 -0.001    0.000  0.000 -0.000
 C          0.001 -0.001 -0.001    0.000  0.000 -0.000    0.000 -0.001 -0.001
 O          0.000  0.000  0.000   -0.000  0.000  0.000   -0.000 -0.000  0.000
 O         -0.000  0.000  0.000   -0.000  0.000  0.000   -0.000 -0.000  0.000
 O          0.000  0.000  0.000   -0.000 -0.000  0.000   -0.000  0.000  0.000
 O         -0.000  0.000  0.000   -0.000 -0.000 -0.000    0.000  0.000  0.000
 C         -0.044 -0.028 -0.079   -0.000  0.000 -0.000   -0.000 -0.000 -0.001
 C         -0.000  0.000  0.000    0.009 -0.074 -0.058    0.000  0.000  0.000
 C         -0.000 -0.000  0.000    0.000 -0.000  0.000    0.001  0.006 -0.001
 C          0.000 -0.000 -0.000    0.000 -0.000 -0.000   -0.001  0.001  0.001
 C          0.000  0.000  0.000    0.000  0.000 -0.000   -0.005 -0.000 -0.002
 C          0.000  0.001  0.001   -0.000 -0.000 -0.000   -0.004 -0.070 -0.051
 O         -0.000  0.000  0.000   -0.000  0.000  0.000   -0.000 -0.000  0.000
 H         -0.000  0.001  0.002   -0.000  0.000  0.001   -0.000 -0.005 -0.017
 H         -0.000 -0.000  0.001   -0.000 -0.000  0.000    0.001  0.003 -0.010
 H         -0.110 -0.139  0.284   -0.001 -0.001  0.003   -0.001 -0.002  0.003
 H          0.000  0.000  0.000    0.063 -0.060  0.308   -0.000  0.000 -0.001
 H          0.000  0.003 -0.001    0.000  0.000 -0.000   -0.005 -0.049  0.020
 H         -0.000  0.000 -0.000   -0.001  0.000 -0.000    0.010 -0.006  0.004
 H          0.000  0.000  0.001    0.000  0.000  0.001   -0.001 -0.001 -0.008
 H         -0.001 -0.000 -0.001   -0.000 -0.000 -0.000    0.051  0.009  0.029
 H         -0.000 -0.000  0.000   -0.000 -0.000  0.000    0.002  0.002 -0.007
 H         -0.000 -0.009 -0.007    0.000  0.003  0.002    0.046  0.801  0.584
 H          0.042  0.295  0.007   -0.000 -0.000 -0.000    0.001  0.005  0.000
 H          0.579  0.183  0.648    0.003  0.001  0.003    0.006  0.002  0.007
 H         -0.000 -0.003 -0.002    0.061  0.782  0.438   -0.000 -0.003 -0.001
 H          0.003 -0.002  0.000   -0.239  0.150 -0.052    0.000 -0.000  0.000
 TransDip  -0.073 -0.028 -0.091   -0.006 -0.103 -0.063   -0.043 -0.058 -0.024

 STANDARD THERMODYNAMIC QUANTITIES AT   298.15 K  AND     1.00 ATM

   This Molecule has  0 Imaginary Frequencies
   Zero point vibrational energy:      149.072 kcal/mol

   Atom    1 Element C  Has Mass   12.00000
   Atom    2 Element C  Has Mass   12.00000
   Atom    3 Element C  Has Mass   12.00000
   Atom    4 Element C  Has Mass   12.00000
   Atom    5 Element O  Has Mass   15.99491
   Atom    6 Element O  Has Mass   15.99491
   Atom    7 Element O  Has Mass   15.99491
   Atom    8 Element O  Has Mass   15.99491
   Atom    9 Element C  Has Mass   12.00000
   Atom   10 Element C  Has Mass   12.00000
   Atom   11 Element C  Has Mass   12.00000
   Atom   12 Element C  Has Mass   12.00000
   Atom   13 Element C  Has Mass   12.00000
   Atom   14 Element C  Has Mass   12.00000
   Atom   15 Element O  Has Mass   15.99491
   Atom   16 Element H  Has Mass    1.00783
   Atom   17 Element H  Has Mass    1.00783
   Atom   18 Element H  Has Mass    1.00783
   Atom   19 Element H  Has Mass    1.00783
   Atom   20 Element H  Has Mass    1.00783
   Atom   21 Element H  Has Mass    1.00783
   Atom   22 Element H  Has Mass    1.00783
   Atom   23 Element H  Has Mass    1.00783
   Atom   24 Element H  Has Mass    1.00783
   Atom   25 Element H  Has Mass    1.00783
   Atom   26 Element H  Has Mass    1.00783
   Atom   27 Element H  Has Mass    1.00783
   Atom   28 Element H  Has Mass    1.00783
   Atom   29 Element H  Has Mass    1.00783
   Molecular Mass:   214.084170 amu
   Principal axes and moments of inertia in amu*Bohr^2:
                             1           2           3
    Eigenvalues --     2459.52871  2964.17476  4690.24206
          X               0.99987     0.01247    -0.00995
          Y              -0.01255     0.99989    -0.00750
          Z               0.00986     0.00763     0.99992
   Rotational Symmetry Number is   1
   The Molecule is an Asymmetric Top
   Translational Enthalpy:        0.889 kcal/mol
   Rotational Enthalpy:           0.889 kcal/mol
   Vibrational Enthalpy:        156.329 kcal/mol
   gas constant (RT):             0.592 kcal/mol
   Translational Entropy:        41.987  cal/mol.K
   Rotational Entropy:           31.903  cal/mol.K
   Vibrational Entropy:          47.882  cal/mol.K

   Total Enthalpy:              158.699 kcal/mol
   Total Entropy:               121.772  cal/mol.K
Archival summary:
1\1\nid04577\FREQ\ProcedureUnspecified\BasisUnspecified\51014\junteng\WedOct420:04:532017WedOct420:04:532017\0\\#,FREQ,ProcedureUnspecified,BasisUnspecified,\\0,1\O\C,1,1.42808\H,2,1.08804,1,110.18\C,1,1.43961,2,97.1147,3,179.41,0\H,4,1.08572,1,109.766,2,177.42,0\C,4,1.54166,1,102.057,2,-57.6987,0\H,6,1.09089,4,110.147,1,-80.354,0\H,6,1.09198,4,112.932,1,158.495,0\C,2,1.54687,1,103.417,3,-124.201,0\H,9,1.09074,2,110.299,1,87.0936,0\H,9,1.09193,2,112.364,1,-152.287,0\C,4,1.54972,1,103.201,2,55.1752,0\H,12,1.09365,4,110.802,1,-144.968,0\C,12,1.51888,4,113.999,1,96.5686,0\O,14,1.20328,12,125.874,4,6.17985,0\O,14,1.35094,12,109.861,4,-178.255,0\C,16,1.43908,14,115.945,12,175.426,0\H,17,1.08803,16,105.492,14,179.839,0\H,17,1.09087,16,110.653,14,60.1598,0\H,17,1.09105,16,109.753,14,-60.8869,0\C,12,1.56332,4,101.704,1,-29.7998,0\H,21,1.08916,12,112.339,4,-123.215,0\C,21,1.51352,12,115.987,4,111.681,0\O,23,1.20441,21,126.86,12,-22.8009,0\O,23,1.35369,21,109.695,12,160.227,0\C,25,1.44016,23,115.986,21,176.275,0\H,26,1.08779,25,105.447,23,-178.545,0\H,26,1.091,25,110.523,23,-58.876,0\H,26,1.09115,25,110.385,23,62.0293,0\\\@

 Total job time:  7415.49s(wall), 39750.42s(cpu) 
 Wed Oct  4 20:04:53 2017

        *************************************************************
        *                                                           *
        *  Thank you very much for using Q-Chem.  Have a nice day.  *
        *                                                           *
        *************************************************************


