nid01081 10.128.4
Q-Chem Developer Version! Running on 10.128.4.*
                  Welcome to Q-Chem
     A Quantum Leap Into The Future Of Chemistry


 Q-Chem 5.0, Q-Chem, Inc., Pleasanton, CA (2017)

 Yihan Shao,  Zhengting Gan,  E. Epifanovsky,  A. T. B. Gilbert,  M. Wormit,  
 J. Kussmann,  A. W. Lange,  A. Behn,  Jia Deng,  Xintian Feng,  D. Ghosh,  
 M. Goldey,  P. R. Horn,  L. D. Jacobson,  I. Kaliman,  T. Kus,  A. Landau,  
 Jie Liu,  E. I. Proynov,  R. M. Richard,  R. P. Steele,  E. J. Sundstrom,  
 H. L. Woodcock III,  P. M. Zimmerman,  D. Zuev,  B. Albrecht,  E. Alguire,  
 S. A. Baeppler,  Z. Benda,  Y. A. Bernard,  E. J. Berquist,  K. B. Bravaya,  
 D. Casanova,  Chun-Min Chang,  Yunqing Chen,  A. Chien,  K. D. Closser,  
 M. P. Coons,  S. Dasgupta,  M. Diedenhofen,  Hainam Do,  R. G. Edgar,  
 Po-Tung Fang,  S. Fatehi,  Qingguo Feng,  Qinghui Ge,  A. Ghysels,  
 J. Gomes,  J. Gonthier,  A. Gunina,  M. W. D. Hanson-Heine,  
 P. H. P. Harbach,  A. W. Hauser,  J. E. Herr,  E. G. Hohenstein,  
 Z. C. Holden,  Kerwin Hui,  T.-C. Jagau,  Hyunjun Ji,  B. Kaduk,  
 K. Khistyaev,  Jaehoon Kim,  P. Klunzinger,  K. Koh,  D. Kosenkov,  
 T. Kowalczyk,  C. M. Krauter,  A. Kunitsa,  Ka Un Lao,  A. Laurent,  
 K. V. Lawler,  Joonho Lee,  D. Lefrancois,  S. Lehtola,  D. S. Levine,  
 Yi-Pei Li,  You-Sheng Lin,  Fenglai Liu,  E. Livshits,  A. Luenser,  
 P. Manohar,  E. Mansoor,  S. F. Manzer,  Shan-Ping Mao,  Yuezhi Mao,  
 N. Mardirossian,  A. V. Marenich,  L. A. Martinez-Martinez,  S. A. Maurer,  
 N. J. Mayhall,  S. C. McKenzie,  J.-M. Mewes,  A. F. Morrison,  K. Nanda,  
 T. S. Nguyen-Beck,  R. Olivares-Amaya,  J. A. Parkhill,  T. M. Perrine,  
 F. Plasser,  S. Prager,  A. Prociuk,  D. R. Rehn,  F. Rob,  M. Schneider,  
 N. Sergueev,  S. M. Sharada,  S. Sharma,  D. W. Small,  T. Stauch,  
 T. Stein,  Yu-Chuan Su,  A. J. W. Thom,  T. Tsuchimochi,  L. Vogt,  
 O. Vydrov,  M. A. Watson,  J. Wenzel,  M. de Wergifosse,  T. A. Wesolowski,  
 A. White,  J. Witte,  A. Yamada,  Jun Yang,  K. Yao,  S. Yeganeh,  
 S. R. Yost,  Zhi-Qiang You,  A. Zech,  Igor Ying Zhang,  Xing Zhang,  
 Yan Zhao,  Ying Zhu,  B. R. Brooks,  G. K. L. Chan,  C. J. Cramer,  
 M. S. Gordon,  W. J. Hehre,  A. Klamt,  M. W. Schmidt,  C. D. Sherrill,  
 D. G. Truhlar,  A. Aspuru-Guzik,  R. Baer,  A. T. Bell,  N. A. Besley,  
 Jeng-Da Chai,  A. Dreuw,  B. D. Dunietz,  T. R. Furlani,  Chao-Ping Hsu,  
 Yousung Jung,  Jing Kong,  D. S. Lambrecht,  WanZhen Liang,  C. Ochsenfeld,  
 V. A. Rassolov,  L. V. Slipchenko,  J. E. Subotnik,  T. Van Voorhis,  
 J. M. Herbert,  A. I. Krylov,  P. M. W. Gill,  M. Head-Gordon

 Contributors to earlier versions of Q-Chem not listed above: 
 R. D. Adamson,  B. Austin,  J. Baker,  G. J. O. Beran,  K. Brandhorst,  
 S. T. Brown,  E. F. C. Byrd,  A. K. Chakraborty,  C.-L. Cheng,  
 Siu Hung Chien,  D. M. Chipman,  D. L. Crittenden,  H. Dachsel,  
 R. A. DiStasio Jr.,  R. J. Doerksen,  A. D. Dutoi,  L. Fusti-Molnar,  
 W. A. Goddard III,  A. Golubeva-Zadorozhnaya,  S. R. Gwaltney,  G. Hawkins,  
 A. Heyden,  S. Hirata,  G. Kedziora,  F. J. Keil,  C. Kelley,  Jihan Kim,  
 R. A. King,  R. Z. Khaliullin,  P. P. Korambath,  W. Kurlancheek,  
 A. M. Lee,  M. S. Lee,  S. V. Levchenko,  Ching Yeh Lin,  D. Liotard,  
 R. C. Lochan,  I. Lotan,  P. E. Maslen,  N. Nair,  D. P. O'Neill,  
 D. Neuhauser,  E. Neuscamman,  C. M. Oana,  R. Olson,  B. Peters,  
 R. Peverati,  P. A. Pieniazek,  Y. M. Rhee,  J. Ritchie,  M. A. Rohrdanz,  
 E. Rosta,  N. J. Russ,  H. F. Schaefer III,  N. E. Schultz,  N. Shenvi,  
 A. C. Simmonett,  A. Sodt,  D. Stuck,  K. S. Thanthiriwatte,  V. Vanovschi,  
 Tao Wang,  A. Warshel,  C. F. Williams,  Q. Wu,  X. Xu,  W. Zhang

 Please cite Q-Chem as follows:
 Y. Shao et al., Mol. Phys. 113, 184-215 (2015)
 DOI: 10.1080/00268976.2014.952696

 Q-Chem 5.0.0 for Intel X86 EM64T Linux

 Parts of Q-Chem use Armadillo 5.200.1 (Boston Tea Smuggler).
 http://arma.sourceforge.net/

 Q-Chem begins on Wed Oct  4 17:29:54 2017  

Host: nid01081
0

     Scratch files written to /global/cscratch1/sd/junteng/scratch/13/opt_1001o-.save//

Checking the input file for inconsistencies... 	...done.

--------------------------------------------------------------
User input:
--------------------------------------------------------------
$molecule
0  1
C    0.656  -1.997   0.550
C   -0.379  -2.055   1.685
C    1.075  -0.633   0.035
C   -0.743  -0.756   2.367
O    2.254  -0.766  -0.643
O    0.466   0.414   0.178
O    0.380  -0.211   2.923
O   -1.879  -0.339   2.537
C    0.159   1.039   3.578
C    2.798   0.433  -1.203
C   -0.074  -2.721  -0.584
C   -0.239  -4.209  -0.268
C   -1.341  -4.194   0.796
C   -1.585  -2.694   0.978
O   -1.425  -2.250  -0.391
H    1.566  -2.528   0.855
H   -0.041  -2.721   2.491
H   -0.505   1.690   2.999
H    2.061   1.233  -1.326
H    0.286  -2.514  -1.595
H   -0.592  -4.755  -1.150
H    0.687  -4.677   0.078
H   -2.237  -4.682   0.398
H   -1.053  -4.703   1.720
H   -2.574  -2.451   1.372
H   -0.249   0.863   4.578
H    1.124   1.543   3.677
H    3.204   0.190  -2.189
H    3.617   0.777  -0.565
$end


$opt
CONSTRAINT
tors    2    1    3    5    162.3
tors    1    2    4    7    -66.6
ENDCONSTRAINT
$end

$rem
JOBTYPE                   OPT
METHOD                    B3LYP
DFT_D                     D3_OP
BASIS                     STO-3G
GEOM_OPT_MAX_CYCLES       500
SYMMETRY                  False
THRESH                    12
SCF_CONVERGENCE           8
MAX_SUB_FILE_NUM          128
MEM_STATIC                400
MEM_TOTAL                 4000
$end

--------------------------------------------------------------
 Adding empirical dispersion correction 
 ----------------------------------------------------------------
 Doing -D3(op) with
 s6 =   1.00000
 s8 =   0.78311
 a1 =   0.30000
 a2 =   4.25000
 n  =  10.00000
 -D3 energy without 3body term =     -0.0301175666 hartrees
 ----------------------------------------------------------------
             Standard Nuclear Orientation (Angstroms)
    I     Atom           X                Y                Z
 ----------------------------------------------------------------
    1      C       0.3697342729    -0.6344652785    -0.5682185024
    2      C       0.5830892856     0.8866305416    -0.5085431759
    3      C      -0.8699014548    -1.2078766031     0.0919214188
    4      C      -0.5598235439     1.7339384151     0.0021824174
    5      O      -1.0906277378    -2.4603631032    -0.4080500553
    6      O      -1.5566019091    -0.6636803128     0.9403504869
    7      O      -1.6498149946     1.5482939899    -0.8007775971
    8      O      -0.4799332706     2.5718972711     0.8880308806
    9      C      -2.8044492191     2.2858543985    -0.3968092184
   10      C      -2.2289112229    -3.1547881210     0.1108156327
   11      C       1.5897974066    -1.1573410878     0.1940667708
   12      C       2.8778742489    -0.9023938644    -0.5914807846
   13      C       3.0736984138     0.6062805862    -0.4118163796
   14      C       1.8273869003     0.9943712392     0.3874040257
   15      O       1.7087539834    -0.1697627505     1.2404077097
   16      H       0.3688686773    -0.9646705244    -1.6141868320
   17      H       0.8207486346     1.2891342672    -1.5030002060
   18      H      -2.9457124994     2.2580152575     0.6891040690
   19      H      -2.5806906233    -2.7639184006     1.0709042303
   20      H       1.5042519872    -2.1684976679     0.6000401094
   21      H       3.7202931181    -1.4355074158    -0.1367617613
   22      H       2.8052766319    -1.2051355012    -1.6399525713
   23      H       3.9784423183     0.7875324718     0.1780566756
   24      H       3.1670514341     1.1432862684    -1.3598201301
   25      H       1.9410338999     1.9133998678     0.9660893801
   26      H      -2.7227111035     3.3187026777    -0.7489218606
   27      H      -3.6791460159     1.8248750106    -0.8631197561
   28      H      -1.9485029726    -4.2023825341     0.2522304790
   29      H      -3.0343825811    -3.1071758873    -0.6274864507
 ----------------------------------------------------------------
 Molecular Point Group                 C1    NOp =  1
 Largest Abelian Subgroup              C1    NOp =  1
 Nuclear Repulsion Energy =  1110.7745787068 hartrees
 There are       57 alpha and       57 beta electrons
 Requested basis set is STO-3G
 There are 44 shells and 89 basis functions

 Total QAlloc Memory Limit   4000 MB
 Mega-Array Size       392 MB
 MEM_STATIC part       400 MB
 A cutoff of  1.0D-12 yielded    865 shell pairs
 There are      3901 function pairs
 
 -------------------------------------------------------
 OpenMP Integral Computing Module                       
 Release: version 1.0, May 2013, Q-Chem Inc. Pittsburgh 
 -------------------------------------------------------
 Integral Job Info:
 Integral job number is                      11
 Integral operator is                         1
 short-range coefficients                     0
 long-range coefficients              100000000
 Omega coefficients                           0
 if combine SR and LR in K                    0
 Integral screening is                        0
 Integral computing path is                   2
 max size of driver memory is            800000
 size of driver memory is                 45569
 size of scratch memory is               945100
 max col of scratch BK array                289
 max len of scratch array in speh3           22
 max len of scratch index in speh4            8
 max int batch size is                      520
 min int batch size is                       52
 fixed nKL is                                52
 max L of basis functions is                  1
 order of int derivative is                   0
 number of shells is                         44
 number of basis is                          89
 number of cartesian basis is                89
 number of contracted shell pairs           865
 number of primitive shell pairs           4854
 maxK2 (contraction) of shell pair            9
 max number of K2 of shell pair               1
 max number of CS2 of shell pair            117
 max number of PS2 of shell pair            570
 mem total for path MDJ                   27818
 -------------------------------------------------------
 Smallest overlap matrix eigenvalue = 1.94E-01

 Scale SEOQF with 1.000000e-01/1.000000e-01/1.000000e-01

 Standard Electronic Orientation quadrupole field applied
 Nucleus-field energy     =     0.0000000330 hartrees
 Guess from superposition of atomic densities
 Warning:  Energy on first SCF cycle will be non-variational
 A restricted hybrid HF-DFT SCF calculation will be
 performed using Pulay DIIS extrapolation
 Exchange:     0.2000 Hartree-Fock + 0.0800 Slater + 0.7200 B88
 Correlation:  0.1900 VWN1RPA + 0.8100 LYP
 Using SG-1 standard quadrature grid
 Dispersion:   Grimme D3
 SCF converges when DIIS error is below 1.0E-08
 -------------------------------------------------------
 OpenMP Integral computing Module                
 Release: version 1.0, May 2013, Q-Chem Inc. Pittsburgh 
 -------------------------------------------------------
 -------------------------------------------------------
 OpenMP BLAS3 based DFT computing Module                
 Release: version 1.0, May 2013, Q-Chem Inc. Pittsburgh 
 -------------------------------------------------------
 ---------------------------------------
  Cycle       Energy         DIIS Error
 ---------------------------------------
    1    -755.1333775847      1.15E-01
    2    -755.4330515638      1.43E-02
    3    -754.4849215495      3.46E-02
    4    -755.6668951176      4.97E-03
    5    -755.6923795685      1.60E-03
    6    -755.6952387513      2.89E-04
    7    -755.6953280194      8.61E-05
    8    -755.6953339718      4.56E-05
    9    -755.6953363169      5.67E-06
   10    -755.6953363555      1.52E-06
   11    -755.6953363583      3.20E-07
   12    -755.6953363584      9.74E-08
   13    -755.6953363584      1.84E-08
   14    -755.6953363584      6.30E-09 Convergence criterion met
 ---------------------------------------
 SCF time:  CPU 61.31 s  wall 2.84 s
 SCF   energy in the final basis set = -755.6953363584
 Total energy in the final basis set = -755.6953363584
 
 --------------------------------------------------------------
 
                    Orbital Energies (a.u.)
 --------------------------------------------------------------
 
 Alpha MOs
 -- Occupied --
-18.943 -18.934 -18.872 -18.868 -18.859 -10.111 -10.104 -10.073
-10.066 -10.061 -10.055 -10.036 -10.033 -10.014 -10.012  -1.042
 -1.033  -0.990  -0.953  -0.945  -0.775  -0.736  -0.726  -0.683
 -0.671  -0.604  -0.551  -0.537  -0.526  -0.488  -0.473  -0.461
 -0.440  -0.428  -0.426  -0.421  -0.415  -0.386  -0.375  -0.365
 -0.353  -0.345  -0.341  -0.326  -0.314  -0.310  -0.301  -0.289
 -0.277  -0.247  -0.240  -0.219  -0.182  -0.172  -0.155  -0.144
 -0.134
 -- Virtual --
  0.113   0.127   0.251   0.273   0.299   0.310   0.345   0.356
  0.375   0.385   0.402   0.409   0.410   0.426   0.432   0.435
  0.443   0.451   0.455   0.460   0.460   0.465   0.475   0.480
  0.491   0.502   0.518   0.541   0.575   0.584   0.702   0.708
 --------------------------------------------------------------
 
          Ground-State Mulliken Net Atomic Charges

     Atom                 Charge (a.u.)
  ----------------------------------------
      1 C                    -0.082971
      2 C                    -0.085571
      3 C                     0.240451
      4 C                     0.242231
      5 O                    -0.189960
      6 O                    -0.229387
      7 O                    -0.191160
      8 O                    -0.229880
      9 C                    -0.125822
     10 C                    -0.130239
     11 C                     0.028296
     12 C                    -0.148142
     13 C                    -0.147404
     14 C                     0.027402
     15 O                    -0.209209
     16 H                     0.089321
     17 H                     0.087279
     18 H                     0.100295
     19 H                     0.102343
     20 H                     0.088273
     21 H                     0.078598
     22 H                     0.072977
     23 H                     0.078897
     24 H                     0.071806
     25 H                     0.097598
     26 H                     0.087949
     27 H                     0.092564
     28 H                     0.092952
     29 H                     0.090514
  ----------------------------------------
  Sum of atomic charges =    -0.000000

 -----------------------------------------------------------------
                    Cartesian Multipole Moments
 -----------------------------------------------------------------
    Charge (ESU x 10^10)
                 0.0000
    Dipole Moment (Debye)
         X      -0.4166      Y      -1.4010      Z      -2.3203
       Tot       2.7423
    Quadrupole Moments (Debye-Ang)
        XX     -73.2573     XY       1.4702     YY     -76.5838
        XZ      -0.8786     YZ      -4.0885     ZZ     -84.4320
    Octopole Moments (Debye-Ang^2)
       XXX     -32.0675    XXY       2.6418    XYY     -21.2123
       YYY     -18.0132    XXZ      -1.5320    XYZ       2.6868
       YYZ       0.4941    XZZ      -5.4483    YZZ      -0.5880
       ZZZ       2.8189
    Hexadecapole Moments (Debye-Ang^3)
      XXXX   -1766.3352   XXXY      -9.1296   XXYY    -491.3941
      XYYY      25.6612   YYYY   -1433.0856   XXXZ      29.3497
      XXYZ       1.9950   XYYZ       9.5677   YYYZ     -42.5702
      XXZZ    -358.3887   XYZZ       4.2414   YYZZ    -298.1186
      XZZZ      -2.0840   YZZZ       6.4186   ZZZZ    -270.9550
 -----------------------------------------------------------------
 Calculating analytic gradient of the SCF energy
 Gradient of SCF Energy
            1           2           3           4           5           6
    1   0.0021799  -0.0079730  -0.0035713  -0.0118003  -0.0264753   0.0361920
    2   0.0147913  -0.0097851  -0.0216101   0.0028776   0.0360793  -0.0275161
    3   0.0422889   0.0229121   0.0047460  -0.0042293   0.0358437  -0.0453326
            7           8           9          10          11          12
    1   0.0164333   0.0007554   0.0161062   0.0147445  -0.0138282  -0.0217591
    2   0.0367505  -0.0371405  -0.0106249   0.0095456   0.0058728   0.0198850
    3   0.0447053  -0.0455882  -0.0072183  -0.0088297  -0.0065146   0.0225080
           13          14          15          16          17          18
    1  -0.0241050  -0.0105318   0.0070337  -0.0006561  -0.0000244   0.0002217
    2  -0.0176790  -0.0004173   0.0029261   0.0044461   0.0029786  -0.0041832
    3   0.0175573  -0.0072092  -0.0670699   0.0053539   0.0078343  -0.0111811
           19          20          21          22          23          24
    1   0.0033618   0.0038078  -0.0013620   0.0001313  -0.0031001  -0.0009921
    2  -0.0087182   0.0089398   0.0060041   0.0020688  -0.0049969  -0.0034859
    3  -0.0085645  -0.0049610  -0.0006986   0.0063589  -0.0026417   0.0059499
           25          26          27          28          29
    1   0.0056966   0.0025947   0.0072903  -0.0031770   0.0128064
    2  -0.0092234  -0.0145968   0.0054778   0.0113557  -0.0000218
    3  -0.0076017  -0.0009062   0.0069966  -0.0001980   0.0056898
 Max gradient component =       6.707E-02
 RMS gradient           =       1.788E-02
 Gradient time:  CPU 24.17 s  wall 1.16 s
 Geometry Optimization Parameters
   NAtoms,    NIC,     NZ,  NCons,   NDum,   NFix, NCnnct, MaxDiis
       29     227       0       2       0       0       0       0


** CONSTRAINED OPTIMIZATION IN DELOCALIZED INTERNAL COORDINATES **
   Searching for a Minimum

   Optimization Cycle:   1

                       Coordinates (Angstroms)
     ATOM                X               Y               Z
      1  C         0.3697342729   -0.6344652785   -0.5682185024
      2  C         0.5830892856    0.8866305416   -0.5085431759
      3  C        -0.8699014548   -1.2078766031    0.0919214188
      4  C        -0.5598235439    1.7339384151    0.0021824174
      5  O        -1.0906277378   -2.4603631032   -0.4080500553
      6  O        -1.5566019091   -0.6636803128    0.9403504869
      7  O        -1.6498149946    1.5482939899   -0.8007775971
      8  O        -0.4799332706    2.5718972711    0.8880308806
      9  C        -2.8044492191    2.2858543985   -0.3968092184
     10  C        -2.2289112229   -3.1547881210    0.1108156327
     11  C         1.5897974066   -1.1573410878    0.1940667708
     12  C         2.8778742489   -0.9023938644   -0.5914807846
     13  C         3.0736984138    0.6062805862   -0.4118163796
     14  C         1.8273869003    0.9943712392    0.3874040257
     15  O         1.7087539834   -0.1697627505    1.2404077097
     16  H         0.3688686773   -0.9646705244   -1.6141868320
     17  H         0.8207486346    1.2891342672   -1.5030002060
     18  H        -2.9457124994    2.2580152575    0.6891040690
     19  H        -2.5806906233   -2.7639184006    1.0709042303
     20  H         1.5042519872   -2.1684976679    0.6000401094
     21  H         3.7202931181   -1.4355074158   -0.1367617613
     22  H         2.8052766319   -1.2051355012   -1.6399525713
     23  H         3.9784423183    0.7875324718    0.1780566756
     24  H         3.1670514341    1.1432862684   -1.3598201301
     25  H         1.9410338999    1.9133998678    0.9660893801
     26  H        -2.7227111035    3.3187026777   -0.7489218606
     27  H        -3.6791460159    1.8248750106   -0.8631197561
     28  H        -1.9485029726   -4.2023825341    0.2522304790
     29  H        -3.0343825811   -3.1071758873   -0.6274864507
   Point Group: c1    Number of degrees of freedom:    81


   Energy is   -755.695336358

              Constraints and their Current Values
                                        Value     Constraint
   Dihedral:        2   1   3   5      161.585      162.300
   Dihedral:        1   2   4   7      -59.895      -66.600

 Attempting to Generate Delocalized Internal Coordinates

   Using Lagrange Multiplier Algorithm


 83 Hessian modes will be used to form the next step
  Hessian Eigenvalues:
    -0.977753   -0.977753    0.045000    0.045000    0.045000    0.045000
     0.045004    0.045352    0.045530    0.048627    0.058814    0.061923
     0.065581    0.067904    0.070808    0.072130    0.074343    0.075916
     0.081732    0.083785    0.084157    0.085390    0.086890    0.088227
     0.091114    0.091429    0.097232    0.098159    0.112260    0.112299
     0.113404    0.116979    0.117194    0.120275    0.121575    0.138015
     0.140421    0.160000    0.160000    0.160000    0.160000    0.160000
     0.160000    0.168655    0.174257    0.246664    0.248450    0.249983
     0.250000    0.250000    0.250000    0.250000    0.257040    0.266186
     0.268519    0.290485    0.293737    0.306576    0.311874    0.329392
     0.338114    0.340326    0.341575    0.341941    0.342237    0.342787
     0.342803    0.343231    0.343866    0.343905    0.343937    0.344082
     0.344477    0.344724    0.345856    0.408772    0.412181    0.516485
     0.516574    0.945024    0.955398    1.022753    1.022753

 Minimum Search - Taking P-RFO Step
 Searching for Lamda that Maximizes Along the Constraint modes Only
 Value Taken    Lamda =   0.00800490
 Searching for Lamda that Minimizes Along All other modes
 Value Taken    Lamda =  -0.07059007
 Calculated Step too Large.  Step scaled by  0.703094
 Step Taken.  Stepsize is  0.300000

                             Maximum     Tolerance    Cnvgd?
         Gradient            0.117030       0.000300      NO
         Displacement        0.103218       0.001200      NO
         Energy change     *********       0.000001      NO


 New Cartesian Coordinates Obtained by Inverse Iteration

 Displacement from previous Coordinates is:  0.752686
 Adding empirical dispersion correction 
 ----------------------------------------------------------------
 Doing -D3(op) with
 s6 =   1.00000
 s8 =   0.78311
 a1 =   0.30000
 a2 =   4.25000
 n  =  10.00000
 -D3 energy without 3body term =     -0.0298640591 hartrees
 ----------------------------------------------------------------
             Standard Nuclear Orientation (Angstroms)
    I     Atom           X                Y                Z
 ----------------------------------------------------------------
    1      C       0.3994662932    -0.6645015332    -0.5915440752
    2      C       0.5919942727     0.8839149423    -0.5198826705
    3      C      -0.8827267003    -1.2247924985     0.0777633162
    4      C      -0.5993884206     1.7133585758     0.0297999924
    5      O      -1.1072624737    -2.5142543778    -0.4198045598
    6      O      -1.5875751461    -0.6563410468     0.9291801338
    7      O      -1.6820197206     1.5761959067    -0.8491545056
    8      O      -0.5571112622     2.5267341761     0.9693325045
    9      C      -2.8587678824     2.3222714118    -0.4233770192
   10      C      -2.2836016553    -3.1649430845     0.1390040228
   11      C       1.6535638905    -1.1797978228     0.1969867318
   12      C       2.9577022168    -0.9085488821    -0.6238779948
   13      C       3.1320758008     0.6300389039    -0.4243421498
   14      C       1.8563549525     0.9813608097     0.4128248360
   15      O       1.7511600627    -0.1988282725     1.2850397369
   16      H       0.4105069888    -1.0034102700    -1.6407983259
   17      H       0.8390131845     1.3120882265    -1.5073663033
   18      H      -3.0321197620     2.2339845787     0.6646989321
   19      H      -2.6060535103    -2.7056602634     1.0911265295
   20      H       1.5697039367    -2.2007383364     0.6040470592
   21      H       3.8091018483    -1.4463300764    -0.1822759718
   22      H       2.8767579972    -1.2072195372    -1.6791407476
   23      H       4.0390760538     0.8309937793     0.1637612980
   24      H       3.2060479202     1.1875719137    -1.3694071055
   25      H       1.9365157570     1.9021549832     1.0128899450
   26      H      -2.7704423039     3.3907689635    -0.6958767025
   27      H      -3.7273598576     1.8944308198    -0.9520201721
   28      H      -2.0336929462    -4.2246720321     0.3226212670
   29      H      -3.1158274705    -3.1215767474    -0.5875489968
 ----------------------------------------------------------------
 Molecular Point Group                 C1    NOp =  1
 Largest Abelian Subgroup              C1    NOp =  1
 Nuclear Repulsion Energy =  1091.7321629828 hartrees
 There are       57 alpha and       57 beta electrons
 Applying Cartesian multipole field
    Component          Value
    ---------          -----
     (2,0,0)        1.00000E-11
     (0,2,0)        2.00000E-11
     (0,0,2)       -3.00000E-11
 Nucleus-field energy     =     0.0000000335 hartrees
 Requested basis set is STO-3G
 There are 44 shells and 89 basis functions
 A cutoff of  1.0D-12 yielded    862 shell pairs
 There are      3898 function pairs
 Smallest overlap matrix eigenvalue = 2.07E-01
 Guess MOs from SCF MO coefficient file
 Reading MOs from coefficient file
 Reading MOs from coefficient file
 A restricted hybrid HF-DFT SCF calculation will be
 performed using Pulay DIIS extrapolation
 Exchange:     0.2000 Hartree-Fock + 0.0800 Slater + 0.7200 B88
 Correlation:  0.1900 VWN1RPA + 0.8100 LYP
 Using SG-1 standard quadrature grid
 Dispersion:   Grimme D3
 SCF converges when DIIS error is below 1.0E-08
 Geometry optimization detected.  Setting ReadMinima to 0
 Setting SaveMinima to 0
 -------------------------------------------------------
 OpenMP Integral computing Module                
 Release: version 1.0, May 2013, Q-Chem Inc. Pittsburgh 
 -------------------------------------------------------
 -------------------------------------------------------
 OpenMP BLAS3 based DFT computing Module                
 Release: version 1.0, May 2013, Q-Chem Inc. Pittsburgh 
 -------------------------------------------------------
 ---------------------------------------
  Cycle       Energy         DIIS Error
 ---------------------------------------
    1    -755.5648322935      5.94E-03
    2    -755.7201825879      2.09E-03
    3    -755.7139062123      3.19E-03
    4    -755.7246714591      6.71E-04
    5    -755.7252028410      1.10E-04
    6    -755.7252177612      2.31E-05
    7    -755.7252179398      2.10E-05
    8    -755.7252184200      4.97E-06
    9    -755.7252184502      8.80E-07
   10    -755.7252184511      3.40E-07
   11    -755.7252184513      4.80E-08
   12    -755.7252184513      1.91E-08
   13    -755.7252184513      3.75E-09 Convergence criterion met
 ---------------------------------------
 SCF time:  CPU 52.60 s  wall 2.21 s
 SCF   energy in the final basis set = -755.7252184513
 Total energy in the final basis set = -755.7252184513
 
 --------------------------------------------------------------
 
                    Orbital Energies (a.u.)
 --------------------------------------------------------------
 
 Alpha MOs
 -- Occupied --
-18.941 -18.929 -18.880 -18.873 -18.861 -10.105 -10.097 -10.068
-10.062 -10.060 -10.054 -10.038 -10.034 -10.017 -10.015  -1.024
 -1.013  -0.974  -0.943  -0.932  -0.765  -0.726  -0.711  -0.672
 -0.662  -0.597  -0.545  -0.536  -0.515  -0.480  -0.462  -0.453
 -0.432  -0.418  -0.418  -0.411  -0.407  -0.380  -0.367  -0.356
 -0.349  -0.340  -0.334  -0.322  -0.309  -0.306  -0.299  -0.283
 -0.273  -0.249  -0.241  -0.227  -0.180  -0.169  -0.156  -0.144
 -0.139
 -- Virtual --
  0.102   0.117   0.241   0.260   0.279   0.294   0.325   0.343
  0.356   0.363   0.380   0.382   0.395   0.415   0.420   0.422
  0.425   0.432   0.433   0.443   0.445   0.448   0.450   0.453
  0.465   0.476   0.501   0.518   0.554   0.561   0.664   0.667
 --------------------------------------------------------------
 
          Ground-State Mulliken Net Atomic Charges

     Atom                 Charge (a.u.)
  ----------------------------------------
      1 C                    -0.078783
      2 C                    -0.081312
      3 C                     0.224018
      4 C                     0.225525
      5 O                    -0.179434
      6 O                    -0.217500
      7 O                    -0.182492
      8 O                    -0.219839
      9 C                    -0.124686
     10 C                    -0.128923
     11 C                     0.026189
     12 C                    -0.145669
     13 C                    -0.144964
     14 C                     0.025326
     15 O                    -0.196593
     16 H                     0.087723
     17 H                     0.085502
     18 H                     0.097160
     19 H                     0.100264
     20 H                     0.084921
     21 H                     0.077596
     22 H                     0.073071
     23 H                     0.077574
     24 H                     0.071595
     25 H                     0.092762
     26 H                     0.084835
     27 H                     0.089185
     28 H                     0.089844
     29 H                     0.087107
  ----------------------------------------
  Sum of atomic charges =     0.000000

 -----------------------------------------------------------------
                    Cartesian Multipole Moments
 -----------------------------------------------------------------
    Charge (ESU x 10^10)
                 0.0000
    Dipole Moment (Debye)
         X      -0.2670      Y      -1.3170      Z      -2.2862
       Tot       2.6518
    Quadrupole Moments (Debye-Ang)
        XX     -72.8143     XY       1.5606     YY     -76.5336
        XZ      -1.1700     YZ      -4.0122     ZZ     -84.5597
    Octopole Moments (Debye-Ang^2)
       XXX     -32.0962    XXY       2.9479    XYY     -21.0044
       YYY     -13.2537    XXZ      -2.3603    XYZ       3.2454
       YYZ       1.0468    XZZ      -5.0687    YZZ      -0.6104
       ZZZ       2.4377
    Hexadecapole Moments (Debye-Ang^3)
      XXXX   -1838.3280   XXXY      -4.2481   XXYY    -503.3327
      XYYY      30.5021   YYYY   -1443.3328   XXXZ      29.2976
      XXYZ       1.7095   XYYZ       9.4795   YYYZ     -41.9699
      XXZZ    -374.2261   XYZZ       7.0567   YYZZ    -305.1072
      XZZZ      -1.4533   YZZZ       6.9634   ZZZZ    -285.9227
 -----------------------------------------------------------------
 Calculating analytic gradient of the SCF energy
 Gradient of SCF Energy
            1           2           3           4           5           6
    1   0.0016286  -0.0068680   0.0018626  -0.0087903  -0.0132981   0.0096566
    2   0.0101822  -0.0056659  -0.0174234  -0.0089990   0.0159839  -0.0073635
    3   0.0209781   0.0003480  -0.0039104  -0.0061550   0.0167539  -0.0114520
            7           8           9          10          11          12
    1   0.0077548   0.0021616   0.0082984   0.0104636  -0.0071122  -0.0069741
    2   0.0182163  -0.0052425  -0.0057764   0.0057571  -0.0000554   0.0049707
    3   0.0216346  -0.0143974  -0.0053855  -0.0072152  -0.0038312   0.0069282
           13          14          15          16          17          18
    1  -0.0073748  -0.0070013   0.0043231  -0.0003926   0.0018605  -0.0009827
    2  -0.0060358   0.0013457   0.0000183   0.0027268   0.0040421  -0.0016237
    3   0.0061379  -0.0020720  -0.0208523   0.0010875   0.0034224  -0.0031395
           19          20          21          22          23          24
    1   0.0002163   0.0022358   0.0000690   0.0018776  -0.0007268   0.0014792
    2  -0.0042142   0.0036355   0.0028124  -0.0002758  -0.0025234  -0.0006601
    3  -0.0013522  -0.0005236  -0.0007062   0.0018574  -0.0013951   0.0018631
           25          26          27          28          29
    1   0.0033191  -0.0000167   0.0007371  -0.0016482   0.0032420
    2  -0.0036289  -0.0038232   0.0018672   0.0025899  -0.0008370
    3  -0.0020671  -0.0014179   0.0029714   0.0006411   0.0012489
 Max gradient component =       2.163E-02
 RMS gradient           =       7.262E-03
 Gradient time:  CPU 13.87 s  wall 0.58 s
 Geometry Optimization Parameters
   NAtoms,    NIC,     NZ,  NCons,   NDum,   NFix, NCnnct, MaxDiis
       29     227       0       2       0       0       0       0

 Cartesian Hessian Update
 Hessian Updated using BFGS Update


** CONSTRAINED OPTIMIZATION IN DELOCALIZED INTERNAL COORDINATES **
   Searching for a Minimum

   Optimization Cycle:   2

                       Coordinates (Angstroms)
     ATOM                X               Y               Z
      1  C         0.3994662932   -0.6645015332   -0.5915440752
      2  C         0.5919942727    0.8839149423   -0.5198826705
      3  C        -0.8827267003   -1.2247924985    0.0777633162
      4  C        -0.5993884206    1.7133585758    0.0297999924
      5  O        -1.1072624737   -2.5142543778   -0.4198045598
      6  O        -1.5875751461   -0.6563410468    0.9291801338
      7  O        -1.6820197206    1.5761959067   -0.8491545056
      8  O        -0.5571112622    2.5267341761    0.9693325045
      9  C        -2.8587678824    2.3222714118   -0.4233770192
     10  C        -2.2836016553   -3.1649430845    0.1390040228
     11  C         1.6535638905   -1.1797978228    0.1969867318
     12  C         2.9577022168   -0.9085488821   -0.6238779948
     13  C         3.1320758008    0.6300389039   -0.4243421498
     14  C         1.8563549525    0.9813608097    0.4128248360
     15  O         1.7511600627   -0.1988282725    1.2850397369
     16  H         0.4105069888   -1.0034102700   -1.6407983259
     17  H         0.8390131845    1.3120882265   -1.5073663033
     18  H        -3.0321197620    2.2339845787    0.6646989321
     19  H        -2.6060535103   -2.7056602634    1.0911265295
     20  H         1.5697039367   -2.2007383364    0.6040470592
     21  H         3.8091018483   -1.4463300764   -0.1822759718
     22  H         2.8767579972   -1.2072195372   -1.6791407476
     23  H         4.0390760538    0.8309937793    0.1637612980
     24  H         3.2060479202    1.1875719137   -1.3694071055
     25  H         1.9365157570    1.9021549832    1.0128899450
     26  H        -2.7704423039    3.3907689635   -0.6958767025
     27  H        -3.7273598576    1.8944308198   -0.9520201721
     28  H        -2.0336929462   -4.2246720321    0.3226212670
     29  H        -3.1158274705   -3.1215767474   -0.5875489968
   Point Group: c1    Number of degrees of freedom:    81


   Energy is   -755.725218451

              Constraints and their Current Values
                                        Value     Constraint
   Dihedral:        2   1   3   5      162.065      162.300
   Dihedral:        1   2   4   7      -64.449      -66.600
 Hessian Updated using BFGS Update

   Using Lagrange Multiplier Algorithm


 75 Hessian modes will be used to form the next step
  Hessian Eigenvalues:
    -0.977830   -0.977752    0.044987    0.045001    0.045020    0.045123
     0.045529    0.048625    0.058811    0.061693    0.065558    0.067850
     0.070822    0.072105    0.074324    0.075850    0.081724    0.083639
     0.084107    0.085406    0.086774    0.088221    0.091038    0.091425
     0.097097    0.098160    0.112192    0.112508    0.113342    0.116981
     0.117192    0.121045    0.123323    0.137699    0.140418    0.159108
     0.161090    0.166885    0.174218    0.241125    0.246827    0.248560
     0.249983    0.250219    0.257536    0.267075    0.268618    0.291770
     0.298930    0.308729    0.321112    0.329612    0.338123    0.340346
     0.341561    0.341932    0.342223    0.342730    0.343136    0.343690
     0.343869    0.343921    0.344072    0.344416    0.344661    0.345784
     0.381052    0.406615    0.416219    0.504421    0.516554    0.949247
     0.972925    1.022687    1.022756

 Minimum Search - Taking P-RFO Step
 Searching for Lamda that Maximizes Along the Constraint modes Only
 Value Taken    Lamda =   0.00056126
 Searching for Lamda that Minimizes Along All other modes
 Value Taken    Lamda =  -0.01357281
 Step Taken.  Stepsize is  0.278305

                             Maximum     Tolerance    Cnvgd?
         Gradient            0.037544       0.000300      NO
         Displacement        0.097636       0.001200      NO
         Energy change     -0.029882       0.000001      NO


 New Cartesian Coordinates Obtained by Inverse Iteration

 Displacement from previous Coordinates is:  1.174326
 Adding empirical dispersion correction 
 ----------------------------------------------------------------
 Doing -D3(op) with
 s6 =   1.00000
 s8 =   0.78311
 a1 =   0.30000
 a2 =   4.25000
 n  =  10.00000
 -D3 energy without 3body term =     -0.0301494210 hartrees
 ----------------------------------------------------------------
             Standard Nuclear Orientation (Angstroms)
    I     Atom           X                Y                Z
 ----------------------------------------------------------------
    1      C       0.4542120453    -0.6939061312    -0.6282770326
    2      C       0.6261222181     0.8663441840    -0.5413447527
    3      C      -0.8723771588    -1.1940547702     0.0310304970
    4      C      -0.6154414648     1.6383201180     0.0308196040
    5      O      -1.1371722367    -2.5092521242    -0.4477209975
    6      O      -1.5847499455    -0.5728676229     0.8526013246
    7      O      -1.6837323054     1.5000192467    -0.9048745696
    8      O      -0.6447423678     2.3841057882     1.0351185643
    9      C      -2.8824378801     2.1974171301    -0.4034355952
   10      C      -2.3778185713    -3.0335788648     0.1555593043
   11      C       1.7126348723    -1.1876078172     0.2023731137
   12      C       3.0213998349    -0.8940007802    -0.6294215529
   13      C       3.1707565619     0.6633373975    -0.4283084393
   14      C       1.8811441799     0.9814586595     0.4228106536
   15      O       1.7768821852    -0.2023319174     1.3072651205
   16      H       0.4860581675    -1.0535341240    -1.6729666967
   17      H       0.8761023756     1.3000807334    -1.5267019567
   18      H      -3.0334654511     2.0253765891     0.6815625527
   19      H      -2.6409928295    -2.4666148954     1.0715737488
   20      H       1.6229888794    -2.2137694398     0.6107449729
   21      H       3.8783454759    -1.4318326991    -0.1922166030
   22      H       2.9267246126    -1.1912244530    -1.6865080095
   23      H       4.0742044326     0.8969441044     0.1586086836
   24      H       3.2156313039     1.2251856992    -1.3753939761
   25      H       1.9139744161     1.9088309482     1.0281908652
   26      H      -2.8156031513     3.2912837829    -0.5826527934
   27      H      -3.7406991582     1.7875556112    -0.9689612300
   28      H      -2.2086116801    -4.0996767490     0.4030006638
   29      H      -3.2142452965    -2.9577543940    -0.5698164592
 ----------------------------------------------------------------
 Molecular Point Group                 C1    NOp =  1
 Largest Abelian Subgroup              C1    NOp =  1
 Nuclear Repulsion Energy =  1091.1596493351 hartrees
 There are       57 alpha and       57 beta electrons
 Applying Cartesian multipole field
    Component          Value
    ---------          -----
     (2,0,0)        1.00000E-11
     (0,2,0)        2.00000E-11
     (0,0,2)       -3.00000E-11
 Nucleus-field energy     =     0.0000000322 hartrees
 Requested basis set is STO-3G
 There are 44 shells and 89 basis functions
 A cutoff of  1.0D-12 yielded    864 shell pairs
 There are      3897 function pairs
 Smallest overlap matrix eigenvalue = 2.13E-01
 Guess MOs from SCF MO coefficient file
 Reading MOs from coefficient file
 Reading MOs from coefficient file
 A restricted hybrid HF-DFT SCF calculation will be
 performed using Pulay DIIS extrapolation
 Exchange:     0.2000 Hartree-Fock + 0.0800 Slater + 0.7200 B88
 Correlation:  0.1900 VWN1RPA + 0.8100 LYP
 Using SG-1 standard quadrature grid
 Dispersion:   Grimme D3
 SCF converges when DIIS error is below 1.0E-08
 Geometry optimization detected.  Setting ReadMinima to 0
 Setting SaveMinima to 0
 -------------------------------------------------------
 OpenMP Integral computing Module                
 Release: version 1.0, May 2013, Q-Chem Inc. Pittsburgh 
 -------------------------------------------------------
 -------------------------------------------------------
 OpenMP BLAS3 based DFT computing Module                
 Release: version 1.0, May 2013, Q-Chem Inc. Pittsburgh 
 -------------------------------------------------------
 ---------------------------------------
  Cycle       Energy         DIIS Error
 ---------------------------------------
    1    -755.6257073805      5.83E-03
    2    -755.7297146132      1.39E-03
    3    -755.7251960490      2.49E-03
    4    -755.7318133691      4.52E-04
    5    -755.7320474578      1.18E-04
    6    -755.7320639855      2.67E-05
    7    -755.7320642532      2.37E-05
    8    -755.7320648720      5.19E-06
    9    -755.7320649054      7.63E-07
   10    -755.7320649060      3.74E-07
   11    -755.7320649062      4.70E-08
   12    -755.7320649062      2.00E-08
   13    -755.7320649062      4.97E-09 Convergence criterion met
 ---------------------------------------
 SCF time:  CPU 54.20 s  wall 2.29 s
 SCF   energy in the final basis set = -755.7320649062
 Total energy in the final basis set = -755.7320649062
 
 --------------------------------------------------------------
 
                    Orbital Energies (a.u.)
 --------------------------------------------------------------
 
 Alpha MOs
 -- Occupied --
-18.941 -18.922 -18.884 -18.881 -18.861 -10.104 -10.091 -10.064
-10.060 -10.055 -10.054 -10.039 -10.032 -10.020 -10.017  -1.018
 -1.001  -0.968  -0.941  -0.925  -0.762  -0.722  -0.705  -0.666
 -0.653  -0.593  -0.544  -0.535  -0.510  -0.476  -0.456  -0.451
 -0.430  -0.415  -0.414  -0.405  -0.402  -0.377  -0.361  -0.353
 -0.345  -0.339  -0.330  -0.323  -0.311  -0.301  -0.298  -0.278
 -0.271  -0.253  -0.244  -0.232  -0.181  -0.165  -0.160  -0.143
 -0.141
 -- Virtual --
  0.094   0.117   0.239   0.255   0.274   0.285   0.313   0.332
  0.345   0.349   0.362   0.373   0.387   0.406   0.414   0.419
  0.420   0.428   0.430   0.433   0.435   0.441   0.442   0.444
  0.453   0.468   0.490   0.511   0.545   0.552   0.645   0.653
 --------------------------------------------------------------
 
          Ground-State Mulliken Net Atomic Charges

     Atom                 Charge (a.u.)
  ----------------------------------------
      1 C                    -0.077711
      2 C                    -0.081076
      3 C                     0.217549
      4 C                     0.217482
      5 O                    -0.170014
      6 O                    -0.209937
      7 O                    -0.177881
      8 O                    -0.216176
      9 C                    -0.127258
     10 C                    -0.132780
     11 C                     0.025074
     12 C                    -0.143884
     13 C                    -0.143534
     14 C                     0.024371
     15 O                    -0.190303
     16 H                     0.087393
     17 H                     0.083837
     18 H                     0.096687
     19 H                     0.101186
     20 H                     0.083467
     21 H                     0.077725
     22 H                     0.073503
     23 H                     0.077147
     24 H                     0.072372
     25 H                     0.090666
     26 H                     0.082463
     27 H                     0.085909
     28 H                     0.088234
     29 H                     0.085488
  ----------------------------------------
  Sum of atomic charges =    -0.000000

 -----------------------------------------------------------------
                    Cartesian Multipole Moments
 -----------------------------------------------------------------
    Charge (ESU x 10^10)
                 0.0000
    Dipole Moment (Debye)
         X      -0.0704      Y      -1.2922      Z      -2.1811
       Tot       2.5361
    Quadrupole Moments (Debye-Ang)
        XX     -72.7296     XY       1.9604     YY     -77.1829
        XZ      -1.5360     YZ      -3.7995     ZZ     -84.6075
    Octopole Moments (Debye-Ang^2)
       XXX     -32.3340    XXY       1.9398    XYY     -17.9454
       YYY      -6.0660    XXZ      -1.6835    XYZ       3.5818
       YYZ       2.8470    XZZ      -4.9947    YZZ      -0.6375
       ZZZ       3.9534
    Hexadecapole Moments (Debye-Ang^3)
      XXXX   -1904.1312   XXXY      -4.5699   XXYY    -503.6760
      XYYY      22.8552   YYYY   -1354.8020   XXXZ      29.7019
      XXYZ      -0.0794   XYYZ       8.5384   YYYZ     -41.8793
      XXZZ    -386.7963   XYZZ       6.3595   YYZZ    -291.1522
      XZZZ      -0.8522   YZZZ       1.8013   ZZZZ    -293.4181
 -----------------------------------------------------------------
 Calculating analytic gradient of the SCF energy
 Gradient of SCF Energy
            1           2           3           4           5           6
    1   0.0018666  -0.0049058  -0.0020260  -0.0054515  -0.0008379  -0.0006897
    2   0.0036969  -0.0044533  -0.0050596  -0.0070445   0.0011726   0.0010729
    3   0.0063792  -0.0053783   0.0001072  -0.0023328   0.0004170  -0.0006353
            7           8           9          10          11          12
    1   0.0026713   0.0007821   0.0042238   0.0046660  -0.0006896  -0.0023694
    2   0.0021096   0.0042665  -0.0013651   0.0046107  -0.0018259  -0.0004217
    3   0.0028316   0.0007695   0.0001936  -0.0021849  -0.0038853  -0.0001428
           13          14          15          16          17          18
    1  -0.0024057  -0.0019315   0.0023574  -0.0001528   0.0029232  -0.0003724
    2   0.0005752   0.0008125   0.0006224   0.0008817   0.0016634   0.0002058
    3  -0.0009833   0.0005417  -0.0006038  -0.0009308   0.0012163   0.0005001
           19          20          21          22          23          24
    1  -0.0006176  -0.0002746   0.0004113   0.0009833   0.0000071   0.0014750
    2  -0.0006595   0.0001630   0.0003506  -0.0009066  -0.0001293   0.0006287
    3   0.0009092   0.0014946   0.0003127   0.0000057   0.0005749   0.0000748
           25          26          27          28          29
    1   0.0007806   0.0000434  -0.0001313   0.0000602  -0.0003956
    2   0.0000173   0.0001683  -0.0006292  -0.0004083  -0.0001150
    3   0.0009832  -0.0004378  -0.0000180   0.0004397  -0.0002176
 Max gradient component =       7.044E-03
 RMS gradient           =       2.212E-03
 Gradient time:  CPU 14.23 s  wall 0.60 s
 Geometry Optimization Parameters
   NAtoms,    NIC,     NZ,  NCons,   NDum,   NFix, NCnnct, MaxDiis
       29     227       0       2       0       0       0       0

 Cartesian Hessian Update
 Hessian Updated using BFGS Update


** CONSTRAINED OPTIMIZATION IN DELOCALIZED INTERNAL COORDINATES **
   Searching for a Minimum

   Optimization Cycle:   3

                       Coordinates (Angstroms)
     ATOM                X               Y               Z
      1  C         0.4542120453   -0.6939061312   -0.6282770326
      2  C         0.6261222181    0.8663441840   -0.5413447527
      3  C        -0.8723771588   -1.1940547702    0.0310304970
      4  C        -0.6154414648    1.6383201180    0.0308196040
      5  O        -1.1371722367   -2.5092521242   -0.4477209975
      6  O        -1.5847499455   -0.5728676229    0.8526013246
      7  O        -1.6837323054    1.5000192467   -0.9048745696
      8  O        -0.6447423678    2.3841057882    1.0351185643
      9  C        -2.8824378801    2.1974171301   -0.4034355952
     10  C        -2.3778185713   -3.0335788648    0.1555593043
     11  C         1.7126348723   -1.1876078172    0.2023731137
     12  C         3.0213998349   -0.8940007802   -0.6294215529
     13  C         3.1707565619    0.6633373975   -0.4283084393
     14  C         1.8811441799    0.9814586595    0.4228106536
     15  O         1.7768821852   -0.2023319174    1.3072651205
     16  H         0.4860581675   -1.0535341240   -1.6729666967
     17  H         0.8761023756    1.3000807334   -1.5267019567
     18  H        -3.0334654511    2.0253765891    0.6815625527
     19  H        -2.6409928295   -2.4666148954    1.0715737488
     20  H         1.6229888794   -2.2137694398    0.6107449729
     21  H         3.8783454759   -1.4318326991   -0.1922166030
     22  H         2.9267246126   -1.1912244530   -1.6865080095
     23  H         4.0742044326    0.8969441044    0.1586086836
     24  H         3.2156313039    1.2251856992   -1.3753939761
     25  H         1.9139744161    1.9088309482    1.0281908652
     26  H        -2.8156031513    3.2912837829   -0.5826527934
     27  H        -3.7406991582    1.7875556112   -0.9689612300
     28  H        -2.2086116801   -4.0996767490    0.4030006638
     29  H        -3.2142452965   -2.9577543940   -0.5698164592
   Point Group: c1    Number of degrees of freedom:    81


   Energy is   -755.732064906

              Constraints and their Current Values
                                        Value     Constraint
   Dihedral:        2   1   3   5      162.298      162.300
   Dihedral:        1   2   4   7      -66.583      -66.600
 Hessian Updated using BFGS Update

   Using Lagrange Multiplier Algorithm


 78 Hessian modes will be used to form the next step
  Hessian Eigenvalues:
    -0.977760   -0.975169    0.042847    0.045000    0.045007    0.045011
     0.045241    0.045624    0.048662    0.058843    0.060599    0.065470
     0.066937    0.070801    0.071945    0.074280    0.075697    0.081750
     0.083591    0.084107    0.085313    0.087359    0.088256    0.091239
     0.091425    0.096361    0.098165    0.111967    0.112680    0.113324
     0.116985    0.117201    0.121814    0.123484    0.138677    0.141283
     0.158228    0.160434    0.161090    0.171720    0.175222    0.245272
     0.247507    0.248892    0.249986    0.250135    0.254948    0.266113
     0.268611    0.277751    0.292656    0.299008    0.308659    0.320311
     0.330347    0.337874    0.340165    0.341045    0.341628    0.342272
     0.342303    0.343024    0.343482    0.343870    0.343919    0.344070
     0.344391    0.344843    0.346010    0.380619    0.391916    0.412905
     0.481982    0.517069    0.950019    0.980933    1.022752    1.035432

 Minimum Search - Taking P-RFO Step
 Searching for Lamda that Maximizes Along the Constraint modes Only
 Value Taken    Lamda =   0.00005563
 Searching for Lamda that Minimizes Along All other modes
 Value Taken    Lamda =  -0.00141035
 Step Taken.  Stepsize is  0.133847

                             Maximum     Tolerance    Cnvgd?
         Gradient            0.010720       0.000300      NO
         Displacement        0.047552       0.001200      NO
         Energy change     -0.006846       0.000001      NO


 New Cartesian Coordinates Obtained by Inverse Iteration

 Displacement from previous Coordinates is:  0.232951
 Adding empirical dispersion correction 
 ----------------------------------------------------------------
 Doing -D3(op) with
 s6 =   1.00000
 s8 =   0.78311
 a1 =   0.30000
 a2 =   4.25000
 n  =  10.00000
 -D3 energy without 3body term =     -0.0301688997 hartrees
 ----------------------------------------------------------------
             Standard Nuclear Orientation (Angstroms)
    I     Atom           X                Y                Z
 ----------------------------------------------------------------
    1      C       0.4623636904    -0.6933662883    -0.6399207981
    2      C       0.6391018144     0.8750033473    -0.5411514543
    3      C      -0.8631321650    -1.1893598323     0.0298248044
    4      C      -0.6091600375     1.6472923839     0.0292382424
    5      O      -1.1539009337    -2.5073168617    -0.4485024629
    6      O      -1.5580267663    -0.5685156117     0.8671726929
    7      O      -1.6806791311     1.5186281795    -0.9196638669
    8      O      -0.6559927134     2.3553666891     1.0582044197
    9      C      -2.9004810686     2.1914008264    -0.4154168571
   10      C      -2.3972287142    -3.0333270838     0.1687879971
   11      C       1.7207941387    -1.1862720674     0.1995219618
   12      C       3.0340489425    -0.8918627796    -0.6294754112
   13      C       3.1872402020     0.6628114266    -0.4227730316
   14      C       1.8940900949     0.9804269936     0.4259316651
   15      O       1.7743719404    -0.2049042930     1.3096839284
   16      H       0.4937522301    -1.0543658774    -1.6832693802
   17      H       0.8783457933     1.3045747362    -1.5305309107
   18      H      -3.0615125334     1.9819233357     0.6608237113
   19      H      -2.6403292158    -2.4587483494     1.0846695592
   20      H       1.6273617586    -2.2162325368     0.5966781823
   21      H       3.8882742177    -1.4382895985    -0.1982449239
   22      H       2.9304203530    -1.1790323345    -1.6883627156
   23      H       4.0927710459     0.8969529410     0.1602896061
   24      H       3.2223589036     1.2244125123    -1.3699199317
   25      H       1.9200409195     1.9089203691     1.0290382646
   26      H      -2.8415302149     3.2913168862    -0.5550091178
   27      H      -3.7464217033     1.7942413879    -1.0071863565
   28      H      -2.2317554889    -4.1008565540     0.4093450657
   29      H      -3.2400932946    -2.9465687365    -0.5471238779
 ----------------------------------------------------------------
 Molecular Point Group                 C1    NOp =  1
 Largest Abelian Subgroup              C1    NOp =  1
 Nuclear Repulsion Energy =  1088.8928711559 hartrees
 There are       57 alpha and       57 beta electrons
 Applying Cartesian multipole field
    Component          Value
    ---------          -----
     (2,0,0)        1.00000E-11
     (0,2,0)        2.00000E-11
     (0,0,2)       -3.00000E-11
 Nucleus-field energy     =     0.0000000321 hartrees
 Requested basis set is STO-3G
 There are 44 shells and 89 basis functions
 A cutoff of  1.0D-12 yielded    864 shell pairs
 There are      3897 function pairs
 Smallest overlap matrix eigenvalue = 2.13E-01
 Guess MOs from SCF MO coefficient file
 Reading MOs from coefficient file
 Reading MOs from coefficient file
 A restricted hybrid HF-DFT SCF calculation will be
 performed using Pulay DIIS extrapolation
 Exchange:     0.2000 Hartree-Fock + 0.0800 Slater + 0.7200 B88
 Correlation:  0.1900 VWN1RPA + 0.8100 LYP
 Using SG-1 standard quadrature grid
 Dispersion:   Grimme D3
 SCF converges when DIIS error is below 1.0E-08
 Geometry optimization detected.  Setting ReadMinima to 0
 Setting SaveMinima to 0
 -------------------------------------------------------
 OpenMP Integral computing Module                
 Release: version 1.0, May 2013, Q-Chem Inc. Pittsburgh 
 -------------------------------------------------------
 -------------------------------------------------------
 OpenMP BLAS3 based DFT computing Module                
 Release: version 1.0, May 2013, Q-Chem Inc. Pittsburgh 
 -------------------------------------------------------
 ---------------------------------------
  Cycle       Energy         DIIS Error
 ---------------------------------------
    1    -755.7161436847      2.02E-03
    2    -755.7325490770      4.17E-04
    3    -755.7317961589      9.23E-04
    4    -755.7327585664      6.36E-05
    5    -755.7327629368      2.73E-05
    6    -755.7327635910      1.38E-05
    7    -755.7327637618      6.35E-06
    8    -755.7327638090      9.92E-07
    9    -755.7327638102      1.93E-07
   10    -755.7327638103      7.62E-08
   11    -755.7327638103      1.90E-08
   12    -755.7327638103      5.05E-09 Convergence criterion met
 ---------------------------------------
 SCF time:  CPU 50.90 s  wall 2.14 s
 SCF   energy in the final basis set = -755.7327638103
 Total energy in the final basis set = -755.7327638103
 
 --------------------------------------------------------------
 
                    Orbital Energies (a.u.)
 --------------------------------------------------------------
 
 Alpha MOs
 -- Occupied --
-18.937 -18.919 -18.885 -18.880 -18.863 -10.102 -10.090 -10.063
-10.061 -10.055 -10.054 -10.039 -10.032 -10.020 -10.018  -1.014
 -0.997  -0.968  -0.938  -0.924  -0.761  -0.721  -0.705  -0.665
 -0.652  -0.593  -0.544  -0.536  -0.508  -0.473  -0.454  -0.451
 -0.430  -0.414  -0.412  -0.404  -0.401  -0.376  -0.361  -0.352
 -0.344  -0.339  -0.330  -0.323  -0.310  -0.302  -0.297  -0.277
 -0.271  -0.251  -0.243  -0.233  -0.179  -0.164  -0.159  -0.144
 -0.142
 -- Virtual --
  0.094   0.116   0.234   0.251   0.269   0.284   0.312   0.331
  0.342   0.346   0.359   0.372   0.385   0.404   0.412   0.419
  0.421   0.426   0.430   0.432   0.436   0.440   0.442   0.443
  0.452   0.467   0.488   0.509   0.543   0.551   0.642   0.653
 --------------------------------------------------------------
 
          Ground-State Mulliken Net Atomic Charges

     Atom                 Charge (a.u.)
  ----------------------------------------
      1 C                    -0.077243
      2 C                    -0.080385
      3 C                     0.215199
      4 C                     0.215722
      5 O                    -0.170062
      6 O                    -0.209530
      7 O                    -0.177429
      8 O                    -0.214282
      9 C                    -0.128884
     10 C                    -0.134039
     11 C                     0.024883
     12 C                    -0.143877
     13 C                    -0.143488
     14 C                     0.024090
     15 O                    -0.188664
     16 H                     0.087554
     17 H                     0.083477
     18 H                     0.096298
     19 H                     0.101065
     20 H                     0.083385
     21 H                     0.077996
     22 H                     0.073769
     23 H                     0.077729
     24 H                     0.072997
     25 H                     0.090618
     26 H                     0.082418
     27 H                     0.086281
     28 H                     0.088787
     29 H                     0.085614
  ----------------------------------------
  Sum of atomic charges =    -0.000000

 -----------------------------------------------------------------
                    Cartesian Multipole Moments
 -----------------------------------------------------------------
    Charge (ESU x 10^10)
                -0.0000
    Dipole Moment (Debye)
         X      -0.0180      Y      -1.2487      Z      -2.1916
       Tot       2.5225
    Quadrupole Moments (Debye-Ang)
        XX     -72.4148     XY       1.9793     YY     -77.0657
        XZ      -1.5353     YZ      -3.7694     ZZ     -84.7526
    Octopole Moments (Debye-Ang^2)
       XXX     -33.3359    XXY       1.8142    XYY     -18.1097
       YYY      -5.6293    XXZ      -1.7578    XYZ       3.7855
       YYZ       3.1538    XZZ      -5.0041    YZZ      -0.8619
       ZZZ       3.5731
    Hexadecapole Moments (Debye-Ang^3)
      XXXX   -1914.9458   XXXY      -5.1287   XXYY    -504.7935
      XYYY      22.5059   YYYY   -1347.5845   XXXZ      30.3589
      XXYZ      -0.1959   XYYZ       8.1294   YYYZ     -39.6224
      XXZZ    -390.1522   XYZZ       6.3422   YYZZ    -291.9544
      XZZZ      -0.6677   YZZZ       3.0052   ZZZZ    -297.4252
 -----------------------------------------------------------------
 Calculating analytic gradient of the SCF energy
 Gradient of SCF Energy
            1           2           3           4           5           6
    1   0.0012656  -0.0012651   0.0017554   0.0001936  -0.0003982  -0.0009006
    2   0.0006936  -0.0008870  -0.0002793  -0.0026700   0.0002654   0.0012253
    3   0.0012354  -0.0023909  -0.0003583  -0.0006855   0.0000096   0.0004519
            7           8           9          10          11          12
    1   0.0002770   0.0004117  -0.0019175  -0.0009030   0.0004473  -0.0003964
    2   0.0006474   0.0021735  -0.0003113  -0.0019056  -0.0015059  -0.0001314
    3   0.0002098   0.0010323  -0.0004439  -0.0001116  -0.0018988  -0.0007540
           13          14          15          16          17          18
    1  -0.0002876   0.0001779   0.0008147  -0.0002801   0.0012169   0.0002494
    2   0.0005336   0.0002301   0.0003908   0.0004326   0.0008574   0.0003978
    3  -0.0012472   0.0006532   0.0020708  -0.0002236   0.0010016  -0.0000181
           19          20          21          22          23          24
    1   0.0001946  -0.0005339   0.0002149   0.0003467   0.0001206   0.0006759
    2   0.0001125   0.0001072   0.0002470  -0.0004509  -0.0002574   0.0002440
    3  -0.0002354   0.0006293   0.0003523  -0.0000333   0.0003431   0.0001283
           25          26          27          28          29
    1  -0.0001161  -0.0001715  -0.0004478  -0.0003916  -0.0003527
    2   0.0000068   0.0001753  -0.0000083  -0.0003657   0.0000326
    3   0.0001795  -0.0000833   0.0001107  -0.0000301   0.0001062
 Max gradient component =       2.670E-03
 RMS gradient           =       8.391E-04
 Gradient time:  CPU 14.36 s  wall 0.60 s
 Geometry Optimization Parameters
   NAtoms,    NIC,     NZ,  NCons,   NDum,   NFix, NCnnct, MaxDiis
       29     227       0       2       0       0       0       0

 Cartesian Hessian Update
 Hessian Updated using BFGS Update


** CONSTRAINED OPTIMIZATION IN DELOCALIZED INTERNAL COORDINATES **
   Searching for a Minimum

   Optimization Cycle:   4

                       Coordinates (Angstroms)
     ATOM                X               Y               Z
      1  C         0.4623636904   -0.6933662883   -0.6399207981
      2  C         0.6391018144    0.8750033473   -0.5411514543
      3  C        -0.8631321650   -1.1893598323    0.0298248044
      4  C        -0.6091600375    1.6472923839    0.0292382424
      5  O        -1.1539009337   -2.5073168617   -0.4485024629
      6  O        -1.5580267663   -0.5685156117    0.8671726929
      7  O        -1.6806791311    1.5186281795   -0.9196638669
      8  O        -0.6559927134    2.3553666891    1.0582044197
      9  C        -2.9004810686    2.1914008264   -0.4154168571
     10  C        -2.3972287142   -3.0333270838    0.1687879971
     11  C         1.7207941387   -1.1862720674    0.1995219618
     12  C         3.0340489425   -0.8918627796   -0.6294754112
     13  C         3.1872402020    0.6628114266   -0.4227730316
     14  C         1.8940900949    0.9804269936    0.4259316651
     15  O         1.7743719404   -0.2049042930    1.3096839284
     16  H         0.4937522301   -1.0543658774   -1.6832693802
     17  H         0.8783457933    1.3045747362   -1.5305309107
     18  H        -3.0615125334    1.9819233357    0.6608237113
     19  H        -2.6403292158   -2.4587483494    1.0846695592
     20  H         1.6273617586   -2.2162325368    0.5966781823
     21  H         3.8882742177   -1.4382895985   -0.1982449239
     22  H         2.9304203530   -1.1790323345   -1.6883627156
     23  H         4.0927710459    0.8969529410    0.1602896061
     24  H         3.2223589036    1.2244125123   -1.3699199317
     25  H         1.9200409195    1.9089203691    1.0290382646
     26  H        -2.8415302149    3.2913168862   -0.5550091178
     27  H        -3.7464217033    1.7942413879   -1.0071863565
     28  H        -2.2317554889   -4.1008565540    0.4093450657
     29  H        -3.2400932946   -2.9465687365   -0.5471238779
   Point Group: c1    Number of degrees of freedom:    81


   Energy is   -755.732763810

              Constraints and their Current Values
                                        Value     Constraint
   Dihedral:        2   1   3   5      162.300      162.300
   Dihedral:        1   2   4   7      -66.599      -66.600
 Hessian Updated using BFGS Update

   Using Lagrange Multiplier Algorithm


 79 Hessian modes will be used to form the next step
  Hessian Eigenvalues:
    -0.975014    0.030886    0.045000    0.045001    0.045011    0.045088
     0.045421    0.045626    0.048664    0.057195    0.059216    0.064811
     0.066078    0.070678    0.071838    0.074230    0.075591    0.081749
     0.083633    0.084088    0.085141    0.087360    0.088270    0.091233
     0.091430    0.096618    0.098168    0.112410    0.112632    0.113739
     0.116985    0.117256    0.121987    0.123424    0.138563    0.141144
     0.158588    0.160071    0.160951    0.161740    0.171491    0.175031
     0.242562    0.247096    0.248791    0.249999    0.250006    0.250212
     0.254533    0.266712    0.268611    0.290838    0.297970    0.300854
     0.309292    0.323745    0.330118    0.338347    0.340500    0.341585
     0.342151    0.342268    0.343008    0.343422    0.343870    0.343907
     0.344039    0.344379    0.344589    0.345431    0.348366    0.386579
     0.411603    0.445290    0.515905    0.550080    0.948357    0.975958
     1.037385

 Minimum Search - Taking P-RFO Step
 Searching for Lamda that Maximizes Along the Constraint modes Only
 Value Taken    Lamda =   0.00000001
 Searching for Lamda that Minimizes Along All other modes
 Value Taken    Lamda =  -0.00030838
 Step Taken.  Stepsize is  0.077920

                             Maximum     Tolerance    Cnvgd?
         Gradient            0.003752       0.000300      NO
         Displacement        0.026761       0.001200      NO
         Energy change     -0.000699       0.000001      NO


 New Cartesian Coordinates Obtained by Inverse Iteration

 Displacement from previous Coordinates is:  0.153456
 Adding empirical dispersion correction 
 ----------------------------------------------------------------
 Doing -D3(op) with
 s6 =   1.00000
 s8 =   0.78311
 a1 =   0.30000
 a2 =   4.25000
 n  =  10.00000
 -D3 energy without 3body term =     -0.0302216116 hartrees
 ----------------------------------------------------------------
             Standard Nuclear Orientation (Angstroms)
    I     Atom           X                Y                Z
 ----------------------------------------------------------------
    1      C       0.4622280036    -0.6934975585    -0.6479343266
    2      C       0.6407030970     0.8765729196    -0.5435069037
    3      C      -0.8608309359    -1.1892632739     0.0248032452
    4      C      -0.6095991402     1.6458990173     0.0244900311
    5      O      -1.1557214137    -2.5047869022    -0.4566541452
    6      O      -1.5490731890    -0.5754326177     0.8721326044
    7      O      -1.6754589608     1.5179740411    -0.9322792729
    8      O      -0.6702721336     2.3337297924     1.0649054896
    9      C      -2.8954316349     2.1804367831    -0.4168544462
   10      C      -2.3970472811    -3.0162426220     0.1757502953
   11      C       1.7185217736    -1.1852681350     0.1973402900
   12      C       3.0349784863    -0.8902121249    -0.6269414735
   13      C       3.1882170073     0.6628951871    -0.4169248702
   14      C       1.8920360131     0.9794539017     0.4263592023
   15      O       1.7637158994    -0.2064548701     1.3080395987
   16      H       0.4958460021    -1.0550387655    -1.6908049575
   17      H       0.8733763247     1.3021440482    -1.5367456994
   18      H      -3.0614415405     1.9443234943     0.6533026824
   19      H      -2.6279668103    -2.4340114384     1.0902768783
   20      H       1.6259389161    -2.2175976113     0.5878709555
   21      H       3.8871789556    -1.4414020584    -0.1985411045
   22      H       2.9291191982    -1.1712052165    -1.6871111291
   23      H       4.0932300229     0.8995935134     0.1652338003
   24      H       3.2188610538     1.2239061050    -1.3644835947
   25      H       1.9144797665     1.9084517291     1.0285485119
   26      H      -2.8353939898     3.2831582661    -0.5306334450
   27      H      -3.7371505790     1.7966373246    -1.0226040742
   28      H      -2.2339602500    -4.0827431964     0.4204295752
   29      H      -3.2439905973    -2.9277665224    -0.5348047128
 ----------------------------------------------------------------
 Molecular Point Group                 C1    NOp =  1
 Largest Abelian Subgroup              C1    NOp =  1
 Nuclear Repulsion Energy =  1089.9891870637 hartrees
 There are       57 alpha and       57 beta electrons
 Applying Cartesian multipole field
    Component          Value
    ---------          -----
     (2,0,0)        1.00000E-11
     (0,2,0)        2.00000E-11
     (0,0,2)       -3.00000E-11
 Nucleus-field energy     =     0.0000000319 hartrees
 Requested basis set is STO-3G
 There are 44 shells and 89 basis functions
 A cutoff of  1.0D-12 yielded    865 shell pairs
 There are      3898 function pairs
 Smallest overlap matrix eigenvalue = 2.13E-01
 Guess MOs from SCF MO coefficient file
 Reading MOs from coefficient file
 Reading MOs from coefficient file
 A restricted hybrid HF-DFT SCF calculation will be
 performed using Pulay DIIS extrapolation
 Exchange:     0.2000 Hartree-Fock + 0.0800 Slater + 0.7200 B88
 Correlation:  0.1900 VWN1RPA + 0.8100 LYP
 Using SG-1 standard quadrature grid
 Dispersion:   Grimme D3
 SCF converges when DIIS error is below 1.0E-08
 Geometry optimization detected.  Setting ReadMinima to 0
 Setting SaveMinima to 0
 -------------------------------------------------------
 OpenMP Integral computing Module                
 Release: version 1.0, May 2013, Q-Chem Inc. Pittsburgh 
 -------------------------------------------------------
 -------------------------------------------------------
 OpenMP BLAS3 based DFT computing Module                
 Release: version 1.0, May 2013, Q-Chem Inc. Pittsburgh 
 -------------------------------------------------------
 ---------------------------------------
  Cycle       Energy         DIIS Error
 ---------------------------------------
    1    -755.7331348254      1.07E-03
    2    -755.7329159400      9.96E-05
    3    -755.7328946694      1.83E-04
    4    -755.7329312422      3.58E-05
    5    -755.7329325749      1.24E-05
    6    -755.7329327490      3.80E-06
    7    -755.7329327669      5.89E-07
    8    -755.7329327670      5.32E-07
    9    -755.7329327673      1.23E-07
   10    -755.7329327674      2.74E-08
   11    -755.7329327674      1.03E-08
   12    -755.7329327674      1.38E-09 Convergence criterion met
 ---------------------------------------
 SCF time:  CPU 49.43 s  wall 2.08 s
 SCF   energy in the final basis set = -755.7329327674
 Total energy in the final basis set = -755.7329327674
 
 --------------------------------------------------------------
 
                    Orbital Energies (a.u.)
 --------------------------------------------------------------
 
 Alpha MOs
 -- Occupied --
-18.937 -18.920 -18.886 -18.880 -18.864 -10.102 -10.091 -10.062
-10.061 -10.055 -10.054 -10.039 -10.032 -10.020 -10.018  -1.014
 -0.998  -0.968  -0.938  -0.925  -0.761  -0.722  -0.705  -0.664
 -0.652  -0.593  -0.544  -0.536  -0.508  -0.473  -0.454  -0.451
 -0.430  -0.414  -0.412  -0.404  -0.401  -0.375  -0.361  -0.352
 -0.344  -0.339  -0.331  -0.324  -0.310  -0.302  -0.297  -0.277
 -0.272  -0.252  -0.244  -0.233  -0.179  -0.165  -0.159  -0.145
 -0.142
 -- Virtual --
  0.094   0.116   0.236   0.252   0.270   0.284   0.312   0.331
  0.342   0.346   0.358   0.372   0.385   0.404   0.411   0.420
  0.422   0.426   0.430   0.432   0.436   0.440   0.442   0.443
  0.451   0.467   0.488   0.508   0.542   0.552   0.643   0.655
 --------------------------------------------------------------
 
          Ground-State Mulliken Net Atomic Charges

     Atom                 Charge (a.u.)
  ----------------------------------------
      1 C                    -0.077313
      2 C                    -0.080382
      3 C                     0.215150
      4 C                     0.215827
      5 O                    -0.169683
      6 O                    -0.210080
      7 O                    -0.177114
      8 O                    -0.213666
      9 C                    -0.129198
     10 C                    -0.134751
     11 C                     0.025076
     12 C                    -0.143981
     13 C                    -0.143512
     14 C                     0.024141
     15 O                    -0.188500
     16 H                     0.087495
     17 H                     0.083161
     18 H                     0.096349
     19 H                     0.101756
     20 H                     0.083290
     21 H                     0.078095
     22 H                     0.073798
     23 H                     0.077967
     24 H                     0.073155
     25 H                     0.090577
     26 H                     0.082520
     27 H                     0.086083
     28 H                     0.088385
     29 H                     0.085353
  ----------------------------------------
  Sum of atomic charges =    -0.000000

 -----------------------------------------------------------------
                    Cartesian Multipole Moments
 -----------------------------------------------------------------
    Charge (ESU x 10^10)
                -0.0000
    Dipole Moment (Debye)
         X       0.0207      Y      -1.2000      Z      -2.1913
       Tot       2.4985
    Quadrupole Moments (Debye-Ang)
        XX     -72.4666     XY       1.9270     YY     -77.1101
        XZ      -1.5074     YZ      -3.7340     ZZ     -84.8196
    Octopole Moments (Debye-Ang^2)
       XXX     -32.8949    XXY       1.9232    XYY     -17.4889
       YYY      -4.4701    XXZ      -1.5789    XYZ       3.8598
       YYZ       3.4657    XZZ      -4.8563    YZZ      -0.8214
       ZZZ       3.7303
    Hexadecapole Moments (Debye-Ang^3)
      XXXX   -1912.4912   XXXY      -5.2725   XXYY    -504.3364
      XYYY      21.0495   YYYY   -1338.6967   XXXZ      30.7087
      XXYZ      -0.1318   XYYZ       8.0387   YYYZ     -38.3763
      XXZZ    -389.9196   XYZZ       6.4206   YYZZ    -290.8388
      XZZZ      -0.4068   YZZZ       3.4414   ZZZZ    -299.0798
 -----------------------------------------------------------------
 Calculating analytic gradient of the SCF energy
 Gradient of SCF Energy
            1           2           3           4           5           6
    1   0.0005908  -0.0004685   0.0001940  -0.0000903   0.0006478  -0.0007108
    2  -0.0006475  -0.0000286  -0.0002057   0.0004924  -0.0007539   0.0002099
    3  -0.0006964  -0.0000831   0.0005631   0.0005667  -0.0010742   0.0003240
            7           8           9          10          11          12
    1  -0.0004760   0.0001582  -0.0006999  -0.0006829   0.0005039   0.0003047
    2  -0.0003818   0.0005115   0.0000204   0.0001454  -0.0004526  -0.0001063
    3  -0.0014584   0.0001913   0.0003692   0.0006401  -0.0005065  -0.0004919
           13          14          15          16          17          18
    1   0.0002320   0.0004235   0.0000737  -0.0001825   0.0003076   0.0002562
    2   0.0002212  -0.0003378   0.0001611   0.0002183   0.0003560   0.0002377
    3  -0.0005830   0.0006064   0.0013733  -0.0001023   0.0001854   0.0001602
           19          20          21          22          23          24
    1  -0.0000343  -0.0003280   0.0000193   0.0000631   0.0000022   0.0001438
    2   0.0001142   0.0000686   0.0001617  -0.0001729  -0.0002427   0.0000976
    3   0.0001265   0.0000390   0.0001921   0.0000119   0.0001262   0.0000780
           25          26          27          28          29
    1  -0.0002937  -0.0001066   0.0000730   0.0001668  -0.0000870
    2   0.0001085   0.0001599  -0.0002007   0.0000482   0.0001980
    3  -0.0001736  -0.0002085   0.0000810  -0.0002023  -0.0000540
 Max gradient component =       1.458E-03
 RMS gradient           =       4.139E-04
 Gradient time:  CPU 14.34 s  wall 0.60 s
 Geometry Optimization Parameters
   NAtoms,    NIC,     NZ,  NCons,   NDum,   NFix, NCnnct, MaxDiis
       29     227       0       2       0       0       0       0

 Cartesian Hessian Update
 Hessian Updated using BFGS Update


** CONSTRAINED OPTIMIZATION IN DELOCALIZED INTERNAL COORDINATES **
   Searching for a Minimum

   Optimization Cycle:   5

                       Coordinates (Angstroms)
     ATOM                X               Y               Z
      1  C         0.4622280036   -0.6934975585   -0.6479343266
      2  C         0.6407030970    0.8765729196   -0.5435069037
      3  C        -0.8608309359   -1.1892632739    0.0248032452
      4  C        -0.6095991402    1.6458990173    0.0244900311
      5  O        -1.1557214137   -2.5047869022   -0.4566541452
      6  O        -1.5490731890   -0.5754326177    0.8721326044
      7  O        -1.6754589608    1.5179740411   -0.9322792729
      8  O        -0.6702721336    2.3337297924    1.0649054896
      9  C        -2.8954316349    2.1804367831   -0.4168544462
     10  C        -2.3970472811   -3.0162426220    0.1757502953
     11  C         1.7185217736   -1.1852681350    0.1973402900
     12  C         3.0349784863   -0.8902121249   -0.6269414735
     13  C         3.1882170073    0.6628951871   -0.4169248702
     14  C         1.8920360131    0.9794539017    0.4263592023
     15  O         1.7637158994   -0.2064548701    1.3080395987
     16  H         0.4958460021   -1.0550387655   -1.6908049575
     17  H         0.8733763247    1.3021440482   -1.5367456994
     18  H        -3.0614415405    1.9443234943    0.6533026824
     19  H        -2.6279668103   -2.4340114384    1.0902768783
     20  H         1.6259389161   -2.2175976113    0.5878709555
     21  H         3.8871789556   -1.4414020584   -0.1985411045
     22  H         2.9291191982   -1.1712052165   -1.6871111291
     23  H         4.0932300229    0.8995935134    0.1652338003
     24  H         3.2188610538    1.2239061050   -1.3644835947
     25  H         1.9144797665    1.9084517291    1.0285485119
     26  H        -2.8353939898    3.2831582661   -0.5306334450
     27  H        -3.7371505790    1.7966373246   -1.0226040742
     28  H        -2.2339602500   -4.0827431964    0.4204295752
     29  H        -3.2439905973   -2.9277665224   -0.5348047128
   Point Group: c1    Number of degrees of freedom:    81


   Energy is   -755.732932767

              Constraints and their Current Values
                                        Value     Constraint
   Dihedral:        2   1   3   5      162.300      162.300
   Dihedral:        1   2   4   7      -66.600      -66.600
 Hessian Updated using BFGS Update

 78 Hessian modes will be used to form the next step
  Hessian Eigenvalues:
     0.021847    0.045000    0.045003    0.045030    0.045195    0.045602
     0.046020    0.048760    0.057076    0.059683    0.064775    0.066631
     0.071036    0.071734    0.074175    0.075607    0.081745    0.083768
     0.084081    0.085175    0.087363    0.088272    0.091230    0.091429
     0.097074    0.098182    0.112326    0.112692    0.113469    0.116985
     0.117262    0.121672    0.123700    0.138791    0.141032    0.158995
     0.159968    0.160192    0.160942    0.162566    0.170996    0.176833
     0.244670    0.247671    0.249440    0.249785    0.250060    0.251867
     0.262678    0.268606    0.270204    0.292213    0.298889    0.308723
     0.319585    0.328521    0.334530    0.339292    0.340536    0.341634
     0.342232    0.342308    0.343080    0.343675    0.343866    0.343882
     0.344072    0.344379    0.344976    0.346151    0.358783    0.378858
     0.412043    0.453459    0.511818    0.544692    0.949125    0.972003

 Minimum Search - Taking Simple RFO Step
 Searching for Lamda that Minimizes Along All modes
 Value Taken    Lamda =  -0.00009832
 Step Taken.  Stepsize is  0.049780

                             Maximum     Tolerance    Cnvgd?
         Gradient           0.001672      0.000300      NO
         Displacement       0.018233      0.001200      NO
         Energy change     -0.000169      0.000001      NO


 New Cartesian Coordinates Obtained by Inverse Iteration

 Displacement from previous Coordinates is:  0.091667
 Adding empirical dispersion correction 
[...]
 C         -0.000  0.000  0.000    0.041 -0.037 -0.034   -0.003  0.002 -0.003
 C         -0.000 -0.000  0.000    0.050  0.033 -0.020    0.002  0.003  0.003
 C         -0.000  0.000 -0.000   -0.001  0.008  0.003    0.003 -0.009 -0.008
 O          0.000 -0.000  0.000   -0.001 -0.000  0.000   -0.000 -0.003 -0.003
 H          0.000  0.000  0.000    0.025  0.001 -0.002    0.207  0.069 -0.048
 H         -0.002  0.001 -0.001    0.052 -0.026  0.000   -0.036 -0.013 -0.004
 H          0.138  0.611  0.286    0.007 -0.001  0.002   -0.042 -0.007 -0.030
 H         -0.004 -0.013 -0.057   -0.000 -0.000  0.001    0.046  0.114  0.006
 H          0.001  0.000  0.000    0.021 -0.016 -0.003   -0.004 -0.004  0.008
 H         -0.000 -0.001 -0.001   -0.049  0.200  0.456   -0.018 -0.007  0.018
 H          0.001 -0.001  0.000   -0.397  0.306 -0.051    0.001  0.006 -0.005
 H          0.000 -0.000 -0.001   -0.145 -0.286  0.365    0.012 -0.012 -0.010
 H          0.000  0.000  0.000   -0.441 -0.166 -0.153   -0.001 -0.003 -0.001
 H         -0.000 -0.001  0.001    0.016  0.015 -0.003   -0.001 -0.014 -0.014
 H         -0.213 -0.028  0.604    0.005 -0.000  0.000   -0.059 -0.008 -0.039
 H          0.226 -0.083 -0.218    0.006 -0.003 -0.005   -0.066  0.065  0.044
 H          0.045 -0.015 -0.009   -0.000  0.003  0.001    0.076  0.091  0.034
 H         -0.031  0.008 -0.001    0.000  0.001 -0.002    0.152  0.047 -0.106
 TransDip   0.060  0.023  0.061   -0.048  0.003  0.063   -0.224  0.108  0.096

 Mode:                67                     68                     69
 Frequency:      1804.83                3049.59                3049.91
 Force Cnst:     22.0310                 5.6411                 5.6413
 Red. Mass:      11.4792                 1.0295                 1.0293
 IR Active:          YES                    YES                    YES
 IR Intens:      390.320                 23.324                 47.149
 Raman Active:       YES                    YES                    YES
               X      Y      Z        X      Y      Z        X      Y      Z
 C          0.021 -0.008 -0.030    0.000  0.000  0.001    0.000  0.000  0.000
 C          0.016 -0.030 -0.036    0.001  0.001 -0.003   -0.000 -0.001  0.003
 C         -0.194  0.131  0.280   -0.000 -0.002 -0.001   -0.000 -0.001 -0.001
 C         -0.033  0.437  0.529    0.001  0.000  0.001   -0.002 -0.001 -0.002
 O          0.011 -0.009 -0.017    0.002  0.002 -0.000    0.001  0.001 -0.000
 O          0.114 -0.096 -0.179   -0.000  0.000  0.001   -0.000  0.000  0.000
 O         -0.003 -0.023 -0.033   -0.001  0.000 -0.000    0.002 -0.001  0.000
 O         -0.001 -0.278 -0.342   -0.000 -0.000 -0.000    0.000  0.001  0.001
 C         -0.019  0.016  0.013   -0.015  0.012  0.010    0.027 -0.020 -0.018
 C         -0.012 -0.004  0.008    0.030  0.008 -0.022    0.017  0.005 -0.013
 C          0.010  0.001  0.010   -0.000  0.000 -0.000   -0.000  0.000 -0.000
 C         -0.002  0.001 -0.003    0.000 -0.000 -0.000    0.000 -0.000 -0.000
 C         -0.005 -0.003 -0.006   -0.000 -0.000  0.000    0.001  0.001 -0.000
 C          0.004  0.005  0.016   -0.000  0.000  0.000   -0.000  0.000  0.000
 O         -0.001 -0.002 -0.008    0.000  0.000  0.000    0.000  0.000  0.000
 H          0.117  0.046 -0.041   -0.000 -0.004 -0.011   -0.000 -0.000 -0.000
 H          0.112 -0.120 -0.026   -0.007 -0.011  0.030    0.008  0.012 -0.033
 H          0.109 -0.045  0.051    0.093  0.116 -0.271   -0.164 -0.203  0.476
 H          0.023  0.059  0.004   -0.436  0.329 -0.047   -0.249  0.188 -0.027
 H         -0.022 -0.007 -0.013   -0.001 -0.003  0.001    0.000 -0.000 -0.000
 H         -0.015 -0.011  0.009   -0.004  0.003 -0.002   -0.002  0.002 -0.001
 H          0.006  0.002 -0.004    0.001  0.001  0.006    0.000  0.001  0.003
 H         -0.022  0.016  0.021    0.003  0.001  0.002   -0.008 -0.002 -0.006
 H          0.006 -0.003 -0.004    0.000  0.004 -0.006   -0.000 -0.007  0.012
 H         -0.055  0.044 -0.003    0.000  0.000  0.000    0.000 -0.001 -0.001
 H          0.121  0.011  0.029   -0.053 -0.306 -0.020    0.092  0.537  0.034
 H          0.131 -0.106 -0.084    0.151  0.047  0.164   -0.264 -0.082 -0.287
 H          0.039  0.048  0.020    0.108 -0.112  0.528    0.062 -0.064  0.302
 H          0.080  0.025 -0.057   -0.049 -0.325 -0.203   -0.028 -0.185 -0.116
 TransDip  -0.007  0.425  0.469    0.040  0.144 -0.040    0.217 -0.029 -0.023

 Mode:                70                     71                     72
 Frequency:      3056.84                3061.11                3067.69
 Force Cnst:      5.8659                 5.9336                 5.8920
 Red. Mass:       1.0655                 1.0748                 1.0627
 IR Active:          YES                    YES                    YES
 IR Intens:       14.106                 16.280                 36.098
 Raman Active:       YES                    YES                    YES
               X      Y      Z        X      Y      Z        X      Y      Z
 C         -0.000  0.002  0.007    0.000  0.001  0.005   -0.000  0.002  0.007
 C          0.009  0.014 -0.037    0.014  0.022 -0.060    0.005  0.008 -0.023
 C         -0.000 -0.000  0.000   -0.000 -0.000  0.000   -0.000 -0.000  0.000
 C         -0.000 -0.000 -0.001   -0.000 -0.000 -0.002   -0.000  0.000 -0.001
 O          0.000  0.000 -0.000    0.000  0.000 -0.000    0.000  0.000 -0.000
 O          0.000 -0.000 -0.000    0.000  0.000 -0.000    0.000 -0.000 -0.000
 O          0.000 -0.000  0.000    0.000 -0.000  0.000    0.000 -0.000  0.000
 O          0.000  0.000  0.000    0.000  0.000  0.000    0.000  0.000  0.000
 C          0.001 -0.001 -0.001    0.001 -0.001 -0.001    0.000 -0.000  0.000
 C         -0.000 -0.000  0.000   -0.000 -0.000  0.000   -0.000 -0.000  0.000
 C          0.000  0.002 -0.001    0.000 -0.002  0.001   -0.000  0.004 -0.002
 C          0.018 -0.024 -0.026   -0.018  0.025  0.026    0.015 -0.024 -0.027
 C         -0.028 -0.027  0.020    0.008  0.003  0.001    0.039  0.032 -0.016
 C          0.001  0.001  0.000    0.001 -0.000 -0.001   -0.001 -0.002 -0.002
 O         -0.000  0.000  0.000   -0.000 -0.000  0.000   -0.000 -0.000  0.000
 H          0.002 -0.029 -0.086   -0.001 -0.018 -0.057    0.002 -0.027 -0.082
 H         -0.111 -0.164  0.452   -0.178 -0.263  0.726   -0.066 -0.099  0.272
 H         -0.007 -0.009  0.021   -0.008 -0.008  0.020   -0.000  0.000 -0.000
 H          0.005 -0.004  0.001    0.002 -0.001  0.000    0.005 -0.004  0.001
 H         -0.002 -0.027  0.009    0.001  0.025 -0.008   -0.004 -0.049  0.018
 H         -0.267  0.184 -0.141    0.272 -0.188  0.144   -0.240  0.166 -0.129
 H          0.063  0.104  0.443   -0.064 -0.106 -0.449    0.063  0.106  0.441
 H          0.310  0.055  0.209   -0.088 -0.017 -0.055   -0.436 -0.080 -0.288
 H          0.015  0.259 -0.442   -0.002 -0.024  0.044   -0.015 -0.280  0.475
 H         -0.003 -0.013 -0.007    0.000  0.007  0.003    0.005  0.035  0.022
 H          0.004  0.023  0.001    0.004  0.024  0.001    0.000  0.001  0.000
 H         -0.012 -0.004 -0.013   -0.011 -0.004 -0.013   -0.001 -0.000 -0.001
 H         -0.001  0.001 -0.007   -0.001  0.001 -0.003   -0.001  0.002 -0.008
 H          0.001  0.004  0.002    0.000  0.002  0.001    0.001  0.003  0.002
 TransDip  -0.027 -0.109 -0.044   -0.033  0.125  0.007    0.148  0.048 -0.113

 Mode:                73                     74                     75
 Frequency:      3096.70                3111.41                3117.69
 Force Cnst:      6.2540                 6.2434                 6.2884
 Red. Mass:       1.1069                 1.0946                 1.0981
 IR Active:          YES                    YES                    YES
 IR Intens:        0.835                 10.153                 33.999
 Raman Active:       YES                    YES                    YES
               X      Y      Z        X      Y      Z        X      Y      Z
 C         -0.000  0.003  0.010    0.001 -0.020 -0.060    0.001 -0.017 -0.050
 C         -0.001 -0.002  0.005    0.001  0.002 -0.004    0.002  0.004 -0.008
 C          0.000  0.000  0.000   -0.001 -0.001 -0.001   -0.000 -0.001 -0.001
 C         -0.000  0.000  0.000   -0.000  0.000 -0.000   -0.000  0.000 -0.000
 O         -0.000 -0.000 -0.000    0.000  0.000  0.000   -0.000  0.000  0.000
 O         -0.000 -0.000 -0.000   -0.000  0.000  0.000   -0.000  0.000  0.000
 O          0.000  0.000 -0.000    0.000 -0.000  0.000    0.000 -0.000  0.000
 O         -0.000 -0.000 -0.000    0.000 -0.000 -0.000    0.000  0.000  0.000
 C         -0.000  0.000 -0.000    0.000  0.000  0.000   -0.000 -0.000  0.000
 C         -0.000  0.000 -0.000    0.000  0.000  0.000    0.001 -0.000  0.001
 C         -0.001 -0.008  0.003    0.002  0.009 -0.004   -0.001 -0.004  0.000
 C         -0.043  0.019 -0.053    0.020 -0.009  0.023   -0.030  0.011 -0.043
 C          0.031 -0.012  0.052    0.028 -0.009  0.043   -0.026  0.009 -0.041
 C          0.000 -0.002 -0.001    0.000 -0.003 -0.001    0.000  0.002 -0.000
 O          0.000  0.000 -0.000   -0.000  0.000  0.000    0.000  0.000  0.001
 H          0.004 -0.038 -0.111   -0.012  0.239  0.713   -0.007  0.200  0.599
 H          0.015  0.024 -0.067   -0.014 -0.019  0.047   -0.024 -0.040  0.103
 H         -0.000 -0.000  0.000    0.000  0.001 -0.001    0.001  0.001 -0.004
 H          0.000 -0.000  0.000   -0.004  0.003 -0.000   -0.011  0.008 -0.001
 H          0.010  0.089 -0.036   -0.014 -0.111  0.044    0.003  0.039 -0.016
 H          0.461 -0.324  0.222   -0.220  0.157 -0.106    0.312 -0.222  0.151
 H          0.046  0.105  0.407   -0.020 -0.046 -0.168    0.043  0.094  0.363
 H         -0.399 -0.080 -0.248   -0.351 -0.071 -0.219    0.326  0.067  0.204
 H          0.025  0.224 -0.372    0.020  0.178 -0.292   -0.019 -0.175  0.287
 H          0.001  0.020  0.013    0.002  0.028  0.019   -0.001 -0.007 -0.004
 H         -0.000 -0.002 -0.000   -0.000 -0.001  0.000    0.001  0.005  0.000
 H          0.000  0.000  0.000   -0.000 -0.000 -0.001   -0.001 -0.000 -0.001
 H          0.000 -0.000  0.000    0.000 -0.001  0.003   -0.001  0.001 -0.005
 H         -0.000  0.000  0.000   -0.000 -0.003 -0.002   -0.000 -0.003 -0.002
 TransDip  -0.020 -0.004  0.021    0.085 -0.049  0.027   -0.090  0.002 -0.164

 Mode:                76                     77                     78
 Frequency:      3122.57                3125.00                3130.41
 Force Cnst:      6.3597                 6.3716                 6.2928
 Red. Mass:       1.1070                 1.1074                 1.0899
 IR Active:          YES                    YES                    YES
 IR Intens:       18.479                 15.491                 22.274
 Raman Active:       YES                    YES                    YES
               X      Y      Z        X      Y      Z        X      Y      Z
 C         -0.000 -0.000 -0.001    0.000  0.000  0.000   -0.000 -0.002 -0.006
 C          0.000  0.000 -0.000   -0.000 -0.000  0.000   -0.000  0.001 -0.001
 C          0.000 -0.000  0.000   -0.000  0.000  0.000   -0.000 -0.001  0.000
 C         -0.000 -0.000 -0.000    0.000  0.000 -0.000   -0.000  0.000 -0.000
 O          0.000 -0.000  0.000    0.000 -0.000 -0.000    0.000  0.000 -0.000
 O          0.000 -0.000  0.000    0.000 -0.000 -0.000    0.000  0.000 -0.000
 O          0.000 -0.000  0.000    0.000  0.000 -0.000    0.000 -0.000  0.000
 O          0.000  0.000  0.000   -0.000  0.000 -0.000    0.000 -0.000  0.000
 C          0.001  0.002 -0.001   -0.028 -0.079  0.045   -0.000 -0.000  0.000
 C         -0.057  0.047 -0.060   -0.002  0.001 -0.002    0.001 -0.001  0.001
 C         -0.000 -0.001  0.000   -0.000  0.000 -0.000   -0.009 -0.078  0.032
 C         -0.000  0.000 -0.000    0.000 -0.000  0.000    0.010 -0.006  0.007
 C         -0.000  0.000 -0.000    0.000 -0.000  0.000    0.003  0.001  0.001
 C         -0.000 -0.000 -0.000   -0.000  0.000  0.000   -0.000 -0.003 -0.003
 O          0.000 -0.000  0.000    0.000  0.000 -0.000   -0.000 -0.000 -0.000
 H          0.000  0.003  0.010    0.000 -0.001 -0.004    0.001  0.021  0.066
 H         -0.001 -0.001  0.003    0.000  0.001 -0.001   -0.004 -0.006  0.016
 H         -0.005 -0.007  0.017    0.203  0.246 -0.621    0.001  0.001 -0.003
 H          0.559 -0.429  0.043    0.016 -0.012  0.001   -0.009  0.007 -0.001
 H          0.002  0.014 -0.006   -0.000 -0.001  0.001    0.106  0.900 -0.373
 H          0.002 -0.001  0.001   -0.001  0.001 -0.000   -0.114  0.078 -0.053
 H          0.000  0.001  0.004   -0.000 -0.000 -0.002   -0.004 -0.009 -0.027
 H          0.003  0.001  0.002   -0.002 -0.000 -0.001   -0.028 -0.006 -0.018
 H         -0.000 -0.002  0.004    0.000  0.002 -0.003    0.000  0.002 -0.001
 H          0.000  0.001  0.001   -0.000 -0.001 -0.001    0.003  0.046  0.032
 H         -0.004 -0.021 -0.002    0.122  0.696  0.060    0.000 -0.000  0.000
 H         -0.002 -0.000 -0.002    0.008 -0.011  0.023   -0.001 -0.000 -0.001
 H          0.128 -0.128  0.677    0.004 -0.004  0.020   -0.001  0.002 -0.009
 H         -0.012  0.007 -0.013   -0.000  0.002  0.001    0.000 -0.001 -0.001
 TransDip  -0.083  0.067 -0.087   -0.026 -0.110  0.055    0.012 -0.147  0.034

 Mode:                79                     80                     81
 Frequency:      3153.19                3156.10                3162.92
 Force Cnst:      6.4818                 6.4924                 6.4284
 Red. Mass:       1.1065                 1.1063                 1.0906
 IR Active:          YES                    YES                    YES
 IR Intens:       13.977                 14.406                  5.674
 Raman Active:       YES                    YES                    YES
               X      Y      Z        X      Y      Z        X      Y      Z
 C         -0.000 -0.000 -0.000   -0.000  0.000 -0.000    0.001  0.001  0.002
 C          0.000  0.000  0.000    0.000  0.000 -0.000    0.000 -0.000  0.001
 C         -0.000 -0.000 -0.000    0.001  0.000 -0.001    0.000  0.000 -0.000
 C          0.001 -0.001 -0.001    0.000  0.000 -0.000   -0.000 -0.001 -0.001
 O          0.000  0.000  0.000   -0.000  0.000  0.000   -0.000 -0.000  0.000
 O         -0.000  0.000  0.000   -0.000  0.000  0.000   -0.000 -0.000  0.000
 O          0.000  0.000  0.000   -0.000 -0.000  0.000   -0.000  0.000  0.000
 O         -0.000  0.000  0.000   -0.000 -0.000  0.000    0.000  0.000  0.000
 C         -0.045 -0.029 -0.078   -0.000  0.000 -0.000   -0.000 -0.000 -0.001
 C         -0.000  0.000  0.000    0.005 -0.072 -0.061    0.000  0.000  0.000
 C         -0.000 -0.000  0.000   -0.000 -0.000  0.000    0.001  0.005 -0.001
 C          0.000 -0.000 -0.000    0.000 -0.000 -0.000   -0.001  0.001  0.001
 C          0.000  0.000  0.000    0.000  0.000 -0.000   -0.005 -0.000 -0.002
 C          0.000  0.001  0.001   -0.000 -0.000 -0.000   -0.006 -0.071 -0.049
 O         -0.000  0.000  0.000   -0.000  0.000  0.000   -0.000 -0.000  0.000
 H         -0.000  0.001  0.002   -0.000  0.000  0.001   -0.000 -0.006 -0.017
 H         -0.000 -0.000  0.001   -0.000 -0.000  0.000    0.001  0.003 -0.011
 H         -0.108 -0.134  0.284   -0.001 -0.001  0.003   -0.001 -0.002  0.003
 H          0.003 -0.002  0.000   -0.244  0.175 -0.039    0.000 -0.000  0.000
 H          0.000  0.003 -0.001    0.000  0.000 -0.000   -0.005 -0.045  0.020
 H         -0.000  0.000 -0.000   -0.000  0.000 -0.000    0.009 -0.006  0.004
 H          0.000  0.000  0.001    0.000  0.000  0.001   -0.001 -0.001 -0.008
 H         -0.001 -0.000 -0.001   -0.000 -0.000 -0.000    0.051  0.009  0.029
 H         -0.000 -0.000  0.000   -0.000 -0.000  0.000    0.002  0.002 -0.007
 H         -0.001 -0.009 -0.006    0.000  0.002  0.002    0.063  0.809  0.571
 H          0.046  0.298  0.004   -0.000 -0.000 -0.000    0.001  0.005  0.000
 H          0.586  0.182  0.642    0.003  0.001  0.003    0.006  0.002  0.007
 H          0.000  0.000  0.000    0.066 -0.076  0.291   -0.000  0.000 -0.001
 H         -0.001 -0.003 -0.002    0.114  0.754  0.472   -0.000 -0.002 -0.001
 TransDip  -0.074 -0.028 -0.090   -0.012 -0.101 -0.067   -0.044 -0.058 -0.022

 STANDARD THERMODYNAMIC QUANTITIES AT   298.15 K  AND     1.00 ATM

   This Molecule has  0 Imaginary Frequencies
   Zero point vibrational energy:      149.069 kcal/mol

   Atom    1 Element C  Has Mass   12.00000
   Atom    2 Element C  Has Mass   12.00000
   Atom    3 Element C  Has Mass   12.00000
   Atom    4 Element C  Has Mass   12.00000
   Atom    5 Element O  Has Mass   15.99491
   Atom    6 Element O  Has Mass   15.99491
   Atom    7 Element O  Has Mass   15.99491
   Atom    8 Element O  Has Mass   15.99491
   Atom    9 Element C  Has Mass   12.00000
   Atom   10 Element C  Has Mass   12.00000
   Atom   11 Element C  Has Mass   12.00000
   Atom   12 Element C  Has Mass   12.00000
   Atom   13 Element C  Has Mass   12.00000
   Atom   14 Element C  Has Mass   12.00000
   Atom   15 Element O  Has Mass   15.99491
   Atom   16 Element H  Has Mass    1.00783
   Atom   17 Element H  Has Mass    1.00783
   Atom   18 Element H  Has Mass    1.00783
   Atom   19 Element H  Has Mass    1.00783
   Atom   20 Element H  Has Mass    1.00783
   Atom   21 Element H  Has Mass    1.00783
   Atom   22 Element H  Has Mass    1.00783
   Atom   23 Element H  Has Mass    1.00783
   Atom   24 Element H  Has Mass    1.00783
   Atom   25 Element H  Has Mass    1.00783
   Atom   26 Element H  Has Mass    1.00783
   Atom   27 Element H  Has Mass    1.00783
   Atom   28 Element H  Has Mass    1.00783
   Atom   29 Element H  Has Mass    1.00783
   Molecular Mass:   214.084170 amu
   Principal axes and moments of inertia in amu*Bohr^2:
                             1           2           3
    Eigenvalues --     2434.94929  2983.12701  4682.18252
          X               0.99991     0.00860    -0.01010
          Y              -0.00867     0.99994    -0.00714
          Z               0.01004     0.00723     0.99992
   Rotational Symmetry Number is   1
   The Molecule is an Asymmetric Top
   Translational Enthalpy:        0.889 kcal/mol
   Rotational Enthalpy:           0.889 kcal/mol
   Vibrational Enthalpy:        156.344 kcal/mol
   gas constant (RT):             0.592 kcal/mol
   Translational Entropy:        41.987  cal/mol.K
   Rotational Entropy:           31.897  cal/mol.K
   Vibrational Entropy:          48.529  cal/mol.K

   Total Enthalpy:              158.714 kcal/mol
   Total Entropy:               122.413  cal/mol.K
Archival summary:
1\1\nid01081\FREQ\ProcedureUnspecified\BasisUnspecified\51014\junteng\WedOct420:14:382017WedOct420:14:382017\0\\#,FREQ,ProcedureUnspecified,BasisUnspecified,\\0,1\O\C,1,1.42767\H,2,1.08816,1,110.153\C,1,1.43907,2,97.1365,3,179.456,0\H,4,1.08573,1,109.779,2,177.529,0\C,4,1.54194,1,102.132,2,-57.5957,0\H,6,1.09087,4,110.213,1,-80.6943,0\H,6,1.09179,4,112.798,1,158.173,0\C,2,1.54683,1,103.376,3,-124.155,0\H,9,1.09076,2,110.252,1,86.7724,0\H,9,1.09194,2,112.41,1,-152.572,0\C,4,1.54947,1,103.177,2,55.2732,0\H,12,1.09374,4,110.838,1,-145.378,0\C,12,1.51872,4,113.96,1,96.0941,0\O,14,1.20322,12,125.873,4,6.57868,0\O,14,1.35118,12,109.881,4,-177.764,0\C,16,1.43906,14,115.949,12,175.443,0\H,17,1.08804,16,105.494,14,179.377,0\H,17,1.09084,16,110.649,14,59.692,0\H,17,1.09108,16,109.744,14,-61.3535,0\C,2,1.56349,1,102.037,3,122.047,0\H,21,1.08893,2,111.393,1,157.314,0\C,21,1.51325,2,108.98,1,-83.3735,0\O,23,1.20451,21,126.724,2,86.0181,0\O,23,1.35368,21,109.827,2,-90.9546,0\C,25,1.44018,23,115.938,21,176.476,0\H,26,1.08783,25,105.455,23,179.699,0\H,26,1.091,25,110.381,23,60.2153,0\H,26,1.09105,25,110.507,23,-60.6654,0\\\@

 Total job time:  7429.24s(wall), 40853.37s(cpu) 
 Wed Oct  4 20:14:38 2017

        *************************************************************
        *                                                           *
        *  Thank you very much for using Q-Chem.  Have a nice day.  *
        *                                                           *
        *************************************************************


