nid04367 10.128.17
Q-Chem Developer Version! Running on 10.128.17.*
                  Welcome to Q-Chem
     A Quantum Leap Into The Future Of Chemistry


 Q-Chem 5.0, Q-Chem, Inc., Pleasanton, CA (2017)

 Yihan Shao,  Zhengting Gan,  E. Epifanovsky,  A. T. B. Gilbert,  M. Wormit,  
 J. Kussmann,  A. W. Lange,  A. Behn,  Jia Deng,  Xintian Feng,  D. Ghosh,  
 M. Goldey,  P. R. Horn,  L. D. Jacobson,  I. Kaliman,  T. Kus,  A. Landau,  
 Jie Liu,  E. I. Proynov,  R. M. Richard,  R. P. Steele,  E. J. Sundstrom,  
 H. L. Woodcock III,  P. M. Zimmerman,  D. Zuev,  B. Albrecht,  E. Alguire,  
 S. A. Baeppler,  Z. Benda,  Y. A. Bernard,  E. J. Berquist,  K. B. Bravaya,  
 D. Casanova,  Chun-Min Chang,  Yunqing Chen,  A. Chien,  K. D. Closser,  
 M. P. Coons,  S. Dasgupta,  M. Diedenhofen,  Hainam Do,  R. G. Edgar,  
 Po-Tung Fang,  S. Fatehi,  Qingguo Feng,  Qinghui Ge,  A. Ghysels,  
 J. Gomes,  J. Gonthier,  A. Gunina,  M. W. D. Hanson-Heine,  
 P. H. P. Harbach,  A. W. Hauser,  J. E. Herr,  E. G. Hohenstein,  
 Z. C. Holden,  Kerwin Hui,  T.-C. Jagau,  Hyunjun Ji,  B. Kaduk,  
 K. Khistyaev,  Jaehoon Kim,  P. Klunzinger,  K. Koh,  D. Kosenkov,  
 T. Kowalczyk,  C. M. Krauter,  A. Kunitsa,  Ka Un Lao,  A. Laurent,  
 K. V. Lawler,  Joonho Lee,  D. Lefrancois,  S. Lehtola,  D. S. Levine,  
 Yi-Pei Li,  You-Sheng Lin,  Fenglai Liu,  E. Livshits,  A. Luenser,  
 P. Manohar,  E. Mansoor,  S. F. Manzer,  Shan-Ping Mao,  Yuezhi Mao,  
 N. Mardirossian,  A. V. Marenich,  L. A. Martinez-Martinez,  S. A. Maurer,  
 N. J. Mayhall,  S. C. McKenzie,  J.-M. Mewes,  A. F. Morrison,  K. Nanda,  
 T. S. Nguyen-Beck,  R. Olivares-Amaya,  J. A. Parkhill,  T. M. Perrine,  
 F. Plasser,  S. Prager,  A. Prociuk,  D. R. Rehn,  F. Rob,  M. Schneider,  
 N. Sergueev,  S. M. Sharada,  S. Sharma,  D. W. Small,  T. Stauch,  
 T. Stein,  Yu-Chuan Su,  A. J. W. Thom,  T. Tsuchimochi,  L. Vogt,  
 O. Vydrov,  M. A. Watson,  J. Wenzel,  M. de Wergifosse,  T. A. Wesolowski,  
 A. White,  J. Witte,  A. Yamada,  Jun Yang,  K. Yao,  S. Yeganeh,  
 S. R. Yost,  Zhi-Qiang You,  A. Zech,  Igor Ying Zhang,  Xing Zhang,  
 Yan Zhao,  Ying Zhu,  B. R. Brooks,  G. K. L. Chan,  C. J. Cramer,  
 M. S. Gordon,  W. J. Hehre,  A. Klamt,  M. W. Schmidt,  C. D. Sherrill,  
 D. G. Truhlar,  A. Aspuru-Guzik,  R. Baer,  A. T. Bell,  N. A. Besley,  
 Jeng-Da Chai,  A. Dreuw,  B. D. Dunietz,  T. R. Furlani,  Chao-Ping Hsu,  
 Yousung Jung,  Jing Kong,  D. S. Lambrecht,  WanZhen Liang,  C. Ochsenfeld,  
 V. A. Rassolov,  L. V. Slipchenko,  J. E. Subotnik,  T. Van Voorhis,  
 J. M. Herbert,  A. I. Krylov,  P. M. W. Gill,  M. Head-Gordon

 Contributors to earlier versions of Q-Chem not listed above: 
 R. D. Adamson,  B. Austin,  J. Baker,  G. J. O. Beran,  K. Brandhorst,  
 S. T. Brown,  E. F. C. Byrd,  A. K. Chakraborty,  C.-L. Cheng,  
 Siu Hung Chien,  D. M. Chipman,  D. L. Crittenden,  H. Dachsel,  
 R. A. DiStasio Jr.,  R. J. Doerksen,  A. D. Dutoi,  L. Fusti-Molnar,  
 W. A. Goddard III,  A. Golubeva-Zadorozhnaya,  S. R. Gwaltney,  G. Hawkins,  
 A. Heyden,  S. Hirata,  G. Kedziora,  F. J. Keil,  C. Kelley,  Jihan Kim,  
 R. A. King,  R. Z. Khaliullin,  P. P. Korambath,  W. Kurlancheek,  
 A. M. Lee,  M. S. Lee,  S. V. Levchenko,  Ching Yeh Lin,  D. Liotard,  
 R. C. Lochan,  I. Lotan,  P. E. Maslen,  N. Nair,  D. P. O'Neill,  
 D. Neuhauser,  E. Neuscamman,  C. M. Oana,  R. Olson,  B. Peters,  
 R. Peverati,  P. A. Pieniazek,  Y. M. Rhee,  J. Ritchie,  M. A. Rohrdanz,  
 E. Rosta,  N. J. Russ,  H. F. Schaefer III,  N. E. Schultz,  N. Shenvi,  
 A. C. Simmonett,  A. Sodt,  D. Stuck,  K. S. Thanthiriwatte,  V. Vanovschi,  
 Tao Wang,  A. Warshel,  C. F. Williams,  Q. Wu,  X. Xu,  W. Zhang

 Please cite Q-Chem as follows:
 Y. Shao et al., Mol. Phys. 113, 184-215 (2015)
 DOI: 10.1080/00268976.2014.952696

 Q-Chem 5.0.0 for Intel X86 EM64T Linux

 Parts of Q-Chem use Armadillo 5.200.1 (Boston Tea Smuggler).
 http://arma.sourceforge.net/

 Q-Chem begins on Wed Oct  4 18:02:42 2017  

Host: nid04367
0

     Scratch files written to /global/cscratch1/sd/junteng/scratch/16/opt_10n01-+.save//

Checking the input file for inconsistencies... 	...done.

--------------------------------------------------------------
User input:
--------------------------------------------------------------
$molecule
0  1
C    0.355  -2.424   0.293
C   -0.264  -2.685   1.524
C    0.749  -1.045  -0.086
C   -0.385  -1.681   2.598
O    1.805  -1.090  -0.938
O    0.175  -0.038   0.291
O    0.833  -1.128   2.820
O   -1.397  -1.517   3.259
C    0.836  -0.152   3.862
C    2.258   0.195  -1.365
C    0.489  -3.469  -0.639
C    0.011  -4.748  -0.345
C   -0.620  -4.996   0.872
C   -0.760  -3.969   1.804
H    0.142   0.662   3.629
H    1.480   0.699  -1.947
H   -1.003  -5.990   1.096
H    0.581  -0.616   4.820
H    1.845   0.263   3.935
H    3.132   0.050  -2.006
H    2.557   0.804  -0.506
H    0.116  -5.548  -1.075
H   -1.248  -4.169   2.757
H    0.945  -3.290  -1.611
$end


$opt
CONSTRAINT
tors    2    1    3    5    150.0
tors    1    2    4    7    -45.0
ENDCONSTRAINT
$end

$rem
JOBTYPE                   OPT
METHOD                    B3LYP
DFT_D                     D3_OP
BASIS                     STO-3G
GEOM_OPT_MAX_CYCLES       500
SYMMETRY                  False
THRESH                    12
SCF_CONVERGENCE           8
MAX_SUB_FILE_NUM          128
MEM_STATIC                400
MEM_TOTAL                 4000
$end

--------------------------------------------------------------
 Adding empirical dispersion correction 
 ----------------------------------------------------------------
 Doing -D3(op) with
 s6 =   1.00000
 s8 =   0.78311
 a1 =   0.30000
 a2 =   4.25000
 n  =  10.00000
 -D3 energy without 3body term =     -0.0235264244 hartrees
 ----------------------------------------------------------------
             Standard Nuclear Orientation (Angstroms)
    I     Atom           X                Y                Z
 ----------------------------------------------------------------
    1      C       0.0048685472    -0.8715632622    -0.0674007052
    2      C      -1.0919198482     0.0016590604    -0.1017662538
    3      C       1.3789608532    -0.3820370773    -0.3371273238
    4      C      -0.9567219841     1.4673235547    -0.2001640574
    5      O       2.2778658221    -1.1635542316     0.3142295632
    6      O       1.6428666882     0.5580963624    -1.0666181229
    7      O      -0.0793961891     1.8906553810     0.7430785488
    8      O      -1.6538448556     2.1636006328    -0.9193155941
    9      C       0.1112497942     3.3055484230     0.7520668044
   10      C       3.6362803702    -0.7724170820     0.1130215962
   11      C      -0.2239907215    -2.2487533468     0.1045757645
   12      C      -1.5242777058    -2.7411486134     0.2370961776
   13      C      -2.6105318253    -1.8705883996     0.1829583704
   14      C      -2.3975725218    -0.5036921638     0.0120899544
   15      H       0.4798571535     3.6504889134    -0.2193577541
   16      H       3.9131930930    -0.8856432273    -0.9398426800
   17      H      -3.6244084650    -2.2560700247     0.2743863539
   18      H      -0.8213882332     3.8144524380     1.0152929683
   19      H       0.8618027747     3.5417630810     1.5113479505
   20      H       4.2706392529    -1.4319291517     0.7116990033
   21      H       3.7952127220     0.2573747806     0.4483307479
   22      H      -1.6901414468    -3.8088449794     0.3653096299
   23      H      -3.2494252071     0.1741533752    -0.0229161569
   24      H       0.6066568830    -2.9521169215     0.1126528134
 ----------------------------------------------------------------
 Molecular Point Group                 C1    NOp =  1
 Largest Abelian Subgroup              C1    NOp =  1
 Nuclear Repulsion Energy =   889.7605996999 hartrees
 There are       51 alpha and       51 beta electrons
 Requested basis set is STO-3G
 There are 38 shells and 80 basis functions

 Total QAlloc Memory Limit   4000 MB
 Mega-Array Size       392 MB
 MEM_STATIC part       400 MB
 A cutoff of  1.0D-12 yielded    631 shell pairs
 There are      3151 function pairs
 
 -------------------------------------------------------
 OpenMP Integral Computing Module                       
 Release: version 1.0, May 2013, Q-Chem Inc. Pittsburgh 
 -------------------------------------------------------
 Integral Job Info:
 Integral job number is                      11
 Integral operator is                         1
 short-range coefficients                     0
 long-range coefficients              100000000
 Omega coefficients                           0
 if combine SR and LR in K                    0
 Integral screening is                        0
 Integral computing path is                   2
 max size of driver memory is            800000
 size of driver memory is                 45569
 size of scratch memory is               945100
 max col of scratch BK array                289
 max len of scratch array in speh3           22
 max len of scratch index in speh4            8
 max int batch size is                      520
 min int batch size is                       52
 fixed nKL is                                52
 max L of basis functions is                  1
 order of int derivative is                   0
 number of shells is                         38
 number of basis is                          80
 number of cartesian basis is                80
 number of contracted shell pairs           631
 number of primitive shell pairs           3502
 maxK2 (contraction) of shell pair            9
 max number of K2 of shell pair               1
 max number of CS2 of shell pair             91
 max number of PS2 of shell pair            468
 mem total for path MDJ                   25386
 -------------------------------------------------------
 Smallest overlap matrix eigenvalue = 1.73E-01

 Scale SEOQF with 1.000000e-01/1.000000e-01/1.000000e+00

 Standard Electronic Orientation quadrupole field applied
 Nucleus-field energy     =     0.0000000031 hartrees
 Guess from superposition of atomic densities
 Warning:  Energy on first SCF cycle will be non-variational
 A restricted hybrid HF-DFT SCF calculation will be
 performed using Pulay DIIS extrapolation
 Exchange:     0.2000 Hartree-Fock + 0.0800 Slater + 0.7200 B88
 Correlation:  0.1900 VWN1RPA + 0.8100 LYP
 Using SG-1 standard quadrature grid
 Dispersion:   Grimme D3
 SCF converges when DIIS error is below 1.0E-08
 -------------------------------------------------------
 OpenMP Integral computing Module                
 Release: version 1.0, May 2013, Q-Chem Inc. Pittsburgh 
 -------------------------------------------------------
 -------------------------------------------------------
 OpenMP BLAS3 based DFT computing Module                
 Release: version 1.0, May 2013, Q-Chem Inc. Pittsburgh 
 -------------------------------------------------------
 ---------------------------------------
  Cycle       Energy         DIIS Error
 ---------------------------------------
    1    -679.1330742783      1.26E-01
    2    -678.8427567625      1.47E-02
    3    -677.8244880427      3.88E-02
    4    -679.0444374619      5.12E-03
    5    -679.0653698754      1.92E-03
    6    -679.0685893525      4.89E-04
    7    -679.0688086880      1.64E-04
    8    -679.0688325245      6.17E-05
    9    -679.0688352391      2.86E-05
   10    -679.0688361181      3.14E-06
   11    -679.0688361278      1.13E-06
   12    -679.0688361290      2.41E-07
   13    -679.0688361291      1.07E-07
   14    -679.0688361291      3.14E-08
   15    -679.0688361291      6.94E-09 Convergence criterion met
 ---------------------------------------
 SCF time:  CPU 49.63 s  wall 2.11 s
 SCF   energy in the final basis set = -679.0688361291
 Total energy in the final basis set = -679.0688361291
 
 --------------------------------------------------------------
 
                    Orbital Energies (a.u.)
 --------------------------------------------------------------
 
 Alpha MOs
 -- Occupied --
-18.949 -18.946 -18.869 -18.865 -10.118 -10.113 -10.077 -10.071
-10.028 -10.026 -10.017 -10.017 -10.016 -10.015  -1.049  -1.042
 -0.958  -0.954  -0.822  -0.734  -0.725  -0.683  -0.674  -0.597
 -0.581  -0.532  -0.505  -0.479  -0.455  -0.439  -0.432  -0.426
 -0.417  -0.402  -0.389  -0.379  -0.356  -0.354  -0.340  -0.329
 -0.320  -0.310  -0.300  -0.254  -0.248  -0.203  -0.202  -0.186
 -0.179  -0.155  -0.149
 -- Virtual --
  0.048   0.070   0.134   0.148   0.250   0.283   0.307   0.353
  0.381   0.390   0.398   0.417   0.436   0.441   0.443   0.453
  0.454   0.455   0.457   0.470   0.480   0.565   0.570   0.592
  0.607   0.692   0.707   0.784   0.805
 --------------------------------------------------------------
 
          Ground-State Mulliken Net Atomic Charges

     Atom                 Charge (a.u.)
  ----------------------------------------
      1 C                    -0.016460
      2 C                    -0.013193
      3 C                     0.236815
      4 C                     0.239331
      5 O                    -0.184254
      6 O                    -0.228518
      7 O                    -0.182816
      8 O                    -0.225997
      9 C                    -0.125951
     10 C                    -0.125656
     11 C                    -0.071459
     12 C                    -0.077394
     13 C                    -0.076184
     14 C                    -0.071171
     15 H                     0.097497
     16 H                     0.093769
     17 H                     0.085582
     18 H                     0.092573
     19 H                     0.095187
     20 H                     0.096656
     21 H                     0.094826
     22 H                     0.084752
     23 H                     0.090621
     24 H                     0.091440
  ----------------------------------------
  Sum of atomic charges =     0.000000

 -----------------------------------------------------------------
                    Cartesian Multipole Moments
 -----------------------------------------------------------------
    Charge (ESU x 10^10)
                -0.0000
    Dipole Moment (Debye)
         X       1.2481      Y      -0.8457      Z       1.4685
       Tot       2.1046
    Quadrupole Moments (Debye-Ang)
        XX     -65.3011     XY       2.1209     YY     -67.3113
        XZ      -1.3115     YZ       4.6689     ZZ     -77.0076
    Octopole Moments (Debye-Ang^2)
       XXX      32.6486    XXY     -10.3188    XYY       7.7006
       YYY      22.5743    XXZ       7.0980    XYZ      -0.6038
       YYZ      10.9090    XZZ       8.2910    YZZ       6.2845
       ZZZ      -3.3968
    Hexadecapole Moments (Debye-Ang^3)
      XXXX   -1419.9863   XXXY     -32.5552   XXYY    -506.4431
      XYYY      11.8858   YYYY   -1399.1191   XXXZ       1.8789
      XXYZ      10.6306   XYYZ     -13.3076   YYYZ      18.6340
      XXZZ    -302.3897   XYZZ      -9.9894   YYZZ    -286.2151
      XZZZ       2.4642   YZZZ      -0.6197   ZZZZ    -173.6954
 -----------------------------------------------------------------
 Calculating analytic gradient of the SCF energy
 Gradient of SCF Energy
            1           2           3           4           5           6
    1   0.0189467   0.0093829   0.0257808   0.0081785  -0.0074890  -0.0217180
    2   0.0223592   0.0288567   0.0007986   0.0175880   0.0516881  -0.0565203
    3  -0.0065385  -0.0046518  -0.0033992   0.0079344  -0.0409363   0.0412028
            7           8           9          10          11          12
    1  -0.0442633   0.0324227  -0.0030645  -0.0197333   0.0015887  -0.0032796
    2   0.0162203  -0.0474403  -0.0223198  -0.0061442   0.0052309   0.0074133
    3  -0.0457045   0.0399112   0.0002509   0.0040683   0.0000763  -0.0004771
           13          14          15          16          17          18
    1   0.0091845   0.0031285  -0.0006871  -0.0066692   0.0075847   0.0097128
    2   0.0006146   0.0015510  -0.0080860  -0.0039866   0.0028168  -0.0100635
    3  -0.0000973   0.0000466   0.0104685   0.0118894  -0.0007431   0.0009652
           19          20          21          22          23          24
    1  -0.0071448  -0.0035130  -0.0048494   0.0009058   0.0042493  -0.0086547
    2   0.0005358   0.0078508  -0.0127042   0.0083381  -0.0067165   0.0021193
    3  -0.0078565  -0.0064892   0.0011465  -0.0011694   0.0005009  -0.0003980
 Max gradient component =       5.652E-02
 RMS gradient           =       1.839E-02
 Gradient time:  CPU 10.23 s  wall 0.45 s
 Geometry Optimization Parameters
   NAtoms,    NIC,     NZ,  NCons,   NDum,   NFix, NCnnct, MaxDiis
       24     152       0       2       0       0       0       0


** CONSTRAINED OPTIMIZATION IN DELOCALIZED INTERNAL COORDINATES **
   Searching for a Minimum

   Optimization Cycle:   1

                       Coordinates (Angstroms)
     ATOM                X               Y               Z
      1  C         0.0048685472   -0.8715632622   -0.0674007052
      2  C        -1.0919198482    0.0016590604   -0.1017662538
      3  C         1.3789608532   -0.3820370773   -0.3371273238
      4  C        -0.9567219841    1.4673235547   -0.2001640574
      5  O         2.2778658221   -1.1635542316    0.3142295632
      6  O         1.6428666882    0.5580963624   -1.0666181229
      7  O        -0.0793961891    1.8906553810    0.7430785488
      8  O        -1.6538448556    2.1636006328   -0.9193155941
      9  C         0.1112497942    3.3055484230    0.7520668044
     10  C         3.6362803702   -0.7724170820    0.1130215962
     11  C        -0.2239907215   -2.2487533468    0.1045757645
     12  C        -1.5242777058   -2.7411486134    0.2370961776
     13  C        -2.6105318253   -1.8705883996    0.1829583704
     14  C        -2.3975725218   -0.5036921638    0.0120899544
     15  H         0.4798571535    3.6504889134   -0.2193577541
     16  H         3.9131930930   -0.8856432273   -0.9398426800
     17  H        -3.6244084650   -2.2560700247    0.2743863539
     18  H        -0.8213882332    3.8144524380    1.0152929683
     19  H         0.8618027747    3.5417630810    1.5113479505
     20  H         4.2706392529   -1.4319291517    0.7116990033
     21  H         3.7952127220    0.2573747806    0.4483307479
     22  H        -1.6901414468   -3.8088449794    0.3653096299
     23  H        -3.2494252071    0.1741533752   -0.0229161569
     24  H         0.6066568830   -2.9521169215    0.1126528134
   Point Group: c1    Number of degrees of freedom:    66


   Energy is   -679.068836129

              Constraints and their Current Values
                                        Value     Constraint
   Dihedral:        2   1   3   5      152.312      150.000
   Dihedral:        1   2   4   7      -50.252      -45.000

 Attempting to Generate Delocalized Internal Coordinates

   Using Lagrange Multiplier Algorithm


 68 Hessian modes will be used to form the next step
  Hessian Eigenvalues:
    -0.977753   -0.977753    0.045000    0.045000    0.045000    0.045000
     0.045000    0.045000    0.045001    0.045001    0.045002    0.045005
     0.045013    0.045027    0.045031    0.045181    0.045530    0.113864
     0.113915    0.116869    0.116916    0.159954    0.159981    0.159993
     0.160000    0.160000    0.160000    0.160000    0.160000    0.160000
     0.160000    0.219995    0.224790    0.244310    0.248434    0.248766
     0.249810    0.249910    0.250000    0.250000    0.250000    0.250000
     0.341816    0.342672    0.342857    0.342897    0.342929    0.344092
     0.344169    0.349054    0.349829    0.349904    0.350351    0.351283
     0.412994    0.413052    0.413205    0.417941    0.448645    0.456536
     0.460014    0.465920    0.534366    0.537734    0.954630    0.958839
     1.022753    1.022753

 Minimum Search - Taking P-RFO Step
 Searching for Lamda that Maximizes Along the Constraint modes Only
 Value Taken    Lamda =   0.00466856
 Searching for Lamda that Minimizes Along All other modes
 Value Taken    Lamda =  -0.05737593
 Calculated Step too Large.  Step scaled by  0.871748
 Step Taken.  Stepsize is  0.300000

                             Maximum     Tolerance    Cnvgd?
         Gradient            0.091660       0.000300      NO
         Displacement        0.149896       0.001200      NO
         Energy change     *********       0.000001      NO


 New Cartesian Coordinates Obtained by Inverse Iteration

 Displacement from previous Coordinates is:  0.983454
 Adding empirical dispersion correction 
 ----------------------------------------------------------------
 Doing -D3(op) with
 s6 =   1.00000
 s8 =   0.78311
 a1 =   0.30000
 a2 =   4.25000
 n  =  10.00000
 -D3 energy without 3body term =     -0.0234987998 hartrees
 ----------------------------------------------------------------
             Standard Nuclear Orientation (Angstroms)
    I     Atom           X                Y                Z
 ----------------------------------------------------------------
    1      C      -0.0538681769    -0.9244782471    -0.0741573529
    2      C      -1.1656605770    -0.0399900210    -0.0852528170
    3      C       1.3580125604    -0.3843479802    -0.3298907601
    4      C      -1.0071521517     1.4863285654    -0.1569088023
    5      O       2.3025113423    -1.1726088847     0.3533068348
    6      O       1.6368719022     0.6061372325    -1.0430982053
    7      O      -0.0153327885     1.8980381829     0.7522183648
    8      O      -1.6934258002     2.2519791599    -0.8701066440
    9      C       0.2194068097     3.3452106451     0.7119745204
   10      C       3.6758254783    -0.7015008532     0.1517121276
   11      C      -0.2746236522    -2.3169391469     0.0709437419
   12      C      -1.5802233744    -2.8270617293     0.1993918966
   13      C      -2.6839863786    -1.9509552896     0.1722948025
   14      C      -2.4760466025    -0.5656541725     0.0311553817
   15      H       0.5300262002     3.6820795139    -0.2976005063
   16      H       3.9865836611    -0.7797363432    -0.9101870001
   17      H      -3.7039582048    -2.3463670612     0.2635536377
   18      H      -0.6802192933     3.9153642540     1.0218224655
   19      H       1.0369864318     3.5587044418     1.4243397158
   20      H       4.3297775931    -1.3519164646     0.7609391764
   21      H       3.8045849652     0.3471418404     0.4881614666
   22      H      -1.7376733636    -3.9079351424     0.3078959165
   23      H      -3.3324553241     0.1209076975     0.0169275050
   24      H       0.5798736941    -3.0056426760     0.0641921326
 ----------------------------------------------------------------
 Molecular Point Group                 C1    NOp =  1
 Largest Abelian Subgroup              C1    NOp =  1
 Nuclear Repulsion Energy =   872.7067276180 hartrees
 There are       51 alpha and       51 beta electrons
 Applying Cartesian multipole field
    Component          Value
    ---------          -----
     (2,0,0)        1.00000E-11
     (0,2,0)        2.00000E-11
     (0,0,2)       -3.00000E-10
 Nucleus-field energy     =     0.0000000064 hartrees
 Requested basis set is STO-3G
 There are 38 shells and 80 basis functions
 A cutoff of  1.0D-12 yielded    630 shell pairs
 There are      3150 function pairs
 Smallest overlap matrix eigenvalue = 1.81E-01
 Guess MOs from SCF MO coefficient file
 Reading MOs from coefficient file
 Reading MOs from coefficient file
 A restricted hybrid HF-DFT SCF calculation will be
 performed using Pulay DIIS extrapolation
 Exchange:     0.2000 Hartree-Fock + 0.0800 Slater + 0.7200 B88
 Correlation:  0.1900 VWN1RPA + 0.8100 LYP
 Using SG-1 standard quadrature grid
 Dispersion:   Grimme D3
 SCF converges when DIIS error is below 1.0E-08
 Geometry optimization detected.  Setting ReadMinima to 0
 Setting SaveMinima to 0
 -------------------------------------------------------
 OpenMP Integral computing Module                
 Release: version 1.0, May 2013, Q-Chem Inc. Pittsburgh 
 -------------------------------------------------------
 -------------------------------------------------------
 OpenMP BLAS3 based DFT computing Module                
 Release: version 1.0, May 2013, Q-Chem Inc. Pittsburgh 
 -------------------------------------------------------
 ---------------------------------------
  Cycle       Energy         DIIS Error
 ---------------------------------------
    1    -678.9260087562      7.95E-03
    2    -679.0863493903      2.98E-03
    3    -679.0704801962      5.12E-03
    4    -679.0941581475      7.44E-04
    5    -679.0946952486      1.93E-04
    6    -679.0947305171      5.75E-05
    7    -679.0947334690      2.64E-05
    8    -679.0947340379      1.39E-05
    9    -679.0947342196      2.65E-06
   10    -679.0947342280      5.32E-07
   11    -679.0947342284      1.78E-07
   12    -679.0947342285      6.03E-08
   13    -679.0947342285      2.57E-08
   14    -679.0947342285      6.32E-09 Convergence criterion met
 ---------------------------------------
 SCF time:  CPU 42.64 s  wall 1.80 s
 SCF   energy in the final basis set = -679.0947342285
 Total energy in the final basis set = -679.0947342285
 
 --------------------------------------------------------------
 
                    Orbital Energies (a.u.)
 --------------------------------------------------------------
 
 Alpha MOs
 -- Occupied --
-18.943 -18.939 -18.871 -18.869 -10.107 -10.105 -10.071 -10.066
-10.031 -10.030 -10.020 -10.019 -10.019 -10.018  -1.020  -1.014
 -0.940  -0.935  -0.815  -0.724  -0.716  -0.671  -0.663  -0.589
 -0.576  -0.524  -0.498  -0.466  -0.444  -0.423  -0.418  -0.415
 -0.408  -0.398  -0.379  -0.372  -0.354  -0.349  -0.333  -0.320
 -0.318  -0.305  -0.293  -0.255  -0.249  -0.202  -0.200  -0.182
 -0.173  -0.153  -0.149
 -- Virtual --
  0.043   0.066   0.122   0.135   0.237   0.253   0.277   0.327
  0.352   0.358   0.381   0.396   0.419   0.421   0.426   0.430
  0.433   0.438   0.441   0.446   0.452   0.540   0.546   0.568
  0.580   0.652   0.653   0.749   0.774
 --------------------------------------------------------------
 
          Ground-State Mulliken Net Atomic Charges

     Atom                 Charge (a.u.)
  ----------------------------------------
      1 C                    -0.013820
      2 C                    -0.011443
      3 C                     0.215981
      4 C                     0.217811
      5 O                    -0.171848
      6 O                    -0.213500
      7 O                    -0.170714
      8 O                    -0.211747
      9 C                    -0.123532
     10 C                    -0.123877
     11 C                    -0.071633
     12 C                    -0.074662
     13 C                    -0.073819
     14 C                    -0.071272
     15 H                     0.093943
     16 H                     0.089563
     17 H                     0.085243
     18 H                     0.088562
     19 H                     0.091495
     20 H                     0.092503
     21 H                     0.091184
     22 H                     0.084663
     23 H                     0.089741
     24 H                     0.091178
  ----------------------------------------
  Sum of atomic charges =    -0.000000

 -----------------------------------------------------------------
                    Cartesian Multipole Moments
 -----------------------------------------------------------------
    Charge (ESU x 10^10)
                -0.0000
    Dipole Moment (Debye)
         X       1.0861      Y      -0.9224      Z       1.2893
       Tot       1.9217
    Quadrupole Moments (Debye-Ang)
        XX     -65.0862     XY       2.9496     YY     -67.2293
        XZ      -1.2952     YZ       4.3958     ZZ     -76.8967
    Octopole Moments (Debye-Ang^2)
       XXX      35.6764    XXY      -9.4625    XYY       8.5100
       YYY      23.2071    XXZ       6.4764    XYZ      -0.3965
       YYZ       9.9626    XZZ       9.5138    YZZ       7.4128
       ZZZ      -5.4410
    Hexadecapole Moments (Debye-Ang^3)
      XXXX   -1467.3729   XXXY     -52.7796   XXYY    -527.4491
      XYYY      -8.1358   YYYY   -1450.7962   XXXZ      -4.9930
      XXYZ       9.8647   XYYZ     -14.6751   YYYZ      18.3814
      XXZZ    -310.5935   XYZZ     -20.1913   YYZZ    -296.9368
      XZZZ      -4.0563   YZZZ      -3.1076   ZZZZ    -167.4630
 -----------------------------------------------------------------
 Calculating analytic gradient of the SCF energy
 Gradient of SCF Energy
            1           2           3           4           5           6
    1   0.0012325   0.0032002   0.0078522   0.0099269  -0.0021406  -0.0038001
    2   0.0059860   0.0037429  -0.0121243   0.0008944   0.0178825  -0.0036293
    3  -0.0001976  -0.0055375   0.0060082   0.0131014  -0.0125806   0.0030447
            7           8           9          10          11          12
    1  -0.0140082   0.0013703   0.0011567  -0.0074766   0.0009291  -0.0002379
    2   0.0063385  -0.0052011  -0.0086466  -0.0045903  -0.0000386  -0.0005616
    3  -0.0149280   0.0015831   0.0024579   0.0030942   0.0009161   0.0001486
           13          14          15          16          17          18
    1  -0.0002142  -0.0012440   0.0011854   0.0004246   0.0006526   0.0010404
    2  -0.0006886   0.0009728  -0.0000824  -0.0014185   0.0001280  -0.0003165
    3   0.0004518   0.0005261   0.0011164   0.0008997  -0.0000650   0.0012661
           19          20          21          22          23          24
    1  -0.0004429   0.0015290   0.0005708   0.0000364   0.0003249  -0.0018676
    2   0.0023479   0.0015573  -0.0012010   0.0006910  -0.0012072  -0.0008353
    3  -0.0009781  -0.0009434   0.0012902  -0.0001855  -0.0000629  -0.0004259
 Max gradient component =       1.788E-02
 RMS gradient           =       5.033E-03
 Gradient time:  CPU 9.52 s  wall 0.40 s
 Geometry Optimization Parameters
   NAtoms,    NIC,     NZ,  NCons,   NDum,   NFix, NCnnct, MaxDiis
       24     152       0       2       0       0       0       0

 Cartesian Hessian Update
 Hessian Updated using BFGS Update


** CONSTRAINED OPTIMIZATION IN DELOCALIZED INTERNAL COORDINATES **
   Searching for a Minimum

   Optimization Cycle:   2

                       Coordinates (Angstroms)
     ATOM                X               Y               Z
      1  C        -0.0538681769   -0.9244782471   -0.0741573529
      2  C        -1.1656605770   -0.0399900210   -0.0852528170
      3  C         1.3580125604   -0.3843479802   -0.3298907601
      4  C        -1.0071521517    1.4863285654   -0.1569088023
      5  O         2.3025113423   -1.1726088847    0.3533068348
      6  O         1.6368719022    0.6061372325   -1.0430982053
      7  O        -0.0153327885    1.8980381829    0.7522183648
      8  O        -1.6934258002    2.2519791599   -0.8701066440
      9  C         0.2194068097    3.3452106451    0.7119745204
     10  C         3.6758254783   -0.7015008532    0.1517121276
     11  C        -0.2746236522   -2.3169391469    0.0709437419
     12  C        -1.5802233744   -2.8270617293    0.1993918966
     13  C        -2.6839863786   -1.9509552896    0.1722948025
     14  C        -2.4760466025   -0.5656541725    0.0311553817
     15  H         0.5300262002    3.6820795139   -0.2976005063
     16  H         3.9865836611   -0.7797363432   -0.9101870001
     17  H        -3.7039582048   -2.3463670612    0.2635536377
     18  H        -0.6802192933    3.9153642540    1.0218224655
     19  H         1.0369864318    3.5587044418    1.4243397158
     20  H         4.3297775931   -1.3519164646    0.7609391764
     21  H         3.8045849652    0.3471418404    0.4881614666
     22  H        -1.7376733636   -3.9079351424    0.3078959165
     23  H        -3.3324553241    0.1209076975    0.0169275050
     24  H         0.5798736941   -3.0056426760    0.0641921326
   Point Group: c1    Number of degrees of freedom:    66


   Energy is   -679.094734228

              Constraints and their Current Values
                                        Value     Constraint
   Dihedral:        2   1   3   5      150.353      150.000
   Dihedral:        1   2   4   7      -45.811      -45.000
 Hessian Updated using BFGS Update

   Using Lagrange Multiplier Algorithm


 60 Hessian modes will be used to form the next step
  Hessian Eigenvalues:
    -0.977762   -0.977175    0.044963    0.045000    0.045000    0.045000
     0.045001    0.045002    0.045002    0.045005    0.045012    0.045024
     0.045090    0.045174    0.045952    0.113787    0.113904    0.116869
     0.116916    0.158675    0.159961    0.159981    0.159993    0.160000
     0.161949    0.219995    0.224870    0.237364    0.244374    0.248681
     0.249335    0.249852    0.249974    0.252108    0.342388    0.342732
     0.342874    0.342916    0.343855    0.344134    0.345956    0.349078
     0.349851    0.349936    0.350377    0.373068    0.412888    0.413055
     0.415978    0.421329    0.449397    0.456756    0.465886    0.473774
     0.518609    0.536579    0.956557    0.987224    1.022749    1.025653

 Minimum Search - Taking P-RFO Step
 Searching for Lamda that Maximizes Along the Constraint modes Only
 Value Taken    Lamda =   0.00015019
 Searching for Lamda that Minimizes Along All other modes
 Value Taken    Lamda =  -0.00367327
 Step Taken.  Stepsize is  0.129943

                             Maximum     Tolerance    Cnvgd?
         Gradient            0.016036       0.000300      NO
         Displacement        0.049213       0.001200      NO
         Energy change     -0.025898       0.000001      NO


 New Cartesian Coordinates Obtained by Inverse Iteration

 Displacement from previous Coordinates is:  0.316609
 Adding empirical dispersion correction 
 ----------------------------------------------------------------
 Doing -D3(op) with
 s6 =   1.00000
 s8 =   0.78311
 a1 =   0.30000
 a2 =   4.25000
 n  =  10.00000
 -D3 energy without 3body term =     -0.0234673664 hartrees
 ----------------------------------------------------------------
             Standard Nuclear Orientation (Angstroms)
    I     Atom           X                Y                Z
 ----------------------------------------------------------------
    1      C      -0.0564468248    -0.9265541686    -0.0653959094
    2      C      -1.1705386018    -0.0403621433    -0.0641318888
    3      C       1.3651327382    -0.3821001323    -0.2991724550
    4      C      -1.0040878792     1.4932677768    -0.1281756898
    5      O       2.3005213362    -1.2040365831     0.3943114766
    6      O       1.6792973400     0.6083498077    -1.0045219371
    7      O       0.0222036821     1.8870148160     0.7776972844
    8      O      -1.6849216128     2.2872177848    -0.8214674010
    9      C       0.2211856763     3.3464783059     0.6869464704
   10      C       3.6673232970    -0.7010388109     0.1538441309
   11      C      -0.2740087216    -2.3190250957     0.0608056542
   12      C      -1.5803400136    -2.8314872912     0.1781883093
   13      C      -2.6858213882    -1.9546929150     0.1601646565
   14      C      -2.4794082368    -0.5668612448     0.0416863420
   15      H       0.4968250636     3.6562447871    -0.3425049389
   16      H       3.9476384246    -0.7679314975    -0.9183012913
   17      H      -3.7069289367    -2.3518153249     0.2437855968
   18      H      -0.6876834930     3.9052964457     0.9940638892
   19      H       1.0510874546     3.5796216171     1.3798428202
   20      H       4.3360968557    -1.3479952247     0.7520492956
   21      H       3.7785728585     0.3537033088     0.4808195465
   22      H      -1.7372015944    -3.9147704682     0.2743346366
   23      H      -3.3342294530     0.1244819181     0.0348695336
   24      H       0.5915669797    -2.9962481462     0.0538894669
 ----------------------------------------------------------------
 Molecular Point Group                 C1    NOp =  1
 Largest Abelian Subgroup              C1    NOp =  1
 Nuclear Repulsion Energy =   871.6062459414 hartrees
 There are       51 alpha and       51 beta electrons
 Applying Cartesian multipole field
    Component          Value
    ---------          -----
     (2,0,0)        1.00000E-11
     (0,2,0)        2.00000E-11
     (0,0,2)       -3.00000E-10
 Nucleus-field energy     =     0.0000000080 hartrees
 Requested basis set is STO-3G
 There are 38 shells and 80 basis functions
 A cutoff of  1.0D-12 yielded    630 shell pairs
 There are      3150 function pairs
 Smallest overlap matrix eigenvalue = 1.81E-01
 Guess MOs from SCF MO coefficient file
 Reading MOs from coefficient file
 Reading MOs from coefficient file
 A restricted hybrid HF-DFT SCF calculation will be
 performed using Pulay DIIS extrapolation
 Exchange:     0.2000 Hartree-Fock + 0.0800 Slater + 0.7200 B88
 Correlation:  0.1900 VWN1RPA + 0.8100 LYP
 Using SG-1 standard quadrature grid
 Dispersion:   Grimme D3
 SCF converges when DIIS error is below 1.0E-08
 Geometry optimization detected.  Setting ReadMinima to 0
 Setting SaveMinima to 0
 -------------------------------------------------------
 OpenMP Integral computing Module                
 Release: version 1.0, May 2013, Q-Chem Inc. Pittsburgh 
 -------------------------------------------------------
 -------------------------------------------------------
 OpenMP BLAS3 based DFT computing Module                
 Release: version 1.0, May 2013, Q-Chem Inc. Pittsburgh 
 -------------------------------------------------------
 ---------------------------------------
  Cycle       Energy         DIIS Error
 ---------------------------------------
    1    -679.0599274770      2.94E-03
    2    -679.0957013637      9.26E-04
    3    -679.0935559979      1.81E-03
    4    -679.0964578241      2.31E-04
    5    -679.0965096148      6.06E-05
    6    -679.0965130251      1.89E-05
    7    -679.0965133584      8.02E-06
    8    -679.0965134176      3.75E-06
    9    -679.0965134295      1.32E-06
   10    -679.0965134313      1.53E-07
   11    -679.0965134313      4.78E-08
   12    -679.0965134313      1.56E-08
   13    -679.0965134313      8.98E-09 Convergence criterion met
 ---------------------------------------
 SCF time:  CPU 40.13 s  wall 1.69 s
 SCF   energy in the final basis set = -679.0965134313
 Total energy in the final basis set = -679.0965134313
 
 --------------------------------------------------------------
 
                    Orbital Energies (a.u.)
 --------------------------------------------------------------
 
 Alpha MOs
 -- Occupied --
-18.940 -18.937 -18.874 -18.873 -10.105 -10.103 -10.067 -10.063
-10.032 -10.031 -10.021 -10.021 -10.020 -10.019  -1.016  -1.010
 -0.938  -0.934  -0.816  -0.723  -0.717  -0.667  -0.659  -0.588
 -0.576  -0.523  -0.496  -0.464  -0.444  -0.421  -0.418  -0.413
 -0.407  -0.398  -0.375  -0.368  -0.356  -0.349  -0.333  -0.318
 -0.317  -0.305  -0.292  -0.260  -0.254  -0.203  -0.199  -0.183
 -0.173  -0.155  -0.151
 -- Virtual --
  0.041   0.064   0.119   0.132   0.236   0.251   0.274   0.317
  0.339   0.352   0.376   0.390   0.416   0.420   0.425   0.429
  0.432   0.435   0.439   0.443   0.450   0.537   0.543   0.566
  0.578   0.645   0.647   0.746   0.772
 --------------------------------------------------------------
 
          Ground-State Mulliken Net Atomic Charges

     Atom                 Charge (a.u.)
  ----------------------------------------
      1 C                    -0.013827
      2 C                    -0.012002
      3 C                     0.211438
      4 C                     0.212752
      5 O                    -0.166844
      6 O                    -0.209783
      7 O                    -0.165489
      8 O                    -0.208324
      9 C                    -0.125721
     10 C                    -0.126414
     11 C                    -0.071791
     12 C                    -0.074112
     13 C                    -0.073350
     14 C                    -0.071531
     15 H                     0.093610
     16 H                     0.088989
     17 H                     0.085414
     18 H                     0.088426
     19 H                     0.090034
     20 H                     0.090827
     21 H                     0.091095
     22 H                     0.084973
     23 H                     0.089680
     24 H                     0.091952
  ----------------------------------------
  Sum of atomic charges =     0.000000

 -----------------------------------------------------------------
                    Cartesian Multipole Moments
 -----------------------------------------------------------------
    Charge (ESU x 10^10)
                -0.0000
    Dipole Moment (Debye)
         X       0.9011      Y      -0.9530      Z       1.1334
       Tot       1.7335
    Quadrupole Moments (Debye-Ang)
        XX     -65.5136     XY       2.9485     YY     -67.5507
        XZ      -1.3014     YZ       4.1559     ZZ     -76.7853
    Octopole Moments (Debye-Ang^2)
       XXX      32.3009    XXY      -9.1456    XYY       7.7135
       YYY      21.8406    XXZ       5.3386    XYZ      -0.3205
       YYZ       8.3008    XZZ       8.9472    YZZ       7.7198
       ZZZ      -8.1345
    Hexadecapole Moments (Debye-Ang^3)
      XXXX   -1477.1123   XXXY     -51.7183   XXYY    -529.0561
      XYYY      -8.4443   YYYY   -1463.4289   XXXZ      -5.8590
      XXYZ       9.3516   XYYZ     -14.4715   YYYZ      15.7496
      XXZZ    -309.7346   XYZZ     -20.7409   YYZZ    -297.4939
      XZZZ      -5.3868   YZZZ      -5.4459   ZZZZ    -161.7365
 -----------------------------------------------------------------
 Calculating analytic gradient of the SCF energy
 Gradient of SCF Energy
            1           2           3           4           5           6
    1  -0.0006381   0.0009529   0.0056204   0.0050386  -0.0011287  -0.0000584
    2  -0.0014246  -0.0005008  -0.0053609   0.0033252   0.0022952   0.0033089
    3   0.0006334  -0.0025494   0.0034940   0.0069660  -0.0009847  -0.0020815
            7           8           9          10          11          12
    1  -0.0012079  -0.0019860  -0.0023141  -0.0045960  -0.0002620   0.0006327
    2  -0.0001313   0.0015350  -0.0040325   0.0001557   0.0005735  -0.0001407
    3  -0.0020212  -0.0024072  -0.0013019  -0.0005810   0.0004428  -0.0000137
           13          14          15          16          17          18
    1  -0.0002930   0.0000617   0.0001300   0.0002870  -0.0001919  -0.0003713
    2   0.0006913  -0.0002243   0.0002413  -0.0000111   0.0000530   0.0004248
    3  -0.0000507   0.0007359  -0.0005879  -0.0005091   0.0000178   0.0002718
           19          20          21          22          23          24
    1   0.0003234  -0.0002018   0.0001485   0.0000587  -0.0002048   0.0002001
    2  -0.0006204  -0.0004837   0.0005624  -0.0001863   0.0002545  -0.0003042
    3   0.0002797   0.0003879   0.0001928   0.0000241  -0.0001077  -0.0002502
 Max gradient component =       6.966E-03
 RMS gradient           =       1.894E-03
 Gradient time:  CPU 9.41 s  wall 0.40 s
 Geometry Optimization Parameters
   NAtoms,    NIC,     NZ,  NCons,   NDum,   NFix, NCnnct, MaxDiis
       24     152       0       2       0       0       0       0

 Cartesian Hessian Update
 Hessian Updated using BFGS Update


** CONSTRAINED OPTIMIZATION IN DELOCALIZED INTERNAL COORDINATES **
   Searching for a Minimum

   Optimization Cycle:   3

                       Coordinates (Angstroms)
     ATOM                X               Y               Z
      1  C        -0.0564468248   -0.9265541686   -0.0653959094
      2  C        -1.1705386018   -0.0403621433   -0.0641318888
      3  C         1.3651327382   -0.3821001323   -0.2991724550
      4  C        -1.0040878792    1.4932677768   -0.1281756898
      5  O         2.3005213362   -1.2040365831    0.3943114766
      6  O         1.6792973400    0.6083498077   -1.0045219371
      7  O         0.0222036821    1.8870148160    0.7776972844
      8  O        -1.6849216128    2.2872177848   -0.8214674010
      9  C         0.2211856763    3.3464783059    0.6869464704
     10  C         3.6673232970   -0.7010388109    0.1538441309
     11  C        -0.2740087216   -2.3190250957    0.0608056542
     12  C        -1.5803400136   -2.8314872912    0.1781883093
     13  C        -2.6858213882   -1.9546929150    0.1601646565
     14  C        -2.4794082368   -0.5668612448    0.0416863420
     15  H         0.4968250636    3.6562447871   -0.3425049389
     16  H         3.9476384246   -0.7679314975   -0.9183012913
     17  H        -3.7069289367   -2.3518153249    0.2437855968
     18  H        -0.6876834930    3.9052964457    0.9940638892
     19  H         1.0510874546    3.5796216171    1.3798428202
     20  H         4.3360968557   -1.3479952247    0.7520492956
     21  H         3.7785728585    0.3537033088    0.4808195465
     22  H        -1.7372015944   -3.9147704682    0.2743346366
     23  H        -3.3342294530    0.1244819181    0.0348695336
     24  H         0.5915669797   -2.9962481462    0.0538894669
   Point Group: c1    Number of degrees of freedom:    66


   Energy is   -679.096513431

              Constraints and their Current Values
                                        Value     Constraint
   Dihedral:        2   1   3   5      150.001      150.000
   Dihedral:        1   2   4   7      -45.001      -45.000
 Hessian Updated using BFGS Update

   Using Lagrange Multiplier Algorithm


 63 Hessian modes will be used to form the next step
  Hessian Eigenvalues:
    -0.977674   -0.977331    0.043387    0.045000    0.045000    0.045000
     0.045001    0.045001    0.045001    0.045005    0.045008    0.045013
     0.045050    0.045090    0.045191    0.045965    0.112603    0.113902
     0.116871    0.116915    0.158494    0.159975    0.159990    0.159999
     0.160000    0.161135    0.163165    0.219974    0.224850    0.226455
     0.244402    0.249140    0.249546    0.249863    0.249996    0.251012
     0.299673    0.342662    0.342736    0.342881    0.342921    0.343861
     0.344144    0.346105    0.349153    0.349847    0.350047    0.350396
     0.378473    0.398186    0.413085    0.413530    0.420402    0.450868
     0.456753    0.466749    0.470302    0.476622    0.536306    0.956560
     1.011244    1.022978    1.029450

 Minimum Search - Taking P-RFO Step
 Searching for Lamda that Maximizes Along the Constraint modes Only
 Value Taken    Lamda =   0.00000087
 Searching for Lamda that Minimizes Along All other modes
 Value Taken    Lamda =  -0.00049267
 Step Taken.  Stepsize is  0.048990

                             Maximum     Tolerance    Cnvgd?
         Gradient            0.006974       0.000300      NO
         Displacement        0.019221       0.001200      NO
         Energy change     -0.001779       0.000001      NO


 New Cartesian Coordinates Obtained by Inverse Iteration

 Displacement from previous Coordinates is:  0.166275
 Adding empirical dispersion correction 
 ----------------------------------------------------------------
 Doing -D3(op) with
 s6 =   1.00000
 s8 =   0.78311
 a1 =   0.30000
 a2 =   4.25000
 n  =  10.00000
 -D3 energy without 3body term =     -0.0234310753 hartrees
 ----------------------------------------------------------------
             Standard Nuclear Orientation (Angstroms)
    I     Atom           X                Y                Z
 ----------------------------------------------------------------
    1      C      -0.0601589044    -0.9182930972    -0.0653721375
    2      C      -1.1794380689    -0.0378757968    -0.0599696547
    3      C       1.3624413781    -0.3748310225    -0.2967225610
    4      C      -1.0195927244     1.4958773593    -0.1292590240
    5      O       2.3005921641    -1.2059169065     0.3989149004
    6      O       1.6875102214     0.6079142251    -1.0048330328
    7      O       0.0157605554     1.9012870468     0.7737659894
    8      O      -1.7064983093     2.2888189885    -0.8148276297
    9      C       0.2173725008     3.3671651971     0.6876386652
   10      C       3.6807638875    -0.7229936979     0.1551377679
   11      C      -0.2713923099    -2.3120107435     0.0584972242
   12      C      -1.5750061850    -2.8317918513     0.1747920135
   13      C      -2.6843914492    -1.9613416421     0.1579260260
   14      C      -2.4851698713    -0.5719817492     0.0428477718
   15      H       0.4891395982     3.6776329647    -0.3415916118
   16      H       3.9551261794    -0.7966137943    -0.9172300870
   17      H      -3.7030301752    -2.3645725079     0.2402481780
   18      H      -0.6924190114     3.9225654746     0.9949464368
   19      H       1.0473081424     3.6020184906     1.3792339199
   20      H       4.3428129650    -1.3759004670     0.7533139642
   21      H       3.8051663375     0.3311949726     0.4759787923
   22      H      -1.7266169169    -3.9157556602     0.2695716431
   23      H      -3.3434268184     0.1146172045     0.0372255879
   24      H       0.5989817652    -2.9824554659     0.0533944565
 ----------------------------------------------------------------
 Molecular Point Group                 C1    NOp =  1
 Largest Abelian Subgroup              C1    NOp =  1
 Nuclear Repulsion Energy =   869.9019432936 hartrees
 There are       51 alpha and       51 beta electrons
 Applying Cartesian multipole field
    Component          Value
    ---------          -----
     (2,0,0)        1.00000E-11
     (0,2,0)        2.00000E-11
     (0,0,2)       -3.00000E-10
 Nucleus-field energy     =     0.0000000083 hartrees
 Requested basis set is STO-3G
 There are 38 shells and 80 basis functions
 A cutoff of  1.0D-12 yielded    630 shell pairs
 There are      3150 function pairs
 Smallest overlap matrix eigenvalue = 1.81E-01
 Guess MOs from SCF MO coefficient file
 Reading MOs from coefficient file
 Reading MOs from coefficient file
 A restricted hybrid HF-DFT SCF calculation will be
 performed using Pulay DIIS extrapolation
 Exchange:     0.2000 Hartree-Fock + 0.0800 Slater + 0.7200 B88
 Correlation:  0.1900 VWN1RPA + 0.8100 LYP
 Using SG-1 standard quadrature grid
 Dispersion:   Grimme D3
 SCF converges when DIIS error is below 1.0E-08
 Geometry optimization detected.  Setting ReadMinima to 0
 Setting SaveMinima to 0
 -------------------------------------------------------
 OpenMP Integral computing Module                
 Release: version 1.0, May 2013, Q-Chem Inc. Pittsburgh 
 -------------------------------------------------------
 -------------------------------------------------------
 OpenMP BLAS3 based DFT computing Module                
 Release: version 1.0, May 2013, Q-Chem Inc. Pittsburgh 
 -------------------------------------------------------
 ---------------------------------------
  Cycle       Energy         DIIS Error
 ---------------------------------------
    1    -679.0906071008      1.14E-03
    2    -679.0966081747      3.74E-04
    3    -679.0961631843      7.82E-04
    4    -679.0967401861      7.32E-05
    5    -679.0967450731      1.84E-05
    6    -679.0967453853      6.27E-06
    7    -679.0967454295      2.06E-06
    8    -679.0967454340      4.61E-07
    9    -679.0967454343      2.11E-07
   10    -679.0967454343      1.07E-07
   11    -679.0967454343      1.76E-08
   12    -679.0967454343      7.81E-09 Convergence criterion met
 ---------------------------------------
 SCF time:  CPU 37.63 s  wall 1.59 s
 SCF   energy in the final basis set = -679.0967454343
 Total energy in the final basis set = -679.0967454343
 
 --------------------------------------------------------------
 
                    Orbital Energies (a.u.)
 --------------------------------------------------------------
 
 Alpha MOs
 -- Occupied --
-18.937 -18.934 -18.875 -18.874 -10.105 -10.103 -10.066 -10.062
-10.033 -10.032 -10.021 -10.021 -10.021 -10.020  -1.012  -1.007
 -0.937  -0.933  -0.816  -0.724  -0.717  -0.666  -0.658  -0.589
 -0.577  -0.523  -0.496  -0.462  -0.443  -0.420  -0.417  -0.411
 -0.406  -0.398  -0.375  -0.368  -0.356  -0.350  -0.333  -0.319
 -0.317  -0.305  -0.292  -0.259  -0.253  -0.204  -0.200  -0.181
 -0.172  -0.155  -0.152
 -- Virtual --
  0.041   0.064   0.119   0.131   0.234   0.247   0.270   0.316
  0.337   0.351   0.375   0.389   0.415   0.421   0.426   0.430
  0.433   0.436   0.439   0.443   0.450   0.536   0.543   0.565
  0.577   0.645   0.647   0.745   0.771
 --------------------------------------------------------------
 
          Ground-State Mulliken Net Atomic Charges

     Atom                 Charge (a.u.)
  ----------------------------------------
      1 C                    -0.013299
      2 C                    -0.011830
      3 C                     0.210859
      4 C                     0.211755
      5 O                    -0.166902
      6 O                    -0.208714
      7 O                    -0.165301
      8 O                    -0.207630
      9 C                    -0.127273
     10 C                    -0.128035
     11 C                    -0.071466
     12 C                    -0.074056
     13 C                    -0.073198
     14 C                    -0.071364
     15 H                     0.093337
     16 H                     0.088760
     17 H                     0.085671
     18 H                     0.088359
     19 H                     0.090464
     20 H                     0.091087
     21 H                     0.090982
     22 H                     0.085237
     23 H                     0.090023
     24 H                     0.092532
  ----------------------------------------
  Sum of atomic charges =    -0.000000

 -----------------------------------------------------------------
                    Cartesian Multipole Moments
 -----------------------------------------------------------------
    Charge (ESU x 10^10)
                -0.0000
    Dipole Moment (Debye)
         X       0.8629      Y      -0.9759      Z       1.1044
       Tot       1.7078
    Quadrupole Moments (Debye-Ang)
        XX     -65.5102     XY       2.9716     YY     -67.4403
        XZ      -1.2820     YZ       4.1218     ZZ     -76.7668
    Octopole Moments (Debye-Ang^2)
       XXX      33.0305    XXY      -9.7005    XYY       7.9938
       YYY      21.8864    XXZ       5.4196    XYZ      -0.3059
       YYZ       8.2718    XZZ       9.0366    YZZ       7.6682
       ZZZ      -8.2520
    Hexadecapole Moments (Debye-Ang^3)
      XXXX   -1483.1871   XXXY     -48.9665   XXYY    -531.4465
      XYYY      -4.6623   YYYY   -1469.0958   XXXZ      -5.9819
      XXYZ       9.2770   XYYZ     -14.3832   YYYZ      15.4338
      XXZZ    -311.1658   XYZZ     -19.7377   YYZZ    -298.6126
      XZZZ      -5.6658   YZZZ      -6.1225   ZZZZ    -161.2532
 -----------------------------------------------------------------
 Calculating analytic gradient of the SCF energy
 Gradient of SCF Energy
            1           2           3           4           5           6
    1  -0.0007227  -0.0004430  -0.0000693   0.0001587  -0.0007254   0.0003481
    2  -0.0010513  -0.0008767  -0.0015475  -0.0004587   0.0004383   0.0012345
    3  -0.0001308  -0.0017325   0.0009441   0.0018948   0.0001607  -0.0010399
            7           8           9          10          11          12
    1  -0.0001467  -0.0005182   0.0007033   0.0013171  -0.0002145   0.0000679
    2  -0.0002941   0.0008021   0.0010050  -0.0002077   0.0003477   0.0001164
    3  -0.0003856  -0.0007284   0.0004075   0.0002918   0.0002381  -0.0000008
           13          14          15          16          17          18
    1   0.0000110   0.0001683  -0.0003040  -0.0000299  -0.0000238   0.0000613
    2   0.0002020  -0.0002113   0.0000209   0.0002272  -0.0000299   0.0000216
    3  -0.0000691   0.0005493   0.0000129   0.0000363   0.0000246  -0.0001226
           19          20          21          22          23          24
    1   0.0001564   0.0001697  -0.0000677  -0.0000159  -0.0000073   0.0001263
    2   0.0001414  -0.0000469   0.0000244  -0.0000229   0.0000965   0.0000689
    3   0.0000423   0.0000173  -0.0002465   0.0000313  -0.0000878  -0.0001067
 Max gradient component =       1.895E-03
 RMS gradient           =       5.585E-04
 Gradient time:  CPU 9.74 s  wall 0.41 s
 Geometry Optimization Parameters
   NAtoms,    NIC,     NZ,  NCons,   NDum,   NFix, NCnnct, MaxDiis
       24     152       0       2       0       0       0       0

 Cartesian Hessian Update
 Hessian Updated using BFGS Update


** CONSTRAINED OPTIMIZATION IN DELOCALIZED INTERNAL COORDINATES **
   Searching for a Minimum

   Optimization Cycle:   4

                       Coordinates (Angstroms)
     ATOM                X               Y               Z
      1  C        -0.0601589044   -0.9182930972   -0.0653721375
      2  C        -1.1794380689   -0.0378757968   -0.0599696547
      3  C         1.3624413781   -0.3748310225   -0.2967225610
      4  C        -1.0195927244    1.4958773593   -0.1292590240
      5  O         2.3005921641   -1.2059169065    0.3989149004
      6  O         1.6875102214    0.6079142251   -1.0048330328
      7  O         0.0157605554    1.9012870468    0.7737659894
      8  O        -1.7064983093    2.2888189885   -0.8148276297
      9  C         0.2173725008    3.3671651971    0.6876386652
     10  C         3.6807638875   -0.7229936979    0.1551377679
     11  C        -0.2713923099   -2.3120107435    0.0584972242
     12  C        -1.5750061850   -2.8317918513    0.1747920135
     13  C        -2.6843914492   -1.9613416421    0.1579260260
     14  C        -2.4851698713   -0.5719817492    0.0428477718
     15  H         0.4891395982    3.6776329647   -0.3415916118
     16  H         3.9551261794   -0.7966137943   -0.9172300870
     17  H        -3.7030301752   -2.3645725079    0.2402481780
     18  H        -0.6924190114    3.9225654746    0.9949464368
     19  H         1.0473081424    3.6020184906    1.3792339199
     20  H         4.3428129650   -1.3759004670    0.7533139642
     21  H         3.8051663375    0.3311949726    0.4759787923
     22  H        -1.7266169169   -3.9157556602    0.2695716431
     23  H        -3.3434268184    0.1146172045    0.0372255879
     24  H         0.5989817652   -2.9824554659    0.0533944565
   Point Group: c1    Number of degrees of freedom:    66


   Energy is   -679.096745434

              Constraints and their Current Values
                                        Value     Constraint
   Dihedral:        2   1   3   5      150.000      150.000
   Dihedral:        1   2   4   7      -45.000      -45.000
 Hessian Updated using BFGS Update

 60 Hessian modes will be used to form the next step
  Hessian Eigenvalues:
     0.040264    0.045000    0.045001    0.045001    0.045001    0.045004
     0.045006    0.045008    0.045013    0.045046    0.045167    0.045380
     0.046168    0.113894    0.114767    0.116871    0.116911    0.159095
     0.159975    0.159991    0.159999    0.160000    0.160053    0.161055
     0.163123    0.219460    0.220931    0.224985    0.244402    0.249044
     0.249558    0.249950    0.249997    0.250078    0.250820    0.300799
     0.342727    0.342873    0.342916    0.343664    0.343788    0.344149
     0.346699    0.349146    0.349838    0.350043    0.350359    0.369712
     0.412860    0.413095    0.417674    0.449783    0.456363    0.458068
     0.466884    0.469081    0.516766    0.539008    0.956694    0.983802

 Minimum Search - Taking Simple RFO Step
 Searching for Lamda that Minimizes Along All modes
 Value Taken    Lamda =  -0.00003895
 Step Taken.  Stepsize is  0.018348

                             Maximum     Tolerance    Cnvgd?
         Gradient           0.002180      0.000300      NO
         Displacement       0.006737      0.001200      NO
         Energy change     -0.000232      0.000001      NO


 New Cartesian Coordinates Obtained by Inverse Iteration

 Displacement from previous Coordinates is:  0.046476
 Adding empirical dispersion correction 
 ----------------------------------------------------------------
 Doing -D3(op) with
 s6 =   1.00000
 s8 =   0.78311
 a1 =   0.30000
 a2 =   4.25000
 n  =  10.00000
 -D3 energy without 3body term =     -0.0234457070 hartrees
 ----------------------------------------------------------------
             Standard Nuclear Orientation (Angstroms)
    I     Atom           X                Y                Z
 ----------------------------------------------------------------
    1      C      -0.0601447003    -0.9155426257    -0.0624967555
    2      C      -1.1800193433    -0.0364944257    -0.0541564000
    3      C       1.3611790543    -0.3715894641    -0.2932574793
    4      C      -1.0206648464     1.4957021208    -0.1262969857
    5      O       2.2983803814    -1.2054795224     0.4006673930
    6      O       1.6870334462     0.6127873746    -0.9971426244
    7      O       0.0184073502     1.9000823466     0.7729173153
    8      O      -1.7087397545     2.2879267611    -0.8103204475
    9      C       0.2200977471     3.3647518541     0.6825750319
   10      C       3.6770870717    -0.7220675707     0.1557940612
   11      C      -0.2702067188    -2.3104626905     0.0569333740
   12      C      -1.5734459710    -2.8318667101     0.1717056941
   13      C      -2.6835509960    -1.9623063201     0.1573402352
   14      C      -2.4856018795    -0.5721763350     0.0458831790
   15      H       0.4931833115     3.6728157456    -0.3471284887
   16      H       3.9504023805    -0.7949560491    -0.9169906252
   17      H      -3.7018666889    -2.3666389823     0.2378709900
   18      H      -0.6892135638     3.9212663940     0.9896439421
   19      H       1.0500827409     3.6002790510     1.3735441044
   20      H       4.3390513055    -1.3765614290     0.7519811641
   21      H       3.8030187286     0.3310884886     0.4796350371
   22      H      -1.7240757236    -3.9162444392     0.2630078972
   23      H      -3.3447512667     0.1131520578     0.0414678362
   24      H       0.6001928857    -2.9807081087     0.0504501498
 ----------------------------------------------------------------
 Molecular Point Group                 C1    NOp =  1
 Largest Abelian Subgroup              C1    NOp =  1
 Nuclear Repulsion Energy =   870.3537941789 hartrees
 There are       51 alpha and       51 beta electrons
 Applying Cartesian multipole field
    Component          Value
    ---------          -----
     (2,0,0)        1.00000E-11
     (0,2,0)        2.00000E-11
     (0,0,2)       -3.00000E-10
 Nucleus-field energy     =     0.0000000086 hartrees
 Requested basis set is STO-3G
 There are 38 shells and 80 basis functions
 A cutoff of  1.0D-12 yielded    630 shell pairs
 There are      3150 function pairs
 Smallest overlap matrix eigenvalue = 1.81E-01
 Guess MOs from SCF MO coefficient file
 Reading MOs from coefficient file
 Reading MOs from coefficient file
 A restricted hybrid HF-DFT SCF calculation will be
 performed using Pulay DIIS extrapolation
 Exchange:     0.2000 Hartree-Fock + 0.0800 Slater + 0.7200 B88
 Correlation:  0.1900 VWN1RPA + 0.8100 LYP
 Using SG-1 standard quadrature grid
 Dispersion:   Grimme D3
 SCF converges when DIIS error is below 1.0E-08
 Geometry optimization detected.  Setting ReadMinima to 0
 Setting SaveMinima to 0
 -------------------------------------------------------
 OpenMP Integral computing Module                
 Release: version 1.0, May 2013, Q-Chem Inc. Pittsburgh 
 -------------------------------------------------------
 -------------------------------------------------------
 OpenMP BLAS3 based DFT computing Module                
 Release: version 1.0, May 2013, Q-Chem Inc. Pittsburgh 
 -------------------------------------------------------
 ---------------------------------------
  Cycle       Energy         DIIS Error
 ---------------------------------------
    1    -679.0983444977      3.16E-04
    2    -679.0967637520      3.86E-05
    3    -679.0967612734      6.65E-05
    4    -679.0967657072      1.48E-05
    5    -679.0967658652      7.53E-06
    6    -679.0967659176      1.76E-06
    7    -679.0967659210      4.71E-07
    8    -679.0967659212      2.05E-07
    9    -679.0967659213      1.15E-07
   10    -679.0967659213      3.18E-08
   11    -679.0967659213      6.08E-09 Convergence criterion met
 ---------------------------------------
 SCF time:  CPU 34.24 s  wall 1.45 s
 SCF   energy in the final basis set = -679.0967659213
 Total energy in the final basis set = -679.0967659213
 
 --------------------------------------------------------------
 
                    Orbital Energies (a.u.)
 --------------------------------------------------------------
 
 Alpha MOs
 -- Occupied --
-18.937 -18.934 -18.876 -18.875 -10.105 -10.103 -10.066 -10.062
-10.033 -10.032 -10.021 -10.021 -10.021 -10.020  -1.013  -1.007
 -0.937  -0.933  -0.816  -0.724  -0.717  -0.666  -0.658  -0.589
 -0.577  -0.523  -0.496  -0.462  -0.443  -0.420  -0.418  -0.411
 -0.406  -0.398  -0.375  -0.367  -0.356  -0.350  -0.333  -0.319
 -0.317  -0.305  -0.292  -0.259  -0.254  -0.204  -0.200  -0.181
 -0.172  -0.155  -0.152
 -- Virtual --
  0.041   0.064   0.119   0.132   0.235   0.248   0.271   0.317
  0.337   0.351   0.375   0.389   0.415   0.421   0.426   0.430
  0.433   0.436   0.439   0.443   0.450   0.537   0.543   0.565
  0.577   0.646   0.648   0.745   0.771
 --------------------------------------------------------------
 
          Ground-State Mulliken Net Atomic Charges

     Atom                 Charge (a.u.)
  ----------------------------------------
      1 C                    -0.013374
      2 C                    -0.012000
      3 C                     0.211264
      4 C                     0.212054
      5 O                    -0.167000
      6 O                    -0.208766
      7 O                    -0.165326
      8 O                    -0.207618
      9 C                    -0.127238
     10 C                    -0.128004
     11 C                    -0.071357
     12 C                    -0.074096
     13 C                    -0.073180
     14 C                    -0.071303
     15 H                     0.093274
     16 H                     0.088661
     17 H                     0.085655
     18 H                     0.088319
     19 H                     0.090352
     20 H                     0.090948
     21 H                     0.090934
     22 H                     0.085236
     23 H                     0.090022
     24 H                     0.092546
  ----------------------------------------
  Sum of atomic charges =    -0.000000

 -----------------------------------------------------------------
                    Cartesian Multipole Moments
 -----------------------------------------------------------------
    Charge (ESU x 10^10)
                -0.0000
    Dipole Moment (Debye)
         X       0.8565      Y      -0.9802      Z       1.0900
       Tot       1.6978
    Quadrupole Moments (Debye-Ang)
        XX     -65.5610     XY       2.9756     YY     -67.4723
        XZ      -1.2886     YZ       4.1104     ZZ     -76.7417
    Octopole Moments (Debye-Ang^2)
       XXX      32.8543    XXY      -9.7305    XYY       7.9823
       YYY      21.6118    XXZ       5.3034    XYZ      -0.3185
       YYZ       8.0684    XZZ       9.0535    YZZ       7.6597
       ZZZ      -8.5621
    Hexadecapole Moments (Debye-Ang^3)
      XXXX   -1482.9838   XXXY     -49.1282   XXYY    -531.1092
      XYYY      -5.0764   YYYY   -1468.4644   XXXZ      -6.1821
      XXYZ       9.3777   XYYZ     -14.3533   YYYZ      15.4250
      XXZZ    -310.7026   XYZZ     -19.9069   YYZZ    -298.3025
      XZZZ      -5.8773   YZZZ      -6.1442   ZZZZ    -160.1488
 -----------------------------------------------------------------
 Calculating analytic gradient of the SCF energy
 Gradient of SCF Energy
            1           2           3           4           5           6
    1  -0.0002127   0.0001646   0.0000785  -0.0004315  -0.0003409  -0.0000387
    2  -0.0001119  -0.0001807  -0.0005367   0.0000683   0.0002036   0.0003175
    3  -0.0001391  -0.0011334  -0.0000203   0.0010291   0.0004028  -0.0001346
            7           8           9          10          11          12
    1   0.0002980  -0.0000108   0.0002925   0.0005280   0.0000522  -0.0001250
    2  -0.0003548   0.0001125   0.0004441   0.0000383   0.0000131  -0.0000437
    3  -0.0001575  -0.0002007   0.0000350   0.0000732   0.0001003   0.0000106
           13          14          15          16          17          18
    1  -0.0000089  -0.0000076  -0.0001193  -0.0000318   0.0000037  -0.0000028
    2  -0.0001426   0.0001626   0.0000227   0.0000186  -0.0000246  -0.0000073
    3  -0.0000177   0.0003574  -0.0000250  -0.0000397   0.0000145   0.0000653
           19          20          21          22          23          24
    1   0.0000105  -0.0000670  -0.0000251  -0.0000178   0.0000142  -0.0000021
    2  -0.0000366   0.0000145   0.0000220  -0.0000099  -0.0000021   0.0000133
    3  -0.0000684  -0.0000335  -0.0000421   0.0000238  -0.0000619  -0.0000383
 Max gradient component =       1.133E-03
 RMS gradient           =       2.505E-04
 Gradient time:  CPU 9.56 s  wall 0.40 s
 Geometry Optimization Parameters
   NAtoms,    NIC,     NZ,  NCons,   NDum,   NFix, NCnnct, MaxDiis
       24     152       0       2       0       0       0       0

 Cartesian Hessian Update
 Hessian Updated using BFGS Update


** CONSTRAINED OPTIMIZATION IN DELOCALIZED INTERNAL COORDINATES **
   Searching for a Minimum

   Optimization Cycle:   5

                       Coordinates (Angstroms)
     ATOM                X               Y               Z
      1  C        -0.0601447003   -0.9155426257   -0.0624967555
      2  C        -1.1800193433   -0.0364944257   -0.0541564000
      3  C         1.3611790543   -0.3715894641   -0.2932574793
      4  C        -1.0206648464    1.4957021208   -0.1262969857
      5  O         2.2983803814   -1.2054795224    0.4006673930
      6  O         1.6870334462    0.6127873746   -0.9971426244
      7  O         0.0184073502    1.9000823466    0.7729173153
      8  O        -1.7087397545    2.2879267611   -0.8103204475
      9  C         0.2200977471    3.3647518541    0.6825750319
     10  C         3.6770870717   -0.7220675707    0.1557940612
     11  C        -0.2702067188   -2.3104626905    0.0569333740
     12  C        -1.5734459710   -2.8318667101    0.1717056941
     13  C        -2.6835509960   -1.9623063201    0.1573402352
     14  C        -2.4856018795   -0.5721763350    0.0458831790
     15  H         0.4931833115    3.6728157456   -0.3471284887
     16  H         3.9504023805   -0.7949560491   -0.9169906252
     17  H        -3.7018666889   -2.3666389823    0.2378709900
     18  H        -0.6892135638    3.9212663940    0.9896439421
     19  H         1.0500827409    3.6002790510    1.3735441044
     20  H         4.3390513055   -1.3765614290    0.7519811641
     21  H         3.8030187286    0.3310884886    0.4796350371
     22  H        -1.7240757236   -3.9162444392    0.2630078972
     23  H        -3.3447512667    0.1131520578    0.0414678362
     24  H         0.6001928857   -2.9807081087    0.0504501498
   Point Group: c1    Number of degrees of freedom:    66


   Energy is   -679.096765921

              Constraints and their Current Values
                                        Value     Constraint
   Dihedral:        2   1   3   5      150.000      150.000
   Dihedral:        1   2   4   7      -45.000      -45.000
 Hessian Updated using BFGS Update

 60 Hessian modes will be used to form the next step
  Hessian Eigenvalues:
     0.029171    0.044426    0.045000    0.045000    0.045001    0.045001
     0.045003    0.045004    0.045006    0.045025    0.045129    0.045610
     0.048303    0.113690    0.113902    0.116898    0.116990    0.158398
     0.159904    0.159979    0.159994    0.159999    0.160368    0.161818
     0.163148    0.215560    0.220137    0.225087    0.244367    0.245537
     0.249394    0.249711    0.249970    0.250024    0.259956    0.303352
     0.342727    0.342877    0.342917    0.343403    0.344131    0.345394
     0.348041    0.349157    0.349896    0.350117    0.351273    0.373259
     0.411343    0.412928    0.413431    0.448026    0.456379    0.459903
     0.465423    0.475624    0.509779    0.536061    0.955830    0.975146

 Minimum Search - Taking Simple RFO Step
 Searching for Lamda that Minimizes Along All modes
 Value Taken    Lamda =  -0.00001267
 Step Taken.  Stepsize is  0.017695

                             Maximum     Tolerance    Cnvgd?
         Gradient           0.000535      0.000300      NO
         Displacement       0.005442      0.001200      NO
         Energy change     -0.000020      0.000001      NO


 New Cartesian Coordinates Obtained by Inverse Iteration

 Displacement from previous Coordinates is:  0.052999
 Adding empirical dispersion correction 
 ----------------------------------------------------------------
 Doing -D3(op) with
 s6 =   1.00000
 s8 =   0.78311
 a1 =   0.30000
 a2 =   4.25000
 n  =  10.00000
 -D3 energy without 3body term =     -0.0234344336 hartrees
 ----------------------------------------------------------------
             Standard Nuclear Orientation (Angstroms)
    I     Atom           X                Y                Z
 ----------------------------------------------------------------
    1      C      -0.0586306723    -0.9126313011    -0.0593655295
    2      C      -1.1793729147    -0.0344442584    -0.0490588076
    3      C       1.3630219613    -0.3708798110    -0.2909234994
    4      C      -1.0229781468     1.4973050609    -0.1226863305
    5      O       2.2983190808    -1.2077061290     0.4024626265
    6      O       1.6918413136     0.6118297792    -0.9949727349
    7      O       0.0174911327     1.9041135836     0.7736947233
    8      O      -1.7144807852     2.2878477427    -0.8046634496
    9      C       0.2158756626     3.3682686966     0.6802401574
   10      C       3.6772415763    -0.7286096293     0.1548334864
   11      C      -0.2680896073    -2.3080552103     0.0568964121
   12      C      -1.5708408948    -2.8306784503     0.1696563649
   13      C      -2.6816232784    -1.9619960215     0.1562002578
   14      C      -2.4846120753    -0.5717010433     0.0475821363
   15      H       0.4922102051     3.6743050461    -0.3492187159
   16      H       3.9488746273    -0.8031676456    -0.9182530117
   17      H      -3.6998132058    -2.3670485470     0.2346195829
   18      H      -0.6953488345     3.9238347736     0.9833000537
   19      H       1.0432829518     3.6074213847     1.3731624794
   20      H       4.3385295799    -1.3847613674     0.7501345995
   21      H       3.8074056224     0.3241042216     0.4784310278
   22      H      -1.7205656097    -3.9153988143     0.2580634439
   23      H      -3.3444665358     0.1127643565     0.0439844195
   24      H       0.6025637973    -2.9779588955     0.0495079061
 ----------------------------------------------------------------
 Molecular Point Group                 C1    NOp =  1
 Largest Abelian Subgroup              C1    NOp =  1
 Nuclear Repulsion Energy =   870.3083034736 hartrees
 There are       51 alpha and       51 beta electrons
 Applying Cartesian multipole field
    Component          Value
    ---------          -----
     (2,0,0)        1.00000E-11
     (0,2,0)        2.00000E-11
     (0,0,2)       -3.00000E-10
 Nucleus-field energy     =     0.0000000088 hartrees
 Requested basis set is STO-3G
 There are 38 shells and 80 basis functions
 A cutoff of  1.0D-12 yielded    630 shell pairs
 There are      3150 function pairs
 Smallest overlap matrix eigenvalue = 1.81E-01
 Guess MOs from SCF MO coefficient file
 Reading MOs from coefficient file
 Reading MOs from coefficient file
 A restricted hybrid HF-DFT SCF calculation will be
 performed using Pulay DIIS extrapolation
 Exchange:     0.2000 Hartree-Fock + 0.0800 Slater + 0.7200 B88
 Correlation:  0.1900 VWN1RPA + 0.8100 LYP
 Using SG-1 standard quadrature grid
 Dispersion:   Grimme D3
 SCF converges when DIIS error is below 1.0E-08
 Geometry optimization detected.  Setting ReadMinima to 0
 Setting SaveMinima to 0
 -------------------------------------------------------
 OpenMP Integral computing Module                
 Release: version 1.0, May 2013, Q-Chem Inc. Pittsburgh 
 -------------------------------------------------------
 -------------------------------------------------------
 OpenMP BLAS3 based DFT computing Module                
 Release: version 1.0, May 2013, Q-Chem Inc. Pittsburgh 
 -------------------------------------------------------
 ---------------------------------------
  Cycle       Energy         DIIS Error
 ---------------------------------------
    1    -679.0975988681      2.86E-04
    2    -679.0967665030      2.50E-05
    3    -679.0967650456      5.00E-05
    4    -679.0967673801      7.79E-06
    5    -679.0967674197      4.48E-06
    6    -679.0967674395      9.12E-07
    7    -679.0967674404      3.22E-07
    8    -679.0967674405      1.60E-07
    9    -679.0967674405      7.04E-08
   10    -679.0967674405      1.80E-08
   11    -679.0967674405      3.43E-09 Convergence criterion met
 ---------------------------------------
 SCF time:  CPU 35.61 s  wall 1.51 s
 SCF   energy in the final basis set = -679.0967674405
 Total energy in the final basis set = -679.0967674405
 
 --------------------------------------------------------------
 
                    Orbital Energies (a.u.)
 --------------------------------------------------------------
 
 Alpha MOs
 -- Occupied --
-18.937 -18.934 -18.876 -18.875 -10.105 -10.103 -10.066 -10.062
-10.033 -10.032 -10.021 -10.021 -10.021 -10.020  -1.013  -1.007
 -0.937  -0.933  -0.816  -0.724  -0.717  -0.666  -0.658  -0.589
 -0.577  -0.523  -0.496  -0.462  -0.443  -0.420  -0.418  -0.411
 -0.406  -0.398  -0.375  -0.367  -0.356  -0.350  -0.333  -0.319
 -0.317  -0.305  -0.292  -0.259  -0.254  -0.204  -0.200  -0.181
 -0.172  -0.156  -0.152
 -- Virtual --
  0.040   0.064   0.119   0.132   0.235   0.248   0.271   0.317
  0.337   0.351   0.375   0.389   0.415   0.421   0.426   0.430
  0.433   0.436   0.439   0.443   0.450   0.537   0.543   0.565
  0.577   0.646   0.649   0.745   0.771
 --------------------------------------------------------------
 
          Ground-State Mulliken Net Atomic Charges

     Atom                 Charge (a.u.)
  ----------------------------------------
      1 C                    -0.013374
      2 C                    -0.012074
      3 C                     0.211438
      4 C                     0.212159
      5 O                    -0.167118
      6 O                    -0.208705
      7 O                    -0.165371
      8 O                    -0.207652
      9 C                    -0.127164
     10 C                    -0.127955
     11 C                    -0.071313
     12 C                    -0.074109
     13 C                    -0.073184
     14 C                    -0.071257
     15 H                     0.093162
     16 H                     0.088594
     17 H                     0.085664
     18 H                     0.088377
     19 H                     0.090292
     20 H                     0.090839
     21 H                     0.090884
     22 H                     0.085241
     23 H                     0.090042
     24 H                     0.092585
  ----------------------------------------
  Sum of atomic charges =     0.000000

 -----------------------------------------------------------------
                    Cartesian Multipole Moments
 -----------------------------------------------------------------
    Charge (ESU x 10^10)
                 0.0000
    Dipole Moment (Debye)
         X       0.8505      Y      -0.9826      Z       1.0796
       Tot       1.6895
    Quadrupole Moments (Debye-Ang)
        XX     -65.6067     XY       2.9560     YY     -67.4634
        XZ      -1.2882     YZ       4.1027     ZZ     -76.7321
    Octopole Moments (Debye-Ang^2)
[...]
 C         -0.094  0.008  0.005    0.019 -0.003  0.004   -0.004 -0.030 -0.043
 C         -0.011 -0.018  0.003    0.015 -0.084  0.008   -0.002 -0.002  0.000
 C         -0.009  0.007 -0.000   -0.139  0.005  0.006   -0.001  0.001 -0.000
 C          0.006  0.016 -0.002    0.024  0.137 -0.014    0.001  0.002 -0.000
 C          0.002 -0.015  0.001    0.067 -0.047  0.002   -0.001 -0.002  0.000
 H          0.019  0.047  0.020    0.092  0.199  0.092    0.116  0.113  0.099
 H          0.484 -0.112  0.114   -0.072  0.041 -0.016   -0.326  0.308 -0.099
 H          0.019 -0.035  0.002    0.172 -0.486  0.041    0.002 -0.002  0.000
 H          0.030  0.031 -0.006    0.175  0.179  0.052   -0.061 -0.056 -0.145
 H          0.022  0.044 -0.025    0.051  0.283 -0.096    0.202 -0.078 -0.137
 H          0.583  0.232 -0.224   -0.123 -0.069  0.021    0.051  0.378  0.559
 H          0.469 -0.190 -0.010   -0.098  0.059 -0.041    0.329 -0.230  0.191
 H          0.076 -0.018 -0.002    0.532 -0.211 -0.008    0.007 -0.002 -0.000
 H          0.040  0.016 -0.002    0.009 -0.121  0.009    0.006  0.004 -0.001
 H          0.065  0.050 -0.012    0.204  0.067 -0.021    0.007  0.006 -0.001
 TransDip   0.138  0.028 -0.015    0.049  0.075  0.013    0.036  0.039  0.053

 Mode:                49                     50                     51
 Frequency:      1483.04                1496.07                1496.70
 Force Cnst:      1.3568                 1.3805                 1.3827
 Red. Mass:       1.0471                 1.0469                 1.0476
 IR Active:          YES                    YES                    YES
 IR Intens:       13.217                 16.945                  3.339
 Raman Active:       YES                    YES                    YES
               X      Y      Z        X      Y      Z        X      Y      Z
 C          0.000 -0.005  0.000    0.004 -0.004  0.000    0.003  0.004 -0.001
 C          0.004  0.002 -0.001   -0.001  0.006 -0.000   -0.003 -0.003  0.000
 C         -0.001  0.001  0.000    0.002 -0.001  0.001   -0.005  0.004 -0.003
 C          0.001  0.003  0.002    0.002 -0.002  0.001    0.004  0.001  0.003
 O          0.001  0.002  0.004   -0.003 -0.010  0.007    0.004  0.010 -0.007
 O          0.000  0.000 -0.001   -0.001  0.003 -0.002    0.000 -0.005  0.004
 O         -0.010 -0.002  0.007    0.007 -0.004  0.010    0.006 -0.005  0.009
 O         -0.000 -0.001 -0.000   -0.003  0.002 -0.004   -0.004  0.002 -0.004
 C         -0.042  0.005  0.031    0.019 -0.019  0.028    0.016 -0.018  0.026
 C          0.004  0.011  0.017   -0.012 -0.028  0.020    0.015  0.030 -0.023
 C         -0.003  0.002  0.000   -0.005 -0.003  0.001    0.002 -0.001  0.000
 C          0.006  0.000 -0.000    0.001  0.003 -0.000   -0.005 -0.001  0.000
 C         -0.000 -0.005  0.001    0.002 -0.002  0.000    0.001  0.004 -0.000
 C         -0.004  0.000  0.000   -0.004 -0.004  0.001    0.002 -0.001  0.000
 H          0.275  0.304  0.241   -0.362  0.303 -0.193   -0.318  0.288 -0.166
 H          0.118 -0.104  0.036    0.188  0.415  0.026   -0.222 -0.450 -0.033
 H         -0.006  0.022 -0.002   -0.000  0.013 -0.001    0.006 -0.016  0.001
 H         -0.155 -0.141 -0.404    0.170  0.168 -0.401    0.154  0.153 -0.373
 H          0.514 -0.227 -0.341   -0.123 -0.192  0.137   -0.096 -0.173  0.112
 H         -0.040 -0.154 -0.209   -0.156 -0.063  0.068    0.167  0.077 -0.058
 H         -0.136  0.098 -0.085    0.149  0.105 -0.415   -0.162 -0.121  0.465
 H         -0.019  0.009  0.000    0.005  0.003 -0.000    0.014 -0.007  0.000
 H          0.005  0.010 -0.001    0.016  0.015 -0.002   -0.000 -0.004 -0.000
 H         -0.002  0.004 -0.000    0.016  0.017 -0.002   -0.002 -0.006 -0.001
 TransDip   0.043 -0.048 -0.097   -0.094  0.045 -0.081    0.006 -0.056 -0.015

 Mode:                52                     53                     54
 Frequency:      1515.72                1612.43                1636.59
 Force Cnst:      3.5906                 9.6650                 9.0682
 Red. Mass:       2.6527                 6.3094                 5.7463
 IR Active:          YES                    YES                    YES
 IR Intens:       12.318                 11.890                  6.740
 Raman Active:       YES                    YES                    YES
               X      Y      Z        X      Y      Z        X      Y      Z
 C          0.174 -0.067 -0.006    0.151 -0.259  0.018   -0.119 -0.172  0.027
 C         -0.034  0.177 -0.011   -0.241  0.162 -0.007    0.190  0.128 -0.014
 C         -0.055  0.024 -0.000   -0.046  0.002  0.021   -0.001 -0.008  0.013
 C         -0.019 -0.036 -0.028    0.005  0.003 -0.033   -0.027 -0.027 -0.003
 O          0.003 -0.003  0.001   -0.005 -0.002 -0.000   -0.002 -0.003  0.001
 O          0.004 -0.007  0.002    0.018  0.017 -0.017    0.012  0.019 -0.015
 O          0.005  0.008  0.004    0.002  0.006  0.003    0.001 -0.002 -0.000
 O          0.008 -0.012  0.016    0.007 -0.022  0.023    0.005  0.002  0.000
 C          0.006  0.014  0.000    0.001  0.002  0.002    0.002  0.003  0.001
 C          0.015  0.002 -0.002    0.004  0.000 -0.001   -0.002  0.000 -0.001
 C         -0.134 -0.108  0.018   -0.092  0.129 -0.008    0.259  0.208 -0.034
 C         -0.009  0.092 -0.009    0.296 -0.195  0.005   -0.213 -0.071  0.016
 C          0.084 -0.050  0.002   -0.169  0.311 -0.023    0.094  0.199 -0.024
 C         -0.124 -0.105  0.013    0.117 -0.104  0.006   -0.244 -0.243  0.032
 H         -0.006 -0.090 -0.017   -0.013 -0.020 -0.009    0.002 -0.005 -0.001
 H         -0.062 -0.034 -0.014    0.003 -0.008 -0.001    0.014  0.001  0.002
 H          0.022  0.307 -0.032   -0.015 -0.461  0.048    0.202 -0.199  0.018
 H         -0.055 -0.054  0.029   -0.006 -0.003  0.000   -0.009 -0.009 -0.002
 H         -0.014 -0.046  0.024   -0.006 -0.009  0.008    0.004 -0.005  0.001
 H         -0.044 -0.027  0.007    0.002 -0.003 -0.003   -0.001  0.000 -0.002
 H         -0.068  0.015  0.037   -0.007  0.001  0.006    0.004 -0.001 -0.003
 H          0.227  0.039 -0.014   -0.473  0.028  0.022    0.197 -0.216  0.015
 H          0.424  0.393 -0.040    0.056 -0.184  0.011    0.360  0.294 -0.031
 H          0.416  0.396 -0.065   -0.187  0.067  0.010   -0.297 -0.306  0.054
 TransDip  -0.104  0.011 -0.041   -0.108 -0.020 -0.006    0.049 -0.067  0.003

 Mode:                55                     56                     57
 Frequency:      1773.17                1782.76                3050.13
 Force Cnst:     21.8489                22.2347                 5.6434
 Red. Mass:      11.7945                11.8740                 1.0296
 IR Active:          YES                    YES                    YES
 IR Intens:      248.609                305.192                 29.778
 Raman Active:       YES                    YES                    YES
               X      Y      Z        X      Y      Z        X      Y      Z
 C         -0.059 -0.081  0.026   -0.022 -0.002  0.004    0.000 -0.000  0.000
 C         -0.004  0.033 -0.006    0.023 -0.088  0.021   -0.000  0.000 -0.000
 C          0.315  0.595 -0.409    0.023  0.024 -0.020   -0.001  0.002 -0.001
 C          0.030 -0.015  0.027   -0.291  0.541 -0.495    0.001  0.000  0.001
 O         -0.007 -0.044  0.029   -0.003 -0.002  0.001    0.003 -0.000  0.000
 O         -0.181 -0.381  0.269   -0.010 -0.018  0.015   -0.000 -0.001  0.001
 O         -0.010 -0.001 -0.004    0.030 -0.021  0.039   -0.000 -0.001 -0.000
 O         -0.011  0.011 -0.014    0.195 -0.330  0.330   -0.000  0.000 -0.000
 C         -0.001 -0.001 -0.002    0.005  0.031 -0.006   -0.003 -0.011  0.004
 C          0.030  0.009 -0.010    0.002  0.001 -0.001    0.038  0.013 -0.015
 C         -0.013  0.019  0.001    0.011  0.009 -0.003    0.000 -0.000  0.000
 C          0.023 -0.011 -0.001   -0.012  0.003  0.001    0.000  0.000 -0.000
 C         -0.007  0.015 -0.001    0.014 -0.007 -0.002    0.000 -0.000  0.000
 C          0.005 -0.015  0.001   -0.017  0.008 -0.004    0.000 -0.000 -0.000
 H          0.011 -0.027  0.004   -0.066 -0.095 -0.087    0.095  0.013 -0.147
 H         -0.124  0.063 -0.061   -0.006  0.004 -0.004   -0.107  0.033  0.614
 H         -0.000 -0.019  0.004    0.003  0.037 -0.005   -0.000 -0.000  0.000
 H          0.002 -0.005  0.022   -0.117 -0.074 -0.076   -0.125  0.111  0.002
 H         -0.002  0.014 -0.003   -0.042 -0.225  0.055    0.070  0.012  0.098
 H         -0.220 -0.071  0.073   -0.011 -0.003  0.005   -0.181  0.327 -0.205
 H         -0.120  0.090 -0.017   -0.005  0.004 -0.000   -0.186 -0.518 -0.224
 H         -0.027  0.003 -0.000    0.011 -0.004  0.004   -0.000 -0.001  0.000
 H          0.035  0.013 -0.005    0.008  0.048  0.014   -0.000  0.000 -0.000
 H         -0.044  0.004  0.004   -0.006 -0.006 -0.002   -0.002  0.001 -0.000
 TransDip   0.172  0.402 -0.253   -0.227  0.329 -0.392    0.162 -0.062 -0.021

 Mode:                58                     59                     60
 Frequency:      3050.60                3123.71                3125.95
 Force Cnst:      5.6440                 6.3649                 6.3747
 Red. Mass:       1.0294                 1.1071                 1.1073
 IR Active:          YES                    YES                    YES
 IR Intens:       39.496                 17.441                 14.323
 Raman Active:       YES                    YES                    YES
               X      Y      Z        X      Y      Z        X      Y      Z
 C          0.000 -0.000  0.000    0.000 -0.000 -0.000   -0.000 -0.000  0.000
 C          0.000  0.000  0.000    0.000  0.000  0.000    0.000 -0.000 -0.000
 C         -0.000  0.001 -0.000    0.000  0.000  0.000    0.000  0.000 -0.000
 C         -0.002 -0.000 -0.002   -0.000 -0.000 -0.000   -0.000 -0.000  0.000
 O          0.001 -0.000  0.000   -0.000  0.000  0.000    0.000 -0.000  0.000
 O         -0.000 -0.000  0.000    0.000  0.000  0.000   -0.000 -0.000  0.000
 O          0.001  0.002  0.001    0.000  0.000  0.000   -0.000  0.000  0.000
 O          0.000 -0.001  0.001    0.000  0.000  0.000   -0.000  0.000  0.000
 C          0.011  0.038 -0.014    0.001 -0.001 -0.001    0.073 -0.035 -0.050
 C          0.011  0.004 -0.004   -0.009 -0.053 -0.079    0.000  0.001  0.001
 C          0.000 -0.000  0.000   -0.000  0.000  0.000    0.000  0.000  0.000
 C          0.000  0.000 -0.000    0.000 -0.000  0.000   -0.000 -0.000  0.000
 C          0.000  0.000 -0.000   -0.000  0.000  0.000    0.000 -0.000  0.000
 C         -0.000 -0.000 -0.000   -0.000 -0.000  0.000   -0.000  0.000  0.000
 H         -0.338 -0.045  0.524   -0.005 -0.001  0.008   -0.363 -0.058  0.589
 H         -0.030  0.009  0.173   -0.119  0.019  0.682    0.002 -0.000 -0.011
 H         -0.001 -0.000  0.000    0.000  0.000 -0.000   -0.000 -0.000 -0.000
 H          0.444 -0.393 -0.005   -0.008  0.008 -0.000   -0.532  0.473 -0.011
 H         -0.248 -0.043 -0.345   -0.001 -0.000 -0.001    0.033 -0.003  0.017
 H         -0.051  0.092 -0.058    0.008 -0.028 -0.005   -0.001  0.002 -0.001
 H         -0.052 -0.146 -0.063    0.223  0.631  0.251   -0.003 -0.008 -0.003
 H         -0.000 -0.001  0.000    0.000  0.000 -0.000    0.000  0.000 -0.000
 H         -0.001  0.001  0.000   -0.000  0.000 -0.000    0.000 -0.000 -0.000
 H         -0.000  0.000 -0.000    0.000 -0.000 -0.000   -0.000  0.000  0.000
 TransDip   0.122  0.159  0.018   -0.014 -0.072 -0.112    0.082 -0.057 -0.069

 Mode:                61                     62                     63
 Frequency:      3157.67                3158.13                3173.05
 Force Cnst:      6.4990                 6.5006                 6.4465
 Red. Mass:       1.1063                 1.1062                 1.0867
 IR Active:          YES                    YES                    YES
 IR Intens:       13.622                 13.076                  1.660
 Raman Active:       YES                    YES                    YES
               X      Y      Z        X      Y      Z        X      Y      Z
 C          0.000  0.000 -0.000    0.000 -0.000 -0.000    0.000  0.000 -0.000
 C         -0.000 -0.000 -0.000    0.000 -0.000  0.000   -0.000 -0.000  0.000
 C         -0.001 -0.001  0.000   -0.000  0.000 -0.000   -0.000 -0.000  0.000
 C         -0.000 -0.000 -0.000    0.000  0.001 -0.000    0.000 -0.000  0.000
 O         -0.000  0.000 -0.000    0.000 -0.000  0.000    0.000  0.000 -0.000
 O          0.000  0.000 -0.000    0.000 -0.000  0.000    0.000  0.000 -0.000
 O          0.000 -0.000 -0.000    0.000 -0.000  0.000   -0.000 -0.000 -0.000
 O          0.000 -0.000  0.000    0.000 -0.000  0.000   -0.000  0.000 -0.000
 C          0.000  0.000  0.001   -0.050  0.011 -0.079    0.000 -0.000  0.000
 C          0.020 -0.078  0.050    0.000 -0.001  0.000   -0.000  0.000 -0.000
 C          0.000 -0.000  0.000    0.000 -0.000  0.000    0.007 -0.010  0.000
 C          0.000  0.000 -0.000    0.000  0.000 -0.000    0.018  0.054 -0.006
 C         -0.000 -0.000  0.000   -0.000 -0.000  0.000   -0.056 -0.013  0.004
 C          0.000 -0.000  0.000    0.000 -0.000  0.000    0.014 -0.014  0.001
 H          0.002  0.000 -0.003   -0.169 -0.016  0.234    0.000 -0.000 -0.000
 H          0.052 -0.030 -0.289    0.000 -0.000 -0.001   -0.000  0.000  0.001
 H          0.001  0.000 -0.000    0.002  0.000 -0.000    0.663  0.144 -0.040
 H         -0.000  0.000  0.000    0.240 -0.214 -0.017   -0.001  0.001  0.000
 H         -0.004 -0.001 -0.005    0.519  0.089  0.726   -0.001 -0.000 -0.002
 H         -0.380  0.689 -0.432   -0.002  0.005 -0.003    0.002 -0.003  0.002
 H          0.101  0.267  0.130    0.001  0.003  0.001   -0.000 -0.001 -0.000
 H         -0.001 -0.003  0.000   -0.000 -0.000  0.000   -0.198 -0.637  0.070
 H         -0.000  0.001 -0.000   -0.001  0.001 -0.000   -0.163  0.177 -0.011
 H         -0.003  0.003 -0.000   -0.000  0.000 -0.000   -0.100  0.111 -0.004
 TransDip   0.051 -0.091  0.056   -0.069 -0.011 -0.092   -0.025  0.032 -0.005

 Mode:                64                     65                     66
 Frequency:      3186.86                3199.02                3210.61
 Force Cnst:      6.5313                 6.6019                 6.6424
 Red. Mass:       1.0915                 1.0949                 1.0937
 IR Active:          YES                    YES                    YES
 IR Intens:        8.892                  6.985                  3.662
 Raman Active:       YES                    YES                    YES
               X      Y      Z        X      Y      Z        X      Y      Z
 C         -0.000  0.000  0.000   -0.000  0.001 -0.000    0.001  0.003 -0.000
 C         -0.001 -0.001  0.000   -0.003 -0.001  0.000   -0.000  0.001 -0.000
 C         -0.000  0.000 -0.000   -0.000 -0.000  0.000    0.001 -0.001  0.000
 C          0.000 -0.000  0.000    0.000 -0.001  0.000    0.000  0.000 -0.000
 O         -0.000 -0.000  0.000    0.000  0.000 -0.000    0.000  0.000 -0.000
 O          0.000 -0.000  0.000    0.000  0.000 -0.000   -0.000  0.000  0.000
 O         -0.000  0.000 -0.000    0.000  0.000  0.000   -0.000 -0.000 -0.000
 O         -0.000  0.000 -0.000   -0.000  0.000 -0.000    0.000 -0.000  0.000
 C          0.000  0.000  0.000    0.000 -0.000  0.000    0.000  0.000  0.000
 C          0.000 -0.000  0.000   -0.000  0.000 -0.000   -0.000  0.000 -0.000
 C         -0.010  0.014 -0.001    0.010 -0.012  0.000    0.057 -0.061  0.002
 C         -0.015 -0.056  0.006    0.002  0.014 -0.001   -0.010 -0.024  0.003
 C         -0.046 -0.007  0.002    0.043  0.011 -0.003   -0.010 -0.001  0.001
 C          0.029 -0.029  0.002    0.049 -0.056  0.003   -0.005  0.006 -0.000
 H          0.000  0.000 -0.000    0.000  0.000 -0.000   -0.000 -0.000  0.000
 H         -0.000 -0.000 -0.000    0.000  0.000 -0.000    0.000  0.000  0.000
 H          0.519  0.107 -0.031   -0.473 -0.104  0.029    0.103  0.021 -0.006
 H         -0.000  0.000  0.000   -0.001  0.001  0.000    0.000 -0.000  0.000
 H         -0.001 -0.000 -0.001   -0.000  0.000 -0.000   -0.000 -0.000 -0.001
 H         -0.001  0.002 -0.001    0.001 -0.001  0.001    0.001 -0.002  0.002
 H         -0.000 -0.000 -0.000    0.000  0.000  0.000    0.000  0.000  0.000
 H          0.191  0.629 -0.069   -0.042 -0.146  0.016    0.085  0.267 -0.029
 H         -0.322  0.352 -0.021   -0.559  0.621 -0.038    0.060 -0.067  0.004
 H          0.143 -0.159  0.005   -0.122  0.134 -0.005   -0.642  0.693 -0.023
 TransDip  -0.058 -0.076  0.009    0.084  0.007 -0.007   -0.017 -0.059  0.003

 STANDARD THERMODYNAMIC QUANTITIES AT   298.15 K  AND     1.00 ATM

   This Molecule has  0 Imaginary Frequencies
   Zero point vibrational energy:      116.067 kcal/mol

   Atom    1 Element C  Has Mass   12.00000
   Atom    2 Element C  Has Mass   12.00000
   Atom    3 Element C  Has Mass   12.00000
   Atom    4 Element C  Has Mass   12.00000
   Atom    5 Element O  Has Mass   15.99491
   Atom    6 Element O  Has Mass   15.99491
   Atom    7 Element O  Has Mass   15.99491
   Atom    8 Element O  Has Mass   15.99491
   Atom    9 Element C  Has Mass   12.00000
   Atom   10 Element C  Has Mass   12.00000
   Atom   11 Element C  Has Mass   12.00000
   Atom   12 Element C  Has Mass   12.00000
   Atom   13 Element C  Has Mass   12.00000
   Atom   14 Element C  Has Mass   12.00000
   Atom   15 Element H  Has Mass    1.00783
   Atom   16 Element H  Has Mass    1.00783
   Atom   17 Element H  Has Mass    1.00783
   Atom   18 Element H  Has Mass    1.00783
   Atom   19 Element H  Has Mass    1.00783
   Atom   20 Element H  Has Mass    1.00783
   Atom   21 Element H  Has Mass    1.00783
   Atom   22 Element H  Has Mass    1.00783
   Atom   23 Element H  Has Mass    1.00783
   Atom   24 Element H  Has Mass    1.00783
   Molecular Mass:   194.057940 amu
   Principal axes and moments of inertia in amu*Bohr^2:
                             1           2           3
    Eigenvalues --     2391.11737  2462.93127  4474.24984
          X               0.97194     0.23523     0.00080
          Y              -0.23523     0.97189     0.00965
          Z               0.00149    -0.00956     0.99995
   Rotational Symmetry Number is   1
   The Molecule is an Asymmetric Top
   Translational Enthalpy:        0.889 kcal/mol
   Rotational Enthalpy:           0.889 kcal/mol
   Vibrational Enthalpy:        122.786 kcal/mol
   gas constant (RT):             0.592 kcal/mol
   Translational Entropy:        41.694  cal/mol.K
   Rotational Entropy:           31.644  cal/mol.K
   Vibrational Entropy:          44.776  cal/mol.K

   Total Enthalpy:              125.156 kcal/mol
   Total Entropy:               118.114  cal/mol.K
Archival summary:
1\1\nid04367\FREQ\ProcedureUnspecified\BasisUnspecified\41010\junteng\WedOct419:26:452017WedOct419:26:452017\0\\#,FREQ,ProcedureUnspecified,BasisUnspecified,\\0,1\O\C,1,1.3441\O,2,1.20641,1,124.525\C,1,1.43946,2,115.87,3,-10.0109,0\H,4,1.08758,1,105.429,2,176.933,0\H,4,1.09057,1,110.68,2,57.0592,0\H,4,1.09128,1,109.522,2,-63.9941,0\C,2,1.49888,1,111.242,3,-176.382,0\C,8,1.39525,2,117.339,1,125.838,0\H,9,1.0832,8,118.848,2,1.98246,0\C,9,1.39282,8,120.595,2,-177.619,0\H,11,1.08399,9,119.866,8,179.607,0\C,11,1.39297,9,119.877,8,-0.345409,0\H,13,1.084,11,120.273,9,-179.883,0\C,13,1.39195,11,119.909,9,-0.556085,0\H,15,1.08188,13,120.235,11,-178.534,0\C,15,1.39914,13,120.667,11,0.366262,0\C,17,1.49385,15,119.838,13,-173.471,0\O,18,1.20825,17,124.807,15,147.995,0\O,18,1.34954,17,111.759,15,-29.7947,0\C,20,1.43907,18,115.988,17,176.467,0\H,21,1.08772,20,105.352,18,-179.514,0\H,21,1.09081,20,110.418,18,61.017,0\H,21,1.09109,20,110.43,18,-59.917,0\\\@

 Total job time:  4070.80s(wall), 20266.75s(cpu) 
 Wed Oct  4 19:26:45 2017

        *************************************************************
        *                                                           *
        *  Thank you very much for using Q-Chem.  Have a nice day.  *
        *                                                           *
        *************************************************************


