nid04597 10.128.18
Q-Chem Developer Version! Running on 10.128.18.*
                  Welcome to Q-Chem
     A Quantum Leap Into The Future Of Chemistry


 Q-Chem 5.0, Q-Chem, Inc., Pleasanton, CA (2017)

 Yihan Shao,  Zhengting Gan,  E. Epifanovsky,  A. T. B. Gilbert,  M. Wormit,  
 J. Kussmann,  A. W. Lange,  A. Behn,  Jia Deng,  Xintian Feng,  D. Ghosh,  
 M. Goldey,  P. R. Horn,  L. D. Jacobson,  I. Kaliman,  T. Kus,  A. Landau,  
 Jie Liu,  E. I. Proynov,  R. M. Richard,  R. P. Steele,  E. J. Sundstrom,  
 H. L. Woodcock III,  P. M. Zimmerman,  D. Zuev,  B. Albrecht,  E. Alguire,  
 S. A. Baeppler,  Z. Benda,  Y. A. Bernard,  E. J. Berquist,  K. B. Bravaya,  
 D. Casanova,  Chun-Min Chang,  Yunqing Chen,  A. Chien,  K. D. Closser,  
 M. P. Coons,  S. Dasgupta,  M. Diedenhofen,  Hainam Do,  R. G. Edgar,  
 Po-Tung Fang,  S. Fatehi,  Qingguo Feng,  Qinghui Ge,  A. Ghysels,  
 J. Gomes,  J. Gonthier,  A. Gunina,  M. W. D. Hanson-Heine,  
 P. H. P. Harbach,  A. W. Hauser,  J. E. Herr,  E. G. Hohenstein,  
 Z. C. Holden,  Kerwin Hui,  T.-C. Jagau,  Hyunjun Ji,  B. Kaduk,  
 K. Khistyaev,  Jaehoon Kim,  P. Klunzinger,  K. Koh,  D. Kosenkov,  
 T. Kowalczyk,  C. M. Krauter,  A. Kunitsa,  Ka Un Lao,  A. Laurent,  
 K. V. Lawler,  Joonho Lee,  D. Lefrancois,  S. Lehtola,  D. S. Levine,  
 Yi-Pei Li,  You-Sheng Lin,  Fenglai Liu,  E. Livshits,  A. Luenser,  
 P. Manohar,  E. Mansoor,  S. F. Manzer,  Shan-Ping Mao,  Yuezhi Mao,  
 N. Mardirossian,  A. V. Marenich,  L. A. Martinez-Martinez,  S. A. Maurer,  
 N. J. Mayhall,  S. C. McKenzie,  J.-M. Mewes,  A. F. Morrison,  K. Nanda,  
 T. S. Nguyen-Beck,  R. Olivares-Amaya,  J. A. Parkhill,  T. M. Perrine,  
 F. Plasser,  S. Prager,  A. Prociuk,  D. R. Rehn,  F. Rob,  M. Schneider,  
 N. Sergueev,  S. M. Sharada,  S. Sharma,  D. W. Small,  T. Stauch,  
 T. Stein,  Yu-Chuan Su,  A. J. W. Thom,  T. Tsuchimochi,  L. Vogt,  
 O. Vydrov,  M. A. Watson,  J. Wenzel,  M. de Wergifosse,  T. A. Wesolowski,  
 A. White,  J. Witte,  A. Yamada,  Jun Yang,  K. Yao,  S. Yeganeh,  
 S. R. Yost,  Zhi-Qiang You,  A. Zech,  Igor Ying Zhang,  Xing Zhang,  
 Yan Zhao,  Ying Zhu,  B. R. Brooks,  G. K. L. Chan,  C. J. Cramer,  
 M. S. Gordon,  W. J. Hehre,  A. Klamt,  M. W. Schmidt,  C. D. Sherrill,  
 D. G. Truhlar,  A. Aspuru-Guzik,  R. Baer,  A. T. Bell,  N. A. Besley,  
 Jeng-Da Chai,  A. Dreuw,  B. D. Dunietz,  T. R. Furlani,  Chao-Ping Hsu,  
 Yousung Jung,  Jing Kong,  D. S. Lambrecht,  WanZhen Liang,  C. Ochsenfeld,  
 V. A. Rassolov,  L. V. Slipchenko,  J. E. Subotnik,  T. Van Voorhis,  
 J. M. Herbert,  A. I. Krylov,  P. M. W. Gill,  M. Head-Gordon

 Contributors to earlier versions of Q-Chem not listed above: 
 R. D. Adamson,  B. Austin,  J. Baker,  G. J. O. Beran,  K. Brandhorst,  
 S. T. Brown,  E. F. C. Byrd,  A. K. Chakraborty,  C.-L. Cheng,  
 Siu Hung Chien,  D. M. Chipman,  D. L. Crittenden,  H. Dachsel,  
 R. A. DiStasio Jr.,  R. J. Doerksen,  A. D. Dutoi,  L. Fusti-Molnar,  
 W. A. Goddard III,  A. Golubeva-Zadorozhnaya,  S. R. Gwaltney,  G. Hawkins,  
 A. Heyden,  S. Hirata,  G. Kedziora,  F. J. Keil,  C. Kelley,  Jihan Kim,  
 R. A. King,  R. Z. Khaliullin,  P. P. Korambath,  W. Kurlancheek,  
 A. M. Lee,  M. S. Lee,  S. V. Levchenko,  Ching Yeh Lin,  D. Liotard,  
 R. C. Lochan,  I. Lotan,  P. E. Maslen,  N. Nair,  D. P. O'Neill,  
 D. Neuhauser,  E. Neuscamman,  C. M. Oana,  R. Olson,  B. Peters,  
 R. Peverati,  P. A. Pieniazek,  Y. M. Rhee,  J. Ritchie,  M. A. Rohrdanz,  
 E. Rosta,  N. J. Russ,  H. F. Schaefer III,  N. E. Schultz,  N. Shenvi,  
 A. C. Simmonett,  A. Sodt,  D. Stuck,  K. S. Thanthiriwatte,  V. Vanovschi,  
 Tao Wang,  A. Warshel,  C. F. Williams,  Q. Wu,  X. Xu,  W. Zhang

 Please cite Q-Chem as follows:
 Y. Shao et al., Mol. Phys. 113, 184-215 (2015)
 DOI: 10.1080/00268976.2014.952696

 Q-Chem 5.0.0 for Intel X86 EM64T Linux

 Parts of Q-Chem use Armadillo 5.200.1 (Boston Tea Smuggler).
 http://arma.sourceforge.net/

 Q-Chem begins on Wed Oct  4 17:29:54 2017  

Host: nid04597
0

     Scratch files written to /global/cscratch1/sd/junteng/scratch/13/opt_1001oo.save//

Checking the input file for inconsistencies... 	...done.

--------------------------------------------------------------
User input:
--------------------------------------------------------------
$molecule
0  1
C    0.656  -1.997   0.550
C   -0.379  -2.055   1.685
C    1.075  -0.633   0.035
C   -0.743  -0.756   2.367
O    2.254  -0.766  -0.643
O    0.466   0.414   0.178
O    0.380  -0.211   2.923
O   -1.879  -0.339   2.537
C    0.159   1.039   3.578
C    2.798   0.433  -1.203
C   -0.074  -2.721  -0.584
C   -0.239  -4.209  -0.268
C   -1.341  -4.194   0.796
C   -1.585  -2.694   0.978
O   -1.425  -2.250  -0.391
H    1.566  -2.528   0.855
H   -0.041  -2.721   2.491
H   -0.505   1.690   2.999
H    2.061   1.233  -1.326
H    0.286  -2.514  -1.595
H   -0.592  -4.755  -1.150
H    0.687  -4.677   0.078
H   -2.237  -4.682   0.398
H   -1.053  -4.703   1.720
H   -2.574  -2.451   1.372
H   -0.249   0.863   4.578
H    1.124   1.543   3.677
H    3.204   0.190  -2.189
H    3.617   0.777  -0.565
$end


$opt
CONSTRAINT
tors    2    1    3    5    162.3
tors    1    2    4    7    -61.6
ENDCONSTRAINT
$end

$rem
JOBTYPE                   OPT
METHOD                    B3LYP
DFT_D                     D3_OP
BASIS                     STO-3G
GEOM_OPT_MAX_CYCLES       500
SYMMETRY                  False
THRESH                    12
SCF_CONVERGENCE           8
MAX_SUB_FILE_NUM          128
MEM_STATIC                400
MEM_TOTAL                 4000
$end

--------------------------------------------------------------
 Adding empirical dispersion correction 
 ----------------------------------------------------------------
 Doing -D3(op) with
 s6 =   1.00000
 s8 =   0.78311
 a1 =   0.30000
 a2 =   4.25000
 n  =  10.00000
 -D3 energy without 3body term =     -0.0301175666 hartrees
 ----------------------------------------------------------------
             Standard Nuclear Orientation (Angstroms)
    I     Atom           X                Y                Z
 ----------------------------------------------------------------
    1      C       0.3697342729    -0.6344652785    -0.5682185024
    2      C       0.5830892856     0.8866305416    -0.5085431759
    3      C      -0.8699014548    -1.2078766031     0.0919214188
    4      C      -0.5598235439     1.7339384151     0.0021824174
    5      O      -1.0906277378    -2.4603631032    -0.4080500553
    6      O      -1.5566019091    -0.6636803128     0.9403504869
    7      O      -1.6498149946     1.5482939899    -0.8007775971
    8      O      -0.4799332706     2.5718972711     0.8880308806
    9      C      -2.8044492191     2.2858543985    -0.3968092184
   10      C      -2.2289112229    -3.1547881210     0.1108156327
   11      C       1.5897974066    -1.1573410878     0.1940667708
   12      C       2.8778742489    -0.9023938644    -0.5914807846
   13      C       3.0736984138     0.6062805862    -0.4118163796
   14      C       1.8273869003     0.9943712392     0.3874040257
   15      O       1.7087539834    -0.1697627505     1.2404077097
   16      H       0.3688686773    -0.9646705244    -1.6141868320
   17      H       0.8207486346     1.2891342672    -1.5030002060
   18      H      -2.9457124994     2.2580152575     0.6891040690
   19      H      -2.5806906233    -2.7639184006     1.0709042303
   20      H       1.5042519872    -2.1684976679     0.6000401094
   21      H       3.7202931181    -1.4355074158    -0.1367617613
   22      H       2.8052766319    -1.2051355012    -1.6399525713
   23      H       3.9784423183     0.7875324718     0.1780566756
   24      H       3.1670514341     1.1432862684    -1.3598201301
   25      H       1.9410338999     1.9133998678     0.9660893801
   26      H      -2.7227111035     3.3187026777    -0.7489218606
   27      H      -3.6791460159     1.8248750106    -0.8631197561
   28      H      -1.9485029726    -4.2023825341     0.2522304790
   29      H      -3.0343825811    -3.1071758873    -0.6274864507
 ----------------------------------------------------------------
 Molecular Point Group                 C1    NOp =  1
 Largest Abelian Subgroup              C1    NOp =  1
 Nuclear Repulsion Energy =  1110.7745787068 hartrees
 There are       57 alpha and       57 beta electrons
 Requested basis set is STO-3G
 There are 44 shells and 89 basis functions

 Total QAlloc Memory Limit   4000 MB
 Mega-Array Size       392 MB
 MEM_STATIC part       400 MB
 A cutoff of  1.0D-12 yielded    865 shell pairs
 There are      3901 function pairs
 
 -------------------------------------------------------
 OpenMP Integral Computing Module                       
 Release: version 1.0, May 2013, Q-Chem Inc. Pittsburgh 
 -------------------------------------------------------
 Integral Job Info:
 Integral job number is                      11
 Integral operator is                         1
 short-range coefficients                     0
 long-range coefficients              100000000
 Omega coefficients                           0
 if combine SR and LR in K                    0
 Integral screening is                        0
 Integral computing path is                   2
 max size of driver memory is            800000
 size of driver memory is                 45569
 size of scratch memory is               945100
 max col of scratch BK array                289
 max len of scratch array in speh3           22
 max len of scratch index in speh4            8
 max int batch size is                      520
 min int batch size is                       52
 fixed nKL is                                52
 max L of basis functions is                  1
 order of int derivative is                   0
 number of shells is                         44
 number of basis is                          89
 number of cartesian basis is                89
 number of contracted shell pairs           865
 number of primitive shell pairs           4854
 maxK2 (contraction) of shell pair            9
 max number of K2 of shell pair               1
 max number of CS2 of shell pair            117
 max number of PS2 of shell pair            570
 mem total for path MDJ                   27818
 -------------------------------------------------------
 Smallest overlap matrix eigenvalue = 1.94E-01

 Scale SEOQF with 1.000000e-01/1.000000e-01/1.000000e-01

 Standard Electronic Orientation quadrupole field applied
 Nucleus-field energy     =     0.0000000330 hartrees
 Guess from superposition of atomic densities
 Warning:  Energy on first SCF cycle will be non-variational
 A restricted hybrid HF-DFT SCF calculation will be
 performed using Pulay DIIS extrapolation
 Exchange:     0.2000 Hartree-Fock + 0.0800 Slater + 0.7200 B88
 Correlation:  0.1900 VWN1RPA + 0.8100 LYP
 Using SG-1 standard quadrature grid
 Dispersion:   Grimme D3
 SCF converges when DIIS error is below 1.0E-08
 -------------------------------------------------------
 OpenMP Integral computing Module                
 Release: version 1.0, May 2013, Q-Chem Inc. Pittsburgh 
 -------------------------------------------------------
 -------------------------------------------------------
 OpenMP BLAS3 based DFT computing Module                
 Release: version 1.0, May 2013, Q-Chem Inc. Pittsburgh 
 -------------------------------------------------------
 ---------------------------------------
  Cycle       Energy         DIIS Error
 ---------------------------------------
    1    -755.1333775847      1.15E-01
    2    -755.4330515638      1.43E-02
    3    -754.4849215495      3.46E-02
    4    -755.6668951176      4.97E-03
    5    -755.6923795685      1.60E-03
    6    -755.6952387513      2.89E-04
    7    -755.6953280194      8.61E-05
    8    -755.6953339718      4.56E-05
    9    -755.6953363169      5.67E-06
   10    -755.6953363555      1.52E-06
   11    -755.6953363583      3.20E-07
   12    -755.6953363584      9.74E-08
   13    -755.6953363584      1.84E-08
   14    -755.6953363584      6.30E-09 Convergence criterion met
 ---------------------------------------
 SCF time:  CPU 60.89 s  wall 2.83 s
 SCF   energy in the final basis set = -755.6953363584
 Total energy in the final basis set = -755.6953363584
 
 --------------------------------------------------------------
 
                    Orbital Energies (a.u.)
 --------------------------------------------------------------
 
 Alpha MOs
 -- Occupied --
-18.943 -18.934 -18.872 -18.868 -18.859 -10.111 -10.104 -10.073
-10.066 -10.061 -10.055 -10.036 -10.033 -10.014 -10.012  -1.042
 -1.033  -0.990  -0.953  -0.945  -0.775  -0.736  -0.726  -0.683
 -0.671  -0.604  -0.551  -0.537  -0.526  -0.488  -0.473  -0.461
 -0.440  -0.428  -0.426  -0.421  -0.415  -0.386  -0.375  -0.365
 -0.353  -0.345  -0.341  -0.326  -0.314  -0.310  -0.301  -0.289
 -0.277  -0.247  -0.240  -0.219  -0.182  -0.172  -0.155  -0.144
 -0.134
 -- Virtual --
  0.113   0.127   0.251   0.273   0.299   0.310   0.345   0.356
  0.375   0.385   0.402   0.409   0.410   0.426   0.432   0.435
  0.443   0.451   0.455   0.460   0.460   0.465   0.475   0.480
  0.491   0.502   0.518   0.541   0.575   0.584   0.702   0.708
 --------------------------------------------------------------
 
          Ground-State Mulliken Net Atomic Charges

     Atom                 Charge (a.u.)
  ----------------------------------------
      1 C                    -0.082971
      2 C                    -0.085571
      3 C                     0.240451
      4 C                     0.242231
      5 O                    -0.189960
      6 O                    -0.229387
      7 O                    -0.191160
      8 O                    -0.229880
      9 C                    -0.125822
     10 C                    -0.130239
     11 C                     0.028296
     12 C                    -0.148142
     13 C                    -0.147404
     14 C                     0.027402
     15 O                    -0.209209
     16 H                     0.089321
     17 H                     0.087279
     18 H                     0.100295
     19 H                     0.102343
     20 H                     0.088273
     21 H                     0.078598
     22 H                     0.072977
     23 H                     0.078897
     24 H                     0.071806
     25 H                     0.097598
     26 H                     0.087949
     27 H                     0.092564
     28 H                     0.092952
     29 H                     0.090514
  ----------------------------------------
  Sum of atomic charges =    -0.000000

 -----------------------------------------------------------------
                    Cartesian Multipole Moments
 -----------------------------------------------------------------
    Charge (ESU x 10^10)
                 0.0000
    Dipole Moment (Debye)
         X      -0.4166      Y      -1.4010      Z      -2.3203
       Tot       2.7423
    Quadrupole Moments (Debye-Ang)
        XX     -73.2573     XY       1.4702     YY     -76.5838
        XZ      -0.8786     YZ      -4.0885     ZZ     -84.4320
    Octopole Moments (Debye-Ang^2)
       XXX     -32.0675    XXY       2.6418    XYY     -21.2123
       YYY     -18.0132    XXZ      -1.5320    XYZ       2.6868
       YYZ       0.4941    XZZ      -5.4483    YZZ      -0.5880
       ZZZ       2.8189
    Hexadecapole Moments (Debye-Ang^3)
      XXXX   -1766.3352   XXXY      -9.1296   XXYY    -491.3941
      XYYY      25.6612   YYYY   -1433.0856   XXXZ      29.3497
      XXYZ       1.9950   XYYZ       9.5677   YYYZ     -42.5702
      XXZZ    -358.3887   XYZZ       4.2414   YYZZ    -298.1186
      XZZZ      -2.0840   YZZZ       6.4186   ZZZZ    -270.9550
 -----------------------------------------------------------------
 Calculating analytic gradient of the SCF energy
 Gradient of SCF Energy
            1           2           3           4           5           6
    1   0.0021799  -0.0079730  -0.0035713  -0.0118003  -0.0264753   0.0361920
    2   0.0147913  -0.0097851  -0.0216101   0.0028776   0.0360793  -0.0275161
    3   0.0422889   0.0229121   0.0047460  -0.0042293   0.0358437  -0.0453326
            7           8           9          10          11          12
    1   0.0164333   0.0007554   0.0161062   0.0147445  -0.0138282  -0.0217591
    2   0.0367505  -0.0371405  -0.0106249   0.0095456   0.0058728   0.0198850
    3   0.0447053  -0.0455882  -0.0072183  -0.0088297  -0.0065146   0.0225080
           13          14          15          16          17          18
    1  -0.0241050  -0.0105318   0.0070337  -0.0006561  -0.0000244   0.0002217
    2  -0.0176790  -0.0004173   0.0029261   0.0044461   0.0029786  -0.0041832
    3   0.0175573  -0.0072092  -0.0670699   0.0053539   0.0078343  -0.0111811
           19          20          21          22          23          24
    1   0.0033618   0.0038078  -0.0013620   0.0001313  -0.0031001  -0.0009921
    2  -0.0087182   0.0089398   0.0060041   0.0020688  -0.0049969  -0.0034859
    3  -0.0085645  -0.0049610  -0.0006986   0.0063589  -0.0026417   0.0059499
           25          26          27          28          29
    1   0.0056966   0.0025947   0.0072903  -0.0031770   0.0128064
    2  -0.0092234  -0.0145968   0.0054778   0.0113557  -0.0000218
    3  -0.0076017  -0.0009062   0.0069966  -0.0001980   0.0056898
 Max gradient component =       6.707E-02
 RMS gradient           =       1.788E-02
 Gradient time:  CPU 24.39 s  wall 1.17 s
 Geometry Optimization Parameters
   NAtoms,    NIC,     NZ,  NCons,   NDum,   NFix, NCnnct, MaxDiis
       29     227       0       2       0       0       0       0


** CONSTRAINED OPTIMIZATION IN DELOCALIZED INTERNAL COORDINATES **
   Searching for a Minimum

   Optimization Cycle:   1

                       Coordinates (Angstroms)
     ATOM                X               Y               Z
      1  C         0.3697342729   -0.6344652785   -0.5682185024
      2  C         0.5830892856    0.8866305416   -0.5085431759
      3  C        -0.8699014548   -1.2078766031    0.0919214188
      4  C        -0.5598235439    1.7339384151    0.0021824174
      5  O        -1.0906277378   -2.4603631032   -0.4080500553
      6  O        -1.5566019091   -0.6636803128    0.9403504869
      7  O        -1.6498149946    1.5482939899   -0.8007775971
      8  O        -0.4799332706    2.5718972711    0.8880308806
      9  C        -2.8044492191    2.2858543985   -0.3968092184
     10  C        -2.2289112229   -3.1547881210    0.1108156327
     11  C         1.5897974066   -1.1573410878    0.1940667708
     12  C         2.8778742489   -0.9023938644   -0.5914807846
     13  C         3.0736984138    0.6062805862   -0.4118163796
     14  C         1.8273869003    0.9943712392    0.3874040257
     15  O         1.7087539834   -0.1697627505    1.2404077097
     16  H         0.3688686773   -0.9646705244   -1.6141868320
     17  H         0.8207486346    1.2891342672   -1.5030002060
     18  H        -2.9457124994    2.2580152575    0.6891040690
     19  H        -2.5806906233   -2.7639184006    1.0709042303
     20  H         1.5042519872   -2.1684976679    0.6000401094
     21  H         3.7202931181   -1.4355074158   -0.1367617613
     22  H         2.8052766319   -1.2051355012   -1.6399525713
     23  H         3.9784423183    0.7875324718    0.1780566756
     24  H         3.1670514341    1.1432862684   -1.3598201301
     25  H         1.9410338999    1.9133998678    0.9660893801
     26  H        -2.7227111035    3.3187026777   -0.7489218606
     27  H        -3.6791460159    1.8248750106   -0.8631197561
     28  H        -1.9485029726   -4.2023825341    0.2522304790
     29  H        -3.0343825811   -3.1071758873   -0.6274864507
   Point Group: c1    Number of degrees of freedom:    81


   Energy is   -755.695336358

              Constraints and their Current Values
                                        Value     Constraint
   Dihedral:        2   1   3   5      161.585      162.300
   Dihedral:        1   2   4   7      -59.895      -61.600

 Attempting to Generate Delocalized Internal Coordinates

   Using Lagrange Multiplier Algorithm


 83 Hessian modes will be used to form the next step
  Hessian Eigenvalues:
    -0.977753   -0.977753    0.045000    0.045000    0.045000    0.045000
     0.045004    0.045352    0.045530    0.048627    0.058814    0.061923
     0.065581    0.067904    0.070808    0.072130    0.074343    0.075916
     0.081732    0.083785    0.084157    0.085390    0.086890    0.088227
     0.091114    0.091429    0.097232    0.098159    0.112260    0.112299
     0.113404    0.116979    0.117194    0.120275    0.121575    0.138015
     0.140421    0.160000    0.160000    0.160000    0.160000    0.160000
     0.160000    0.168655    0.174257    0.246664    0.248450    0.249983
     0.250000    0.250000    0.250000    0.250000    0.257040    0.266186
     0.268519    0.290485    0.293737    0.306576    0.311874    0.329392
     0.338114    0.340326    0.341575    0.341941    0.342237    0.342787
     0.342803    0.343231    0.343866    0.343905    0.343937    0.344082
     0.344477    0.344724    0.345856    0.408772    0.412181    0.516485
     0.516574    0.945024    0.955398    1.022753    1.022753

 Minimum Search - Taking P-RFO Step
 Searching for Lamda that Maximizes Along the Constraint modes Only
 Value Taken    Lamda =   0.00073870
 Searching for Lamda that Minimizes Along All other modes
 Value Taken    Lamda =  -0.06618653
 Calculated Step too Large.  Step scaled by  0.717117
 Step Taken.  Stepsize is  0.300000

                             Maximum     Tolerance    Cnvgd?
         Gradient            0.093336       0.000300      NO
         Displacement        0.106136       0.001200      NO
         Energy change     *********       0.000001      NO


 New Cartesian Coordinates Obtained by Inverse Iteration

 Displacement from previous Coordinates is:  0.771638
 Adding empirical dispersion correction 
 ----------------------------------------------------------------
 Doing -D3(op) with
 s6 =   1.00000
 s8 =   0.78311
 a1 =   0.30000
 a2 =   4.25000
 n  =  10.00000
 -D3 energy without 3body term =     -0.0299523114 hartrees
 ----------------------------------------------------------------
             Standard Nuclear Orientation (Angstroms)
    I     Atom           X                Y                Z
 ----------------------------------------------------------------
    1      C       0.4041987503    -0.6555795730    -0.5926822123
    2      C       0.6087873625     0.8887621474    -0.5170784500
    3      C      -0.8866828628    -1.2052183625     0.0712644100
    4      C      -0.5861222433     1.7256091878     0.0171639223
    5      O      -1.1210032592    -2.4927579273    -0.4293850041
    6      O      -1.5911446635    -0.6305377439     0.9196413728
    7      O      -1.6831862701     1.5368401909    -0.8354647348
    8      O      -0.5487205698     2.5512445965     0.9468493437
    9      C      -2.8698045759     2.2660723438    -0.4050613250
   10      C      -2.3069508361    -3.1318853358     0.1243530676
   11      C       1.6571831085    -1.1742067599     0.2021477099
   12      C       2.9651253593    -0.9105845019    -0.6179187193
   13      C       3.1469873249     0.6288079161    -0.4237362178
   14      C       1.8723018792     0.9891311089     0.4126211693
   15      O       1.7586419036    -0.1886294595     1.2909228530
   16      H       0.4155919662    -0.9958365450    -1.6416863169
   17      H       0.8549542897     1.3041024727    -1.5104281790
   18      H      -3.0184028652     2.2042243449     0.6887971830
   19      H      -2.6282277336    -2.6688327531     1.0754241893
   20      H       1.5678310433    -2.1941036629     0.6114296902
   21      H       3.8135247477    -1.4513930015    -0.1739489942
   22      H       2.8833804700    -1.2120491161    -1.6725176800
   23      H       4.0543438287     0.8296336827     0.1641130561
   24      H       3.2238044336     1.1813242446    -1.3717398102
   25      H       1.9566065507     1.9131848792     1.0076536734
   26      H      -2.8145760139     3.3289529271    -0.7080413937
   27      H      -3.7381331379     1.8021657832    -0.9034983942
   28      H      -2.0687428555    -4.1945119005     0.3087290135
   29      H      -3.1364730673    -3.0796759732    -0.6052642177
 ----------------------------------------------------------------
 Molecular Point Group                 C1    NOp =  1
 Largest Abelian Subgroup              C1    NOp =  1
 Nuclear Repulsion Energy =  1092.3747315926 hartrees
 There are       57 alpha and       57 beta electrons
 Applying Cartesian multipole field
    Component          Value
    ---------          -----
     (2,0,0)        1.00000E-11
     (0,2,0)        2.00000E-11
     (0,0,2)       -3.00000E-11
 Nucleus-field energy     =     0.0000000334 hartrees
 Requested basis set is STO-3G
 There are 44 shells and 89 basis functions
 A cutoff of  1.0D-12 yielded    864 shell pairs
 There are      3900 function pairs
 Smallest overlap matrix eigenvalue = 2.07E-01
 Guess MOs from SCF MO coefficient file
 Reading MOs from coefficient file
 Reading MOs from coefficient file
 A restricted hybrid HF-DFT SCF calculation will be
 performed using Pulay DIIS extrapolation
 Exchange:     0.2000 Hartree-Fock + 0.0800 Slater + 0.7200 B88
 Correlation:  0.1900 VWN1RPA + 0.8100 LYP
 Using SG-1 standard quadrature grid
 Dispersion:   Grimme D3
 SCF converges when DIIS error is below 1.0E-08
 Geometry optimization detected.  Setting ReadMinima to 0
 Setting SaveMinima to 0
 -------------------------------------------------------
 OpenMP Integral computing Module                
 Release: version 1.0, May 2013, Q-Chem Inc. Pittsburgh 
 -------------------------------------------------------
 -------------------------------------------------------
 OpenMP BLAS3 based DFT computing Module                
 Release: version 1.0, May 2013, Q-Chem Inc. Pittsburgh 
 -------------------------------------------------------
 ---------------------------------------
  Cycle       Energy         DIIS Error
 ---------------------------------------
    1    -755.5649259318      5.80E-03
    2    -755.7210373184      2.10E-03
    3    -755.7149849620      3.16E-03
    4    -755.7255560589      6.74E-04
    5    -755.7260918758      1.08E-04
    6    -755.7261062476      2.25E-05
    7    -755.7261064402      2.00E-05
    8    -755.7261068758      4.53E-06
    9    -755.7261069011      8.09E-07
   10    -755.7261069018      3.14E-07
   11    -755.7261069019      4.51E-08
   12    -755.7261069019      1.50E-08
   13    -755.7261069019      2.95E-09 Convergence criterion met
 ---------------------------------------
 SCF time:  CPU 52.33 s  wall 2.20 s
 SCF   energy in the final basis set = -755.7261069019
 Total energy in the final basis set = -755.7261069019
 
 --------------------------------------------------------------
 
                    Orbital Energies (a.u.)
 --------------------------------------------------------------
 
 Alpha MOs
 -- Occupied --
-18.941 -18.929 -18.880 -18.872 -18.861 -10.105 -10.096 -10.068
-10.061 -10.060 -10.054 -10.038 -10.034 -10.017 -10.015  -1.024
 -1.012  -0.973  -0.943  -0.932  -0.765  -0.726  -0.711  -0.672
 -0.661  -0.596  -0.546  -0.536  -0.515  -0.480  -0.462  -0.452
 -0.432  -0.418  -0.417  -0.411  -0.407  -0.380  -0.366  -0.356
 -0.348  -0.340  -0.333  -0.323  -0.309  -0.305  -0.299  -0.283
 -0.273  -0.249  -0.241  -0.227  -0.180  -0.169  -0.155  -0.144
 -0.139
 -- Virtual --
  0.103   0.118   0.241   0.259   0.278   0.293   0.324   0.343
  0.357   0.362   0.377   0.382   0.394   0.414   0.419   0.422
  0.424   0.432   0.433   0.442   0.445   0.448   0.450   0.453
  0.465   0.476   0.500   0.517   0.553   0.561   0.663   0.667
 --------------------------------------------------------------
 
          Ground-State Mulliken Net Atomic Charges

     Atom                 Charge (a.u.)
  ----------------------------------------
      1 C                    -0.078674
      2 C                    -0.081252
      3 C                     0.223776
      4 C                     0.225287
      5 O                    -0.179257
      6 O                    -0.217507
      7 O                    -0.182101
      8 O                    -0.219671
      9 C                    -0.124452
     10 C                    -0.128868
     11 C                     0.025689
     12 C                    -0.145534
     13 C                    -0.144729
     14 C                     0.024928
     15 O                    -0.195636
     16 H                     0.087708
     17 H                     0.084965
     18 H                     0.097357
     19 H                     0.100096
     20 H                     0.084674
     21 H                     0.077660
     22 H                     0.073074
     23 H                     0.077571
     24 H                     0.071736
     25 H                     0.092882
     26 H                     0.084576
     27 H                     0.089147
     28 H                     0.089659
     29 H                     0.086897
  ----------------------------------------
  Sum of atomic charges =    -0.000000

 -----------------------------------------------------------------
                    Cartesian Multipole Moments
 -----------------------------------------------------------------
    Charge (ESU x 10^10)
                 0.0000
    Dipole Moment (Debye)
         X      -0.2669      Y      -1.3327      Z      -2.2783
       Tot       2.6530
    Quadrupole Moments (Debye-Ang)
        XX     -72.6739     XY       1.6070     YY     -76.8744
        XZ      -1.2127     YZ      -3.9990     ZZ     -84.4510
    Octopole Moments (Debye-Ang^2)
       XXX     -32.7203    XXY       2.4585    XYY     -20.6214
       YYY     -14.5908    XXZ      -2.2616    XYZ       3.1821
       YYZ       0.9994    XZZ      -5.2816    YZZ      -0.6950
       ZZZ       2.7979
    Hexadecapole Moments (Debye-Ang^3)
      XXXX   -1853.8734   XXXY      -7.3864   XXYY    -502.9496
      XYYY      26.2853   YYYY   -1425.8087   XXXZ      28.3925
      XXYZ       0.9853   XYYZ       9.3314   YYYZ     -44.7241
      XXZZ    -376.8246   XYZZ       5.3471   YYZZ    -300.1396
      XZZZ      -2.4047   YZZZ       3.9268   ZZZZ    -282.9574
 -----------------------------------------------------------------
 Calculating analytic gradient of the SCF energy
 Gradient of SCF Energy
            1           2           3           4           5           6
    1   0.0001579  -0.0044989   0.0014883  -0.0080848  -0.0127885   0.0088589
    2   0.0113922  -0.0087022  -0.0171058  -0.0070855   0.0156616  -0.0061502
    3   0.0176475   0.0047456  -0.0044773  -0.0085625   0.0162418  -0.0110605
            7           8           9          10          11          12
    1   0.0069435   0.0019610   0.0080362   0.0104294  -0.0064775  -0.0062475
    2   0.0167423  -0.0056406  -0.0057791   0.0055552  -0.0010543   0.0047217
    3   0.0210581  -0.0122045  -0.0052703  -0.0070998  -0.0045274   0.0064411
           13          14          15          16          17          18
    1  -0.0069128  -0.0066898   0.0040601  -0.0007295   0.0012141  -0.0010907
    2  -0.0053958   0.0028485   0.0008966   0.0024740   0.0030231  -0.0015654
    3   0.0056667  -0.0026334  -0.0179252   0.0008900   0.0029421  -0.0028381
           19          20          21          22          23          24
    1   0.0001038   0.0021048   0.0001650   0.0018051  -0.0007554   0.0016141
    2  -0.0040551   0.0033772   0.0027492  -0.0003257  -0.0022571  -0.0007289
    3  -0.0011550  -0.0006047  -0.0007428   0.0017459  -0.0012809   0.0016725
           25          26          27          28          29
    1   0.0034622  -0.0000225   0.0005414  -0.0015838   0.0029359
    2  -0.0033883  -0.0035564   0.0018877   0.0023453  -0.0008842
    3  -0.0019989  -0.0012661   0.0027843   0.0006711   0.0011408
 Max gradient component =       2.106E-02
 RMS gradient           =       6.860E-03
 Gradient time:  CPU 13.66 s  wall 0.57 s
 Geometry Optimization Parameters
   NAtoms,    NIC,     NZ,  NCons,   NDum,   NFix, NCnnct, MaxDiis
       29     227       0       2       0       0       0       0

 Cartesian Hessian Update
 Hessian Updated using BFGS Update


** CONSTRAINED OPTIMIZATION IN DELOCALIZED INTERNAL COORDINATES **
   Searching for a Minimum

   Optimization Cycle:   2

                       Coordinates (Angstroms)
     ATOM                X               Y               Z
      1  C         0.4041987503   -0.6555795730   -0.5926822123
      2  C         0.6087873625    0.8887621474   -0.5170784500
      3  C        -0.8866828628   -1.2052183625    0.0712644100
      4  C        -0.5861222433    1.7256091878    0.0171639223
      5  O        -1.1210032592   -2.4927579273   -0.4293850041
      6  O        -1.5911446635   -0.6305377439    0.9196413728
      7  O        -1.6831862701    1.5368401909   -0.8354647348
      8  O        -0.5487205698    2.5512445965    0.9468493437
      9  C        -2.8698045759    2.2660723438   -0.4050613250
     10  C        -2.3069508361   -3.1318853358    0.1243530676
     11  C         1.6571831085   -1.1742067599    0.2021477099
     12  C         2.9651253593   -0.9105845019   -0.6179187193
     13  C         3.1469873249    0.6288079161   -0.4237362178
     14  C         1.8723018792    0.9891311089    0.4126211693
     15  O         1.7586419036   -0.1886294595    1.2909228530
     16  H         0.4155919662   -0.9958365450   -1.6416863169
     17  H         0.8549542897    1.3041024727   -1.5104281790
     18  H        -3.0184028652    2.2042243449    0.6887971830
     19  H        -2.6282277336   -2.6688327531    1.0754241893
     20  H         1.5678310433   -2.1941036629    0.6114296902
     21  H         3.8135247477   -1.4513930015   -0.1739489942
     22  H         2.8833804700   -1.2120491161   -1.6725176800
     23  H         4.0543438287    0.8296336827    0.1641130561
     24  H         3.2238044336    1.1813242446   -1.3717398102
     25  H         1.9566065507    1.9131848792    1.0076536734
     26  H        -2.8145760139    3.3289529271   -0.7080413937
     27  H        -3.7381331379    1.8021657832   -0.9034983942
     28  H        -2.0687428555   -4.1945119005    0.3087290135
     29  H        -3.1364730673   -3.0796759732   -0.6052642177
   Point Group: c1    Number of degrees of freedom:    81


   Energy is   -755.726106902

              Constraints and their Current Values
                                        Value     Constraint
   Dihedral:        2   1   3   5      162.077      162.300
   Dihedral:        1   2   4   7      -61.090      -61.600
 Hessian Updated using BFGS Update

   Using Lagrange Multiplier Algorithm


 75 Hessian modes will be used to form the next step
  Hessian Eigenvalues:
    -0.977762   -0.977644    0.044992    0.045002    0.045005    0.045284
     0.045531    0.048627    0.058815    0.061735    0.065574    0.067862
     0.070820    0.072115    0.074330    0.075906    0.081726    0.083666
     0.084136    0.085462    0.086842    0.088233    0.091041    0.091423
     0.097093    0.098159    0.112192    0.112479    0.113351    0.116981
     0.117195    0.121310    0.122874    0.137979    0.140908    0.159106
     0.161074    0.167684    0.174228    0.241159    0.246697    0.248565
     0.249983    0.250199    0.257224    0.267165    0.268596    0.291891
     0.299188    0.308686    0.320817    0.329523    0.338147    0.340346
     0.341558    0.341944    0.342219    0.342751    0.343160    0.343716
     0.343868    0.343921    0.344073    0.344420    0.344653    0.345781
     0.380746    0.406162    0.415812    0.503482    0.516528    0.949345
     0.971609    1.022752    1.024262

 Minimum Search - Taking P-RFO Step
 Searching for Lamda that Maximizes Along the Constraint modes Only
 Value Taken    Lamda =   0.00000983
 Searching for Lamda that Minimizes Along All other modes
 Value Taken    Lamda =  -0.01041234
 Step Taken.  Stepsize is  0.236160

                             Maximum     Tolerance    Cnvgd?
         Gradient            0.031105       0.000300      NO
         Displacement        0.070755       0.001200      NO
         Energy change     -0.030771       0.000001      NO


 New Cartesian Coordinates Obtained by Inverse Iteration

 Displacement from previous Coordinates is:  0.922270
 Adding empirical dispersion correction 
 ----------------------------------------------------------------
 Doing -D3(op) with
 s6 =   1.00000
 s8 =   0.78311
 a1 =   0.30000
 a2 =   4.25000
 n  =  10.00000
 -D3 energy without 3body term =     -0.0301684579 hartrees
 ----------------------------------------------------------------
             Standard Nuclear Orientation (Angstroms)
    I     Atom           X                Y                Z
 ----------------------------------------------------------------
    1      C       0.4477353701    -0.6776914721    -0.6286092490
    2      C       0.6374232464     0.8820681437    -0.5346780239
    3      C      -0.8775323215    -1.1835620411     0.0306081693
    4      C      -0.6002471420     1.6787868464     0.0108022629
    5      O      -1.1424220689    -2.4929998740    -0.4626329627
    6      O      -1.5858254714    -0.5781079114     0.8664732372
    7      O      -1.6885110948     1.4665046553    -0.8856921172
    8      O      -0.6246729267     2.4594265454     0.9874919721
    9      C      -2.8883612665     2.1651980688    -0.3907283874
   10      C      -2.3778650855    -3.0276107834     0.1413560427
   11      C       1.7009702757    -1.1830965945     0.2036191995
   12      C       3.0135980580    -0.9004908498    -0.6240894959
   13      C       3.1780574482     0.6539414425    -0.4206059962
   14      C       1.8906039731     0.9851674161     0.4274539308
   15      O       1.7715260676    -0.1999983843     1.3106706311
   16      H       0.4797225111    -1.0321346610    -1.6746893052
   17      H       0.8896507596     1.3031245103    -1.5256149542
   18      H      -3.0063771118     2.0487462160     0.7055674476
   19      H      -2.6366979107    -2.4724175226     1.0655958474
   20      H       1.6024586611    -2.2094173860     0.6091047249
   21      H       3.8638464296    -1.4478373200    -0.1857646517
   22      H       2.9181753882    -1.1948368854    -1.6818594481
   23      H       4.0828012661     0.8778646247     0.1679854114
   24      H       3.2297421861     1.2162072067    -1.3670215988
   25      H       1.9327873019     1.9127626853     1.0314814303
   26      H      -2.8509047799     3.2486783056    -0.6304977181
   27      H      -3.7512118180     1.7067437454    -0.9097638246
   28      H      -2.2047127734    -4.0961222758     0.3745612381
   29      H      -3.2186651075    -2.9446432409    -0.5778648076
 ----------------------------------------------------------------
 Molecular Point Group                 C1    NOp =  1
 Largest Abelian Subgroup              C1    NOp =  1
 Nuclear Repulsion Energy =  1090.9878790708 hartrees
 There are       57 alpha and       57 beta electrons
 Applying Cartesian multipole field
    Component          Value
    ---------          -----
     (2,0,0)        1.00000E-11
     (0,2,0)        2.00000E-11
     (0,0,2)       -3.00000E-11
 Nucleus-field energy     =     0.0000000323 hartrees
 Requested basis set is STO-3G
 There are 44 shells and 89 basis functions
 A cutoff of  1.0D-12 yielded    863 shell pairs
 There are      3893 function pairs
 Smallest overlap matrix eigenvalue = 2.13E-01
 Guess MOs from SCF MO coefficient file
 Reading MOs from coefficient file
 Reading MOs from coefficient file
 A restricted hybrid HF-DFT SCF calculation will be
 performed using Pulay DIIS extrapolation
 Exchange:     0.2000 Hartree-Fock + 0.0800 Slater + 0.7200 B88
 Correlation:  0.1900 VWN1RPA + 0.8100 LYP
 Using SG-1 standard quadrature grid
 Dispersion:   Grimme D3
 SCF converges when DIIS error is below 1.0E-08
 Geometry optimization detected.  Setting ReadMinima to 0
 Setting SaveMinima to 0
 -------------------------------------------------------
 OpenMP Integral computing Module                
 Release: version 1.0, May 2013, Q-Chem Inc. Pittsburgh 
 -------------------------------------------------------
 -------------------------------------------------------
 OpenMP BLAS3 based DFT computing Module                
 Release: version 1.0, May 2013, Q-Chem Inc. Pittsburgh 
 -------------------------------------------------------
 ---------------------------------------
  Cycle       Energy         DIIS Error
 ---------------------------------------
    1    -755.6427473064      4.62E-03
    2    -755.7299133530      1.29E-03
    3    -755.7258947018      2.32E-03
    4    -755.7317118192      3.89E-04
    5    -755.7318867168      9.35E-05
    6    -755.7318970311      2.32E-05
    7    -755.7318972371      2.03E-05
    8    -755.7318976945      4.15E-06
    9    -755.7318977164      6.01E-07
   10    -755.7318977168      3.10E-07
   11    -755.7318977169      3.65E-08
   12    -755.7318977169      1.54E-08
   13    -755.7318977169      4.20E-09 Convergence criterion met
 ---------------------------------------
 SCF time:  CPU 52.80 s  wall 2.22 s
 SCF   energy in the final basis set = -755.7318977169
 Total energy in the final basis set = -755.7318977169
 
 --------------------------------------------------------------
 
                    Orbital Energies (a.u.)
 --------------------------------------------------------------
 
 Alpha MOs
 -- Occupied --
-18.939 -18.924 -18.884 -18.878 -18.863 -10.102 -10.092 -10.063
-10.060 -10.056 -10.054 -10.038 -10.033 -10.020 -10.017  -1.017
 -1.002  -0.968  -0.940  -0.927  -0.762  -0.722  -0.706  -0.665
 -0.654  -0.593  -0.544  -0.536  -0.510  -0.475  -0.456  -0.451
 -0.430  -0.415  -0.413  -0.406  -0.403  -0.376  -0.361  -0.353
 -0.345  -0.339  -0.330  -0.322  -0.310  -0.302  -0.297  -0.279
 -0.271  -0.252  -0.245  -0.232  -0.180  -0.166  -0.158  -0.145
 -0.141
 -- Virtual --
  0.096   0.115   0.239   0.255   0.273   0.285   0.314   0.333
  0.345   0.349   0.362   0.373   0.387   0.406   0.413   0.419
  0.421   0.428   0.430   0.434   0.436   0.440   0.443   0.444
  0.453   0.468   0.490   0.510   0.545   0.552   0.647   0.653
 --------------------------------------------------------------
 
          Ground-State Mulliken Net Atomic Charges

     Atom                 Charge (a.u.)
  ----------------------------------------
      1 C                    -0.077472
      2 C                    -0.080684
      3 C                     0.217159
      4 C                     0.217798
      5 O                    -0.171123
      6 O                    -0.211555
      7 O                    -0.176777
      8 O                    -0.215260
      9 C                    -0.126972
     10 C                    -0.132895
     11 C                     0.024871
     12 C                    -0.143981
     13 C                    -0.143353
     14 C                     0.023947
     15 O                    -0.190170
     16 H                     0.087308
     17 H                     0.083352
     18 H                     0.097181
     19 H                     0.101052
     20 H                     0.083477
     21 H                     0.077716
     22 H                     0.073528
     23 H                     0.077295
     24 H                     0.072489
     25 H                     0.090923
     26 H                     0.082676
     27 H                     0.086530
     28 H                     0.087849
     29 H                     0.085094
  ----------------------------------------
  Sum of atomic charges =    -0.000000

 -----------------------------------------------------------------
                    Cartesian Multipole Moments
 -----------------------------------------------------------------
    Charge (ESU x 10^10)
                 0.0000
    Dipole Moment (Debye)
         X      -0.0676      Y      -1.2395      Z      -2.1830
       Tot       2.5113
    Quadrupole Moments (Debye-Ang)
        XX     -72.6859     XY       1.8053     YY     -77.4802
        XZ      -1.5012     YZ      -3.8343     ZZ     -84.4721
    Octopole Moments (Debye-Ang^2)
       XXX     -32.5142    XXY       1.9217    XYY     -17.7760
       YYY      -8.5671    XXZ      -1.6027    XYZ       3.4856
       YYZ       2.4463    XZZ      -5.0666    YZZ      -0.4467
       ZZZ       4.3931
    Hexadecapole Moments (Debye-Ang^3)
      XXXX   -1904.2898   XXXY      -7.3806   XXYY    -504.5578
      XYYY      19.9583   YYYY   -1361.4363   XXXZ      28.4956
      XXYZ      -0.2661   XYYZ       8.4640   YYYZ     -45.2146
      XXZZ    -386.6637   XYZZ       4.8458   YYZZ    -290.0890
      XZZZ      -2.5726   YZZZ       0.3601   ZZZZ    -289.5855
 -----------------------------------------------------------------
 Calculating analytic gradient of the SCF energy
 Gradient of SCF Energy
            1           2           3           4           5           6
    1   0.0015477  -0.0024505  -0.0016590  -0.0053697  -0.0008949  -0.0009113
    2   0.0033939  -0.0046527  -0.0065193  -0.0029116   0.0020253   0.0010537
    3   0.0041869  -0.0003654  -0.0005583  -0.0040478   0.0012220  -0.0011325
            7           8           9          10          11          12
    1   0.0018326   0.0007079   0.0045782   0.0045246  -0.0007190  -0.0026229
    2   0.0009869   0.0028349  -0.0014660   0.0045966  -0.0020162   0.0000568
    3   0.0034678   0.0005714   0.0001380  -0.0020627  -0.0036161   0.0000823
           13          14          15          16          17          18
    1  -0.0026165  -0.0018151   0.0020510  -0.0000845   0.0016094  -0.0002353
    2   0.0001587   0.0014956   0.0002398   0.0008912   0.0013185   0.0001992
    3  -0.0007184  -0.0005150  -0.0006336  -0.0007496   0.0007010   0.0004076
           19          20          21          22          23          24
    1  -0.0006101  -0.0001698   0.0003148   0.0009255   0.0000105   0.0013659
    2  -0.0007596   0.0001587   0.0003101  -0.0008567  -0.0002008   0.0005634
    3   0.0008015   0.0012908   0.0003852   0.0000180   0.0005234   0.0001251
           25          26          27          28          29
    1   0.0008448   0.0000081   0.0000092   0.0000801  -0.0002518
    2   0.0000099   0.0000681  -0.0006061  -0.0002911  -0.0000812
    3   0.0006125  -0.0004412   0.0000497   0.0004043  -0.0001469
 Max gradient component =       6.519E-03
 RMS gradient           =       1.921E-03
 Gradient time:  CPU 14.18 s  wall 0.60 s
 Geometry Optimization Parameters
   NAtoms,    NIC,     NZ,  NCons,   NDum,   NFix, NCnnct, MaxDiis
       29     227       0       2       0       0       0       0

 Cartesian Hessian Update
 Hessian Updated using BFGS Update


** CONSTRAINED OPTIMIZATION IN DELOCALIZED INTERNAL COORDINATES **
   Searching for a Minimum

   Optimization Cycle:   3

                       Coordinates (Angstroms)
     ATOM                X               Y               Z
      1  C         0.4477353701   -0.6776914721   -0.6286092490
      2  C         0.6374232464    0.8820681437   -0.5346780239
      3  C        -0.8775323215   -1.1835620411    0.0306081693
      4  C        -0.6002471420    1.6787868464    0.0108022629
      5  O        -1.1424220689   -2.4929998740   -0.4626329627
      6  O        -1.5858254714   -0.5781079114    0.8664732372
      7  O        -1.6885110948    1.4665046553   -0.8856921172
      8  O        -0.6246729267    2.4594265454    0.9874919721
      9  C        -2.8883612665    2.1651980688   -0.3907283874
     10  C        -2.3778650855   -3.0276107834    0.1413560427
     11  C         1.7009702757   -1.1830965945    0.2036191995
     12  C         3.0135980580   -0.9004908498   -0.6240894959
     13  C         3.1780574482    0.6539414425   -0.4206059962
     14  C         1.8906039731    0.9851674161    0.4274539308
     15  O         1.7715260676   -0.1999983843    1.3106706311
     16  H         0.4797225111   -1.0321346610   -1.6746893052
     17  H         0.8896507596    1.3031245103   -1.5256149542
     18  H        -3.0063771118    2.0487462160    0.7055674476
     19  H        -2.6366979107   -2.4724175226    1.0655958474
     20  H         1.6024586611   -2.2094173860    0.6091047249
     21  H         3.8638464296   -1.4478373200   -0.1857646517
     22  H         2.9181753882   -1.1948368854   -1.6818594481
     23  H         4.0828012661    0.8778646247    0.1679854114
     24  H         3.2297421861    1.2162072067   -1.3670215988
     25  H         1.9327873019    1.9127626853    1.0314814303
     26  H        -2.8509047799    3.2486783056   -0.6304977181
     27  H        -3.7512118180    1.7067437454   -0.9097638246
     28  H        -2.2047127734   -4.0961222758    0.3745612381
     29  H        -3.2186651075   -2.9446432409   -0.5778648076
   Point Group: c1    Number of degrees of freedom:    81


   Energy is   -755.731897717

              Constraints and their Current Values
                                        Value     Constraint
   Dihedral:        2   1   3   5      162.299      162.300
   Dihedral:        1   2   4   7      -61.595      -61.600
 Hessian Updated using BFGS Update

   Using Lagrange Multiplier Algorithm


 78 Hessian modes will be used to form the next step
  Hessian Eigenvalues:
    -0.977759   -0.975541    0.043083    0.045000    0.045003    0.045010
     0.045276    0.045645    0.048626    0.058789    0.060059    0.065547
     0.067037    0.070829    0.072015    0.074312    0.075843    0.081738
     0.083214    0.084153    0.085136    0.087021    0.088250    0.091191
     0.091435    0.096064    0.098157    0.111889    0.112698    0.113305
     0.116984    0.117193    0.122009    0.122781    0.138391    0.141138
     0.157676    0.160566    0.161083    0.171073    0.174484    0.246565
     0.246867    0.249094    0.249987    0.250159    0.254303    0.266653
     0.268583    0.279170    0.292094    0.299461    0.308673    0.319223
     0.329396    0.338001    0.340101    0.341086    0.341635    0.342278
     0.342318    0.343034    0.343480    0.343872    0.343918    0.344071
     0.344396    0.344851    0.345972    0.371454    0.392592    0.412128
     0.477679    0.516664    0.949860    0.978534    1.022753    1.034230

 Minimum Search - Taking P-RFO Step
 Searching for Lamda that Maximizes Along the Constraint modes Only
 Value Taken    Lamda =   0.00001627
 Searching for Lamda that Minimizes Along All other modes
 Value Taken    Lamda =  -0.00122290
 Step Taken.  Stepsize is  0.121526

                             Maximum     Tolerance    Cnvgd?
         Gradient            0.006947       0.000300      NO
         Displacement        0.036235       0.001200      NO
         Energy change     -0.005791       0.000001      NO


 New Cartesian Coordinates Obtained by Inverse Iteration

 Displacement from previous Coordinates is:  0.244643
 Adding empirical dispersion correction 
 ----------------------------------------------------------------
 Doing -D3(op) with
 s6 =   1.00000
 s8 =   0.78311
 a1 =   0.30000
 a2 =   4.25000
 n  =  10.00000
 -D3 energy without 3body term =     -0.0301911540 hartrees
 ----------------------------------------------------------------
             Standard Nuclear Orientation (Angstroms)
    I     Atom           X                Y                Z
 ----------------------------------------------------------------
    1      C       0.4534536150    -0.6761109514    -0.6418729002
    2      C       0.6493830490     0.8900604290    -0.5343255721
    3      C      -0.8690728863    -1.1769168699     0.0318453355
    4      C      -0.5951436587     1.6845212005     0.0105872332
    5      O      -1.1601345773    -2.4893069158    -0.4647529949
    6      O      -1.5528740602    -0.5765697628     0.8921893523
    7      O      -1.6867601786     1.4810668667    -0.9004487038
    8      O      -0.6348745565     2.4367289037     1.0077060321
    9      C      -2.9068849711     2.1630199488    -0.4084713830
   10      C      -2.3939304642    -3.0302647420     0.1584725077
   11      C       1.7077720071    -1.1837372823     0.1963406633
   12      C       3.0254483101    -0.8979161073    -0.6282683114
   13      C       3.1933461910     0.6538171948    -0.4121941705
   14      C       1.9014034392     0.9796771359     0.4350914655
   15      O       1.7681184778    -0.2094837407     1.3123745939
   16      H       0.4835898939    -1.0293766491    -1.6877503111
   17      H       0.8972606145     1.3114165223    -1.5257837831
   18      H      -3.0398803370     2.0151005601     0.6817045115
   19      H      -2.6277930007    -2.4699869282     1.0855341748
   20      H       1.6043991916    -2.2147334580     0.5881964777
   21      H       3.8733197236    -1.4553317522    -0.1985941605
   22      H       2.9209693355    -1.1779398521    -1.6889363815
   23      H       4.0998410012     0.8765372945     0.1738519230
   24      H       3.2350086379     1.2204636767    -1.3560871424
   25      H       1.9349805830     1.9055829775     1.0419277919
   26      H      -2.8704825575     3.2533584114    -0.6144562580
   27      H      -3.7583268708     1.7170746968    -0.9559336122
   28      H      -2.2213740751    -4.1006433276     0.3805596418
   29      H      -3.2456698123    -2.9358542693    -0.5458470147
 ----------------------------------------------------------------
 Molecular Point Group                 C1    NOp =  1
 Largest Abelian Subgroup              C1    NOp =  1
 Nuclear Repulsion Energy =  1088.6121006540 hartrees
 There are       57 alpha and       57 beta electrons
 Applying Cartesian multipole field
    Component          Value
    ---------          -----
     (2,0,0)        1.00000E-11
     (0,2,0)        2.00000E-11
     (0,0,2)       -3.00000E-11
 Nucleus-field energy     =     0.0000000322 hartrees
 Requested basis set is STO-3G
 There are 44 shells and 89 basis functions
 A cutoff of  1.0D-12 yielded    863 shell pairs
 There are      3896 function pairs
 Smallest overlap matrix eigenvalue = 2.13E-01
 Guess MOs from SCF MO coefficient file
 Reading MOs from coefficient file
 Reading MOs from coefficient file
 A restricted hybrid HF-DFT SCF calculation will be
 performed using Pulay DIIS extrapolation
 Exchange:     0.2000 Hartree-Fock + 0.0800 Slater + 0.7200 B88
 Correlation:  0.1900 VWN1RPA + 0.8100 LYP
 Using SG-1 standard quadrature grid
 Dispersion:   Grimme D3
 SCF converges when DIIS error is below 1.0E-08
 Geometry optimization detected.  Setting ReadMinima to 0
 Setting SaveMinima to 0
 -------------------------------------------------------
 OpenMP Integral computing Module                
 Release: version 1.0, May 2013, Q-Chem Inc. Pittsburgh 
 -------------------------------------------------------
 -------------------------------------------------------
 OpenMP BLAS3 based DFT computing Module                
 Release: version 1.0, May 2013, Q-Chem Inc. Pittsburgh 
 -------------------------------------------------------
 ---------------------------------------
  Cycle       Energy         DIIS Error
 ---------------------------------------
    1    -755.7142505771      2.01E-03
    2    -755.7322245038      4.53E-04
    3    -755.7313458483      9.97E-04
    4    -755.7324677841      6.75E-05
    5    -755.7324726851      2.86E-05
    6    -755.7324734556      1.31E-05
    7    -755.7324735987      6.97E-06
    8    -755.7324736552      8.48E-07
    9    -755.7324736561      1.86E-07
   10    -755.7324736561      6.77E-08
   11    -755.7324736561      1.92E-08
   12    -755.7324736561      4.11E-09 Convergence criterion met
 ---------------------------------------
 SCF time:  CPU 50.07 s  wall 2.11 s
 SCF   energy in the final basis set = -755.7324736561
 Total energy in the final basis set = -755.7324736561
 
 --------------------------------------------------------------
 
                    Orbital Energies (a.u.)
 --------------------------------------------------------------
 
 Alpha MOs
 -- Occupied --
-18.935 -18.921 -18.885 -18.878 -18.865 -10.101 -10.092 -10.062
-10.060 -10.056 -10.055 -10.038 -10.033 -10.020 -10.018  -1.012
 -0.998  -0.968  -0.937  -0.926  -0.761  -0.721  -0.705  -0.664
 -0.653  -0.593  -0.544  -0.536  -0.509  -0.473  -0.454  -0.451
 -0.430  -0.414  -0.411  -0.405  -0.402  -0.375  -0.361  -0.353
 -0.345  -0.339  -0.330  -0.323  -0.310  -0.302  -0.297  -0.278
 -0.271  -0.250  -0.244  -0.233  -0.178  -0.165  -0.158  -0.145
 -0.142
 -- Virtual --
  0.096   0.115   0.234   0.251   0.268   0.283   0.312   0.331
  0.342   0.346   0.358   0.372   0.384   0.404   0.411   0.419
  0.422   0.425   0.429   0.433   0.436   0.439   0.442   0.444
  0.451   0.467   0.488   0.508   0.543   0.551   0.645   0.652
 --------------------------------------------------------------
 
          Ground-State Mulliken Net Atomic Charges

     Atom                 Charge (a.u.)
  ----------------------------------------
      1 C                    -0.076995
      2 C                    -0.080084
      3 C                     0.214885
      4 C                     0.215727
      5 O                    -0.170872
      6 O                    -0.210597
      7 O                    -0.176444
      8 O                    -0.213457
      9 C                    -0.128660
     10 C                    -0.134269
     11 C                     0.024830
     12 C                    -0.143984
     13 C                    -0.143298
     14 C                     0.023891
     15 O                    -0.188671
     16 H                     0.087541
     17 H                     0.083162
     18 H                     0.096646
     19 H                     0.100783
     20 H                     0.083307
     21 H                     0.078024
     22 H                     0.073826
     23 H                     0.077813
     24 H                     0.073025
     25 H                     0.090817
     26 H                     0.082683
     27 H                     0.086877
     28 H                     0.088354
     29 H                     0.085138
  ----------------------------------------
  Sum of atomic charges =    -0.000000

 -----------------------------------------------------------------
                    Cartesian Multipole Moments
 -----------------------------------------------------------------
    Charge (ESU x 10^10)
                 0.0000
    Dipole Moment (Debye)
         X      -0.0172      Y      -1.1944      Z      -2.1956
       Tot       2.4995
    Quadrupole Moments (Debye-Ang)
        XX     -72.3623     XY       1.8080     YY     -77.3731
        XZ      -1.5021     YZ      -3.8189     ZZ     -84.6248
    Octopole Moments (Debye-Ang^2)
       XXX     -33.5221    XXY       1.9316    XYY     -17.9408
       YYY      -8.1686    XXZ      -1.7083    XYZ       3.7512
       YYZ       2.6223    XZZ      -5.0071    YZZ      -0.5263
       ZZZ       3.9679
    Hexadecapole Moments (Debye-Ang^3)
      XXXX   -1912.8419   XXXY      -7.7301   XXYY    -505.6350
      XYYY      20.0927   YYYY   -1355.0678   XXXZ      29.1104
      XXYZ      -0.2174   XYYZ       8.0611   YYYZ     -42.8969
      XXZZ    -389.8091   XYZZ       4.9835   YYZZ    -291.2629
      XZZZ      -2.3968   YZZZ       2.1434   ZZZZ    -294.3683
 -----------------------------------------------------------------
 Calculating analytic gradient of the SCF energy
 Gradient of SCF Energy
            1           2           3           4           5           6
    1   0.0005698   0.0003154   0.0016219   0.0007648  -0.0000834  -0.0011262
    2   0.0004713  -0.0011208  -0.0003094  -0.0001755   0.0001636   0.0011071
    3  -0.0003107   0.0011227  -0.0006233  -0.0023148   0.0003018   0.0004186
            7           8           9          10          11          12
    1   0.0000324   0.0003649  -0.0021841  -0.0010730   0.0003466  -0.0003582
    2  -0.0004009   0.0015558  -0.0003384  -0.0021201  -0.0010683  -0.0001702
    3   0.0008152   0.0009126  -0.0003464  -0.0000151  -0.0016807  -0.0008220
           13          14          15          16          17          18
    1  -0.0003341   0.0002404   0.0006892   0.0000110   0.0003930   0.0002554
    2   0.0003404   0.0001262   0.0001584   0.0006411   0.0007107   0.0004138
    3  -0.0010907  -0.0000277   0.0021377  -0.0002999   0.0005933  -0.0000743
           19          20          21          22          23          24
    1   0.0002565  -0.0005517   0.0002118   0.0003461   0.0001245   0.0005805
    2   0.0001741   0.0001488   0.0002159  -0.0004643  -0.0002257   0.0002591
    3  -0.0003116   0.0006431   0.0003601  -0.0000134   0.0003222   0.0001330
           25          26          27          28          29
    1  -0.0000877  -0.0001941  -0.0004527  -0.0003594  -0.0003195
    2   0.0000428   0.0001440   0.0000142  -0.0003528   0.0000593
    3   0.0001235  -0.0000858   0.0001048  -0.0000849   0.0001125
 Max gradient component =       2.315E-03
 RMS gradient           =       7.272E-04
 Gradient time:  CPU 13.78 s  wall 0.58 s
 Geometry Optimization Parameters
   NAtoms,    NIC,     NZ,  NCons,   NDum,   NFix, NCnnct, MaxDiis
       29     227       0       2       0       0       0       0

 Cartesian Hessian Update
 Hessian Updated using BFGS Update


** CONSTRAINED OPTIMIZATION IN DELOCALIZED INTERNAL COORDINATES **
   Searching for a Minimum

   Optimization Cycle:   4

                       Coordinates (Angstroms)
     ATOM                X               Y               Z
      1  C         0.4534536150   -0.6761109514   -0.6418729002
      2  C         0.6493830490    0.8900604290   -0.5343255721
      3  C        -0.8690728863   -1.1769168699    0.0318453355
      4  C        -0.5951436587    1.6845212005    0.0105872332
      5  O        -1.1601345773   -2.4893069158   -0.4647529949
      6  O        -1.5528740602   -0.5765697628    0.8921893523
      7  O        -1.6867601786    1.4810668667   -0.9004487038
      8  O        -0.6348745565    2.4367289037    1.0077060321
      9  C        -2.9068849711    2.1630199488   -0.4084713830
     10  C        -2.3939304642   -3.0302647420    0.1584725077
     11  C         1.7077720071   -1.1837372823    0.1963406633
     12  C         3.0254483101   -0.8979161073   -0.6282683114
     13  C         3.1933461910    0.6538171948   -0.4121941705
     14  C         1.9014034392    0.9796771359    0.4350914655
     15  O         1.7681184778   -0.2094837407    1.3123745939
     16  H         0.4835898939   -1.0293766491   -1.6877503111
     17  H         0.8972606145    1.3114165223   -1.5257837831
     18  H        -3.0398803370    2.0151005601    0.6817045115
     19  H        -2.6277930007   -2.4699869282    1.0855341748
     20  H         1.6043991916   -2.2147334580    0.5881964777
     21  H         3.8733197236   -1.4553317522   -0.1985941605
     22  H         2.9209693355   -1.1779398521   -1.6889363815
     23  H         4.0998410012    0.8765372945    0.1738519230
     24  H         3.2350086379    1.2204636767   -1.3560871424
     25  H         1.9349805830    1.9055829775    1.0419277919
     26  H        -2.8704825575    3.2533584114   -0.6144562580
     27  H        -3.7583268708    1.7170746968   -0.9559336122
     28  H        -2.2213740751   -4.1006433276    0.3805596418
     29  H        -3.2456698123   -2.9358542693   -0.5458470147
   Point Group: c1    Number of degrees of freedom:    81


   Energy is   -755.732473656

              Constraints and their Current Values
                                        Value     Constraint
   Dihedral:        2   1   3   5      162.300      162.300
   Dihedral:        1   2   4   7      -61.600      -61.600
 Hessian Updated using BFGS Update

   Using Lagrange Multiplier Algorithm


 79 Hessian modes will be used to form the next step
  Hessian Eigenvalues:
    -0.976015    0.031917    0.045000    0.045001    0.045007    0.045104
     0.045337    0.045640    0.048510    0.056467    0.058981    0.065400
     0.066437    0.070811    0.071967    0.074289    0.075762    0.081726
     0.083030    0.084145    0.084896    0.086989    0.088250    0.091203
     0.091447    0.096443    0.098172    0.112415    0.112643    0.113727
     0.116982    0.117256    0.122022    0.123326    0.138409    0.141127
     0.158509    0.160070    0.160905    0.161905    0.171064    0.174482
     0.244166    0.246766    0.249040    0.249990    0.250001    0.250194
     0.253943    0.266950    0.268576    0.291465    0.296933    0.300334
     0.308685    0.324110    0.329874    0.338288    0.340449    0.341588
     0.342145    0.342272    0.343012    0.343410    0.343870    0.343906
     0.344042    0.344382    0.344563    0.345402    0.346932    0.386992
     0.410994    0.447878    0.515850    0.551579    0.949006    0.976438
     1.034290

 Minimum Search - Taking P-RFO Step
 Searching for Lamda that Maximizes Along the Constraint modes Only
 Value Taken    Lamda =   0.00000051
 Searching for Lamda that Minimizes Along All other modes
 Value Taken    Lamda =  -0.00025713
 Step Taken.  Stepsize is  0.065587

                             Maximum     Tolerance    Cnvgd?
         Gradient            0.003815       0.000300      NO
         Displacement        0.019800       0.001200      NO
         Energy change     -0.000576       0.000001      NO


 New Cartesian Coordinates Obtained by Inverse Iteration

 Displacement from previous Coordinates is:  0.183238
 Adding empirical dispersion correction 
 ----------------------------------------------------------------
 Doing -D3(op) with
 s6 =   1.00000
 s8 =   0.78311
 a1 =   0.30000
 a2 =   4.25000
 n  =  10.00000
 -D3 energy without 3body term =     -0.0302636272 hartrees
 ----------------------------------------------------------------
             Standard Nuclear Orientation (Angstroms)
    I     Atom           X                Y                Z
 ----------------------------------------------------------------
    1      C       0.4542757837    -0.6766548805    -0.6522280222
    2      C       0.6514896112     0.8895592273    -0.5374572502
    3      C      -0.8657941570    -1.1735062930     0.0263324107
    4      C      -0.5968464727     1.6765137481     0.0067405945
    5      O      -1.1657283985    -2.4830247479    -0.4720953200
    6      O      -1.5375781073    -0.5776477941     0.8984933991
    7      O      -1.6823783845     1.4723603006    -0.9124708615
    8      O      -0.6498797346     2.4135983442     1.0133602781
    9      C      -2.9024268825     2.1462998968    -0.4117132067
   10      C      -2.3973614058    -3.0073192078     0.1681946246
   11      C       1.7072517780    -1.1848346494     0.1899375687
   12      C       3.0283796398    -0.8943047028    -0.6283956594
   13      C       3.1946748653     0.6558558104    -0.4042125037
   14      C       1.8984448911     0.9765180068     0.4378876510
   15      O       1.7587132356    -0.2156197928     1.3090021244
   16      H       0.4848344910    -1.0298606205    -1.6979046135
   17      H       0.8982381878     1.3109325393    -1.5294602904
   18      H      -3.0412732216     1.9746243902     0.6744482339
   19      H      -2.6169763959    -2.4396148206     1.0945764081
   20      H       1.6050150916    -2.2188087153     0.5736230656
   21      H       3.8747698345    -1.4561187966    -0.2023365834
   22      H       2.9233119565    -1.1653840519    -1.6911809909
   23      H       4.0997865089     0.8800121212     0.1827762017
   24      H       3.2330462017     1.2247576198    -1.3467762787
   25      H       1.9264730610     1.9008816575     1.0471246485
   26      H      -2.8637520720     3.2404428510    -0.5953679387
   27      H      -3.7500531533     1.7116226685    -0.9732747106
   28      H      -2.2293424233    -4.0771887748     0.3942408047
   29      H      -3.2542222648    -2.9098381237    -0.5292047792
 ----------------------------------------------------------------
 Molecular Point Group                 C1    NOp =  1
 Largest Abelian Subgroup              C1    NOp =  1
 Nuclear Repulsion Energy =  1090.1541446685 hartrees
 There are       57 alpha and       57 beta electrons
 Applying Cartesian multipole field
    Component          Value
    ---------          -----
     (2,0,0)        1.00000E-11
     (0,2,0)        2.00000E-11
     (0,0,2)       -3.00000E-11
 Nucleus-field energy     =     0.0000000319 hartrees
 Requested basis set is STO-3G
 There are 44 shells and 89 basis functions
 A cutoff of  1.0D-12 yielded    864 shell pairs
 There are      3897 function pairs
 Smallest overlap matrix eigenvalue = 2.13E-01
 Guess MOs from SCF MO coefficient file
 Reading MOs from coefficient file
 Reading MOs from coefficient file
 A restricted hybrid HF-DFT SCF calculation will be
 performed using Pulay DIIS extrapolation
 Exchange:     0.2000 Hartree-Fock + 0.0800 Slater + 0.7200 B88
 Correlation:  0.1900 VWN1RPA + 0.8100 LYP
 Using SG-1 standard quadrature grid
 Dispersion:   Grimme D3
 SCF converges when DIIS error is below 1.0E-08
 Geometry optimization detected.  Setting ReadMinima to 0
 Setting SaveMinima to 0
 -------------------------------------------------------
 OpenMP Integral computing Module                
 Release: version 1.0, May 2013, Q-Chem Inc. Pittsburgh 
 -------------------------------------------------------
 -------------------------------------------------------
 OpenMP BLAS3 based DFT computing Module                
 Release: version 1.0, May 2013, Q-Chem Inc. Pittsburgh 
 -------------------------------------------------------
 ---------------------------------------
  Cycle       Energy         DIIS Error
 ---------------------------------------
    1    -755.7332577922      1.04E-03
    2    -755.7326118823      8.01E-05
    3    -755.7326045234      1.30E-04
    4    -755.7326227409      3.45E-05
    5    -755.7326239617      1.18E-05
    6    -755.7326241210      3.03E-06
    7    -755.7326241322      4.69E-07
    8    -755.7326241324      1.89E-07
    9    -755.7326241325      1.02E-07
   10    -755.7326241325      3.82E-08
   11    -755.7326241325      8.84E-09 Convergence criterion met
 ---------------------------------------
 SCF time:  CPU 44.46 s  wall 1.87 s
 SCF   energy in the final basis set = -755.7326241325
 Total energy in the final basis set = -755.7326241325
 
 --------------------------------------------------------------
 
                    Orbital Energies (a.u.)
 --------------------------------------------------------------
 
 Alpha MOs
 -- Occupied --
-18.936 -18.921 -18.886 -18.879 -18.866 -10.101 -10.092 -10.061
-10.060 -10.055 -10.055 -10.038 -10.033 -10.020 -10.018  -1.013
 -0.999  -0.968  -0.937  -0.926  -0.761  -0.722  -0.705  -0.664
 -0.653  -0.593  -0.544  -0.536  -0.508  -0.473  -0.455  -0.451
 -0.430  -0.414  -0.412  -0.405  -0.402  -0.375  -0.360  -0.353
 -0.345  -0.339  -0.331  -0.323  -0.310  -0.302  -0.297  -0.278
 -0.271  -0.251  -0.245  -0.233  -0.178  -0.166  -0.158  -0.145
 -0.142
 -- Virtual --
  0.095   0.115   0.236   0.252   0.269   0.284   0.312   0.331
  0.342   0.346   0.358   0.372   0.384   0.404   0.411   0.420
  0.422   0.426   0.430   0.433   0.437   0.439   0.442   0.444
  0.451   0.467   0.488   0.508   0.543   0.552   0.645   0.654
 --------------------------------------------------------------
 
          Ground-State Mulliken Net Atomic Charges

     Atom                 Charge (a.u.)
  ----------------------------------------
      1 C                    -0.077133
      2 C                    -0.080193
      3 C                     0.215202
      4 C                     0.215857
      5 O                    -0.170317
      6 O                    -0.210848
      7 O                    -0.176480
      8 O                    -0.213201
      9 C                    -0.128939
     10 C                    -0.134884
     11 C                     0.025052
     12 C                    -0.144087
     13 C                    -0.143331
     14 C                     0.024045
     15 O                    -0.188712
     16 H                     0.087557
     17 H                     0.082955
     18 H                     0.096636
     19 H                     0.101390
     20 H                     0.083229
     21 H                     0.078148
     22 H                     0.073842
     23 H                     0.077983
     24 H                     0.073105
     25 H                     0.090846
     26 H                     0.082746
     27 H                     0.086572
     28 H                     0.088022
     29 H                     0.084939
  ----------------------------------------
  Sum of atomic charges =    -0.000000

 -----------------------------------------------------------------
                    Cartesian Multipole Moments
 -----------------------------------------------------------------
    Charge (ESU x 10^10)
                 0.0000
    Dipole Moment (Debye)
         X       0.0147      Y      -1.1610      Z      -2.1926
       Tot       2.4811
    Quadrupole Moments (Debye-Ang)
        XX     -72.3854     XY       1.7939     YY     -77.4431
        XZ      -1.4945     YZ      -3.7916     ZZ     -84.6843
    Octopole Moments (Debye-Ang^2)
       XXX     -33.2108    XXY       1.9793    XYY     -17.2770
       YYY      -6.9680    XXZ      -1.4778    XYZ       3.8910
       YYZ       2.9136    XZZ      -4.8561    YZZ      -0.4123
       ZZZ       4.2056
    Hexadecapole Moments (Debye-Ang^3)
      XXXX   -1911.7209   XXXY      -7.7222   XXYY    -504.6908
      XYYY      18.6332   YYYY   -1341.3344   XXXZ      29.4320
      XXYZ      -0.2226   XYYZ       7.9449   YYYZ     -41.7798
      XXZZ    -389.7999   XYZZ       5.0644   YYZZ    -289.2918
      XZZZ      -2.0208   YZZZ       2.6307   ZZZZ    -296.1338
 -----------------------------------------------------------------
 Calculating analytic gradient of the SCF energy
 Gradient of SCF Energy
            1           2           3           4           5           6
    1  -0.0003990   0.0004276  -0.0001132   0.0004151   0.0008724  -0.0006560
    2  -0.0004504  -0.0007591   0.0004973   0.0017499  -0.0010527   0.0001553
    3  -0.0017289   0.0024116   0.0003139  -0.0012235  -0.0008116   0.0001136
            7           8           9          10          11          12
    1  -0.0004942   0.0000835  -0.0009566  -0.0007109   0.0004244   0.0003556
    2  -0.0013870   0.0003702   0.0000709  -0.0001440  -0.0003438  -0.0003042
    3  -0.0004309   0.0003003   0.0003544   0.0006149  -0.0005444  -0.0005586
           13          14          15          16          17          18
    1   0.0002282   0.0004155   0.0001781   0.0001247  -0.0000099   0.0002283
    2   0.0001993  -0.0002544   0.0002402   0.0004728   0.0002608   0.0002453
    3  -0.0005376   0.0003246   0.0012095  -0.0001956   0.0000759   0.0001100
           19          20          21          22          23          24
    1   0.0000035  -0.0004273   0.0000485   0.0000922  -0.0000072   0.0001309
    2   0.0001266   0.0001406   0.0002012  -0.0002175  -0.0001752   0.0001095
    3   0.0000715   0.0001805   0.0001922   0.0000443   0.0001145   0.0000917
           25          26          27          28          29
    1  -0.0002125  -0.0000974   0.0000375   0.0001161  -0.0000977
    2   0.0000977   0.0001108  -0.0001713   0.0000322   0.0001791
    3  -0.0001082  -0.0002198   0.0000914  -0.0002222  -0.0000336
 Max gradient component =       2.412E-03
 RMS gradient           =       5.590E-04
 Gradient time:  CPU 13.90 s  wall 0.58 s
 Geometry Optimization Parameters
   NAtoms,    NIC,     NZ,  NCons,   NDum,   NFix, NCnnct, MaxDiis
       29     227       0       2       0       0       0       0

 Cartesian Hessian Update
 Hessian Updated using BFGS Update


** CONSTRAINED OPTIMIZATION IN DELOCALIZED INTERNAL COORDINATES **
   Searching for a Minimum

   Optimization Cycle:   5

                       Coordinates (Angstroms)
     ATOM                X               Y               Z
      1  C         0.4542757837   -0.6766548805   -0.6522280222
      2  C         0.6514896112    0.8895592273   -0.5374572502
      3  C        -0.8657941570   -1.1735062930    0.0263324107
      4  C        -0.5968464727    1.6765137481    0.0067405945
      5  O        -1.1657283985   -2.4830247479   -0.4720953200
      6  O        -1.5375781073   -0.5776477941    0.8984933991
      7  O        -1.6823783845    1.4723603006   -0.9124708615
      8  O        -0.6498797346    2.4135983442    1.0133602781
      9  C        -2.9024268825    2.1462998968   -0.4117132067
     10  C        -2.3973614058   -3.0073192078    0.1681946246
     11  C         1.7072517780   -1.1848346494    0.1899375687
     12  C         3.0283796398   -0.8943047028   -0.6283956594
     13  C         3.1946748653    0.6558558104   -0.4042125037
     14  C         1.8984448911    0.9765180068    0.4378876510
     15  O         1.7587132356   -0.2156197928    1.3090021244
     16  H         0.4848344910   -1.0298606205   -1.6979046135
     17  H         0.8982381878    1.3109325393   -1.5294602904
     18  H        -3.0412732216    1.9746243902    0.6744482339
     19  H        -2.6169763959   -2.4396148206    1.0945764081
     20  H         1.6050150916   -2.2188087153    0.5736230656
     21  H         3.8747698345   -1.4561187966   -0.2023365834
     22  H         2.9233119565   -1.1653840519   -1.6911809909
     23  H         4.0997865089    0.8800121212    0.1827762017
     24  H         3.2330462017    1.2247576198   -1.3467762787
     25  H         1.9264730610    1.9008816575    1.0471246485
     26  H        -2.8637520720    3.2404428510   -0.5953679387
     27  H        -3.7500531533    1.7116226685   -0.9732747106
     28  H        -2.2293424233   -4.0771887748    0.3942408047
     29  H        -3.2542222648   -2.9098381237   -0.5292047792
   Point Group: c1    Number of degrees of freedom:    81


   Energy is   -755.732624132

              Constraints and their Current Values
                                        Value     Constraint
   Dihedral:        2   1   3   5      162.300      162.300
   Dihedral:        1   2   4   7      -61.600      -61.600
 Hessian Updated using BFGS Update

 78 Hessian modes will be used to form the next step
  Hessian Eigenvalues:
     0.021727    0.045000    0.045001    0.045019    0.045223    0.045524
     0.045846    0.048506    0.056450    0.059058    0.065397    0.066875
     0.071013    0.072002    0.074269    0.075803    0.081721    0.083438
     0.084120    0.084985    0.086977    0.088253    0.091201    0.091444
     0.096619    0.098158    0.112223    0.112809    0.113446    0.116978
     0.117281    0.121820    0.122842    0.138452    0.141136    0.158403
     0.159950    0.160178    0.160901    0.162839    0.171083    0.174701
     0.245419    0.247063    0.249420    0.249930    0.250051    0.251826
     0.256729    0.267535    0.268621    0.291855    0.299228    0.308646
     0.317748    0.327764    0.334968    0.338845    0.340478    0.341637
     0.342230    0.342314    0.343024    0.343509    0.343860    0.343876
     0.344069    0.344364    0.344884    0.345930    0.356545    0.379037
     0.411502    0.457271    0.512936    0.536701    0.949000    0.974655

 Minimum Search - Taking Simple RFO Step
 Searching for Lamda that Minimizes Along All modes
 Value Taken    Lamda =  -0.00009466
 Step Taken.  Stepsize is  0.053043

                             Maximum     Tolerance    Cnvgd?
         Gradient           0.001406      0.000300      NO
         Displacement       0.021121      0.001200      NO
         Energy change     -0.000150      0.000001      NO


 New Cartesian Coordinates Obtained by Inverse Iteration

 Displacement from previous Coordinates is:  0.109659
 Adding empirical dispersion correction 
[...]
 C         -0.000  0.000  0.000    0.041 -0.036 -0.034   -0.003  0.002 -0.003
 C         -0.000 -0.000  0.000    0.050  0.033 -0.020    0.002  0.003  0.003
 C         -0.000  0.000 -0.000   -0.001  0.008  0.003    0.003 -0.009 -0.008
 O          0.000 -0.000  0.000   -0.001 -0.000  0.000   -0.000 -0.003 -0.003
 H          0.000  0.000  0.000    0.025  0.002 -0.003    0.205  0.069 -0.048
 H         -0.002  0.001 -0.001    0.052 -0.027 -0.000   -0.037 -0.013 -0.004
 H          0.137  0.610  0.287    0.007 -0.001  0.002   -0.042 -0.007 -0.031
 H         -0.004 -0.013 -0.060   -0.000 -0.000  0.001    0.045  0.114  0.006
 H          0.001  0.000  0.000    0.021 -0.016 -0.003   -0.003 -0.004  0.008
 H         -0.000 -0.001 -0.001   -0.049  0.199  0.458   -0.018 -0.007  0.018
 H          0.001 -0.001  0.000   -0.399  0.306 -0.050    0.001  0.006 -0.005
 H          0.001 -0.000 -0.001   -0.144 -0.286  0.363    0.012 -0.012 -0.010
 H          0.000  0.000  0.000   -0.439 -0.166 -0.154   -0.001 -0.003 -0.001
 H         -0.000 -0.001  0.001    0.016  0.015 -0.003   -0.001 -0.014 -0.014
 H         -0.213 -0.030  0.603    0.005 -0.000  0.000   -0.059 -0.008 -0.039
 H          0.227 -0.082 -0.218    0.006 -0.003 -0.005   -0.067  0.065  0.044
 H          0.047 -0.016 -0.010   -0.000  0.003  0.000    0.075  0.091  0.034
 H         -0.032  0.007 -0.001    0.000  0.001 -0.002    0.151  0.048 -0.106
 TransDip   0.059  0.022  0.061   -0.047  0.003  0.063   -0.225  0.107  0.092

 Mode:                67                     68                     69
 Frequency:      1804.94                3049.58                3049.87
 Force Cnst:     22.0313                 5.6409                 5.6414
 Red. Mass:      11.4779                 1.0295                 1.0294
 IR Active:          YES                    YES                    YES
 IR Intens:      391.214                 22.499                 48.052
 Raman Active:       YES                    YES                    YES
               X      Y      Z        X      Y      Z        X      Y      Z
 C          0.021 -0.008 -0.030    0.000  0.000  0.001    0.000  0.000  0.000
 C          0.016 -0.029 -0.036    0.001  0.001 -0.003   -0.000 -0.001  0.002
 C         -0.197  0.132  0.281   -0.000 -0.002 -0.001   -0.000 -0.001 -0.001
 C         -0.035  0.434  0.529    0.001  0.000  0.001   -0.002 -0.001 -0.002
 O          0.011 -0.009 -0.017    0.002  0.002 -0.000    0.001  0.001 -0.000
 O          0.116 -0.096 -0.180   -0.000  0.000  0.001   -0.000  0.000  0.000
 O         -0.003 -0.023 -0.033   -0.002  0.001 -0.000    0.002 -0.001  0.000
 O          0.000 -0.276 -0.342   -0.000 -0.000 -0.000    0.000  0.000  0.001
 C         -0.019  0.016  0.013   -0.018  0.014  0.012    0.025 -0.019 -0.017
 C         -0.012 -0.004  0.008    0.028  0.008 -0.021    0.021  0.006 -0.015
 C          0.010  0.001  0.010   -0.000  0.000 -0.000   -0.000  0.000 -0.000
 C         -0.002  0.001 -0.003    0.000 -0.000 -0.000    0.000 -0.000 -0.000
 C         -0.005 -0.003 -0.006   -0.000 -0.000  0.000    0.001  0.001 -0.000
 C          0.004  0.005  0.016    0.000  0.000  0.000   -0.000  0.000  0.000
 O         -0.001 -0.002 -0.008    0.000  0.000  0.000    0.000  0.000  0.000
 H          0.117  0.046 -0.041   -0.000 -0.004 -0.011   -0.000 -0.001 -0.002
 H          0.113 -0.120 -0.026   -0.008 -0.012  0.033    0.007  0.011 -0.029
 H          0.109 -0.045  0.051    0.113  0.140 -0.327   -0.151 -0.188  0.439
 H          0.023  0.060  0.004   -0.405  0.301 -0.046   -0.302  0.224 -0.034
 H         -0.022 -0.007 -0.013   -0.001 -0.003  0.001   -0.000 -0.000  0.000
 H         -0.015 -0.011  0.009   -0.003  0.002 -0.002   -0.003  0.002 -0.002
 H          0.006  0.002 -0.004    0.001  0.001  0.005    0.000  0.001  0.003
 H         -0.022  0.016  0.021    0.004  0.001  0.003   -0.008 -0.001 -0.006
 H          0.006 -0.003 -0.004    0.000  0.004 -0.007   -0.000 -0.006  0.011
 H         -0.055  0.043 -0.003    0.000  0.000  0.000    0.000 -0.001 -0.001
 H          0.120  0.012  0.029   -0.062 -0.370 -0.024    0.083  0.496  0.032
 H          0.131 -0.105 -0.084    0.181  0.057  0.198   -0.242 -0.076 -0.265
 H          0.039  0.049  0.020    0.099 -0.100  0.487    0.074 -0.075  0.365
 H          0.081  0.026 -0.057   -0.043 -0.301 -0.185   -0.032 -0.224 -0.138
 TransDip  -0.010  0.425  0.470    0.013  0.147 -0.037    0.220 -0.010 -0.028

 Mode:                70                     71                     72
 Frequency:      3056.90                3061.16                3067.73
 Force Cnst:      5.8662                 5.9337                 5.8920
 Red. Mass:       1.0655                 1.0747                 1.0626
 IR Active:          YES                    YES                    YES
 IR Intens:       14.050                 16.339                 36.062
 Raman Active:       YES                    YES                    YES
               X      Y      Z        X      Y      Z        X      Y      Z
 C         -0.000  0.002  0.007    0.000  0.001  0.005   -0.000  0.002  0.007
 C          0.009  0.014 -0.037    0.014  0.023 -0.060    0.005  0.008 -0.022
 C         -0.000 -0.000  0.000   -0.000 -0.000  0.000   -0.000 -0.000  0.000
 C         -0.000 -0.000 -0.001   -0.000 -0.000 -0.002   -0.000  0.000 -0.001
 O          0.000  0.000 -0.000    0.000  0.000 -0.000    0.000  0.000 -0.000
 O          0.000 -0.000 -0.000    0.000  0.000 -0.000    0.000 -0.000 -0.000
 O          0.000 -0.000  0.000    0.000 -0.000  0.000    0.000 -0.000  0.000
 O          0.000  0.000  0.000    0.000  0.000  0.000    0.000  0.000  0.000
 C          0.001 -0.001 -0.001    0.001 -0.001 -0.001    0.000 -0.000  0.000
 C         -0.000 -0.000  0.000   -0.000 -0.000  0.000   -0.000 -0.000  0.000
 C          0.000  0.002 -0.001    0.000 -0.002  0.001   -0.000  0.004 -0.002
 C          0.018 -0.024 -0.026   -0.018  0.025  0.026    0.015 -0.024 -0.027
 C         -0.028 -0.027  0.020    0.008  0.003  0.001    0.039  0.032 -0.015
 C          0.001  0.001  0.001    0.001 -0.000 -0.001   -0.001 -0.002 -0.002
 O         -0.000  0.000  0.000   -0.000 -0.000  0.000   -0.000 -0.000  0.000
 H          0.002 -0.028 -0.086   -0.001 -0.018 -0.057    0.002 -0.027 -0.082
 H         -0.112 -0.166  0.453   -0.178 -0.265  0.725   -0.065 -0.098  0.269
 H         -0.007 -0.009  0.020   -0.007 -0.008  0.020   -0.000  0.000 -0.000
 H          0.005 -0.004  0.001    0.002 -0.001  0.000    0.005 -0.004  0.001
 H         -0.002 -0.026  0.009    0.001  0.024 -0.008   -0.003 -0.049  0.018
 H         -0.265  0.183 -0.139    0.271 -0.188  0.143   -0.242  0.168 -0.129
 H          0.062  0.102  0.440   -0.064 -0.104 -0.448    0.064  0.105  0.445
 H          0.311  0.055  0.210   -0.091 -0.018 -0.058   -0.434 -0.079 -0.288
 H          0.015  0.262 -0.442   -0.002 -0.026  0.049   -0.014 -0.281  0.472
 H         -0.003 -0.013 -0.007    0.000  0.007  0.004    0.005  0.035  0.022
 H          0.004  0.023  0.001    0.004  0.024  0.001    0.000  0.001  0.000
 H         -0.011 -0.004 -0.013   -0.011 -0.004 -0.013   -0.000 -0.000 -0.001
 H         -0.001  0.001 -0.007   -0.001  0.001 -0.003   -0.001  0.002 -0.008
 H          0.001  0.004  0.002    0.000  0.002  0.001    0.001  0.003  0.002
 TransDip  -0.028 -0.108 -0.044   -0.032  0.125  0.007    0.149  0.047 -0.113

 Mode:                73                     74                     75
 Frequency:      3096.80                3111.30                3117.64
 Force Cnst:      6.2544                 6.2399                 6.2914
 Red. Mass:       1.1069                 1.0941                 1.0986
 IR Active:          YES                    YES                    YES
 IR Intens:        0.860                  9.538                 34.575
 Raman Active:       YES                    YES                    YES
               X      Y      Z        X      Y      Z        X      Y      Z
 C         -0.000  0.003  0.010    0.001 -0.021 -0.062    0.001 -0.016 -0.049
 C         -0.001 -0.002  0.005    0.001  0.002 -0.004    0.002  0.004 -0.008
 C          0.000  0.000  0.000   -0.001 -0.001 -0.001   -0.000 -0.001 -0.001
 C         -0.000  0.000  0.000   -0.000  0.000 -0.000   -0.000  0.000 -0.000
 O         -0.000 -0.000 -0.000    0.000  0.000  0.000   -0.000  0.000  0.000
 O         -0.000 -0.000 -0.000   -0.000  0.000  0.000   -0.000  0.000  0.000
 O          0.000  0.000 -0.000    0.000 -0.000  0.000    0.000 -0.000  0.000
 O         -0.000 -0.000 -0.000    0.000 -0.000 -0.000    0.000  0.000  0.000
 C         -0.000  0.000 -0.000    0.000  0.000  0.000   -0.000 -0.000  0.000
 C         -0.000  0.000 -0.000    0.000  0.000  0.000    0.001 -0.000  0.001
 C         -0.001 -0.008  0.003    0.002  0.009 -0.004   -0.001 -0.004  0.000
 C         -0.043  0.019 -0.053    0.019 -0.009  0.022   -0.030  0.011 -0.044
 C          0.031 -0.012  0.052    0.027 -0.009  0.042   -0.026  0.009 -0.042
 C          0.000 -0.002 -0.001    0.000 -0.003 -0.001    0.000  0.002 -0.000
 O          0.000  0.000 -0.000   -0.000  0.000  0.000    0.000  0.000  0.001
 H          0.004 -0.038 -0.113   -0.012  0.242  0.729   -0.007  0.192  0.579
 H          0.015  0.024 -0.067   -0.014 -0.021  0.050   -0.024 -0.040  0.102
 H         -0.000 -0.000  0.000    0.000  0.001 -0.001    0.001  0.001 -0.003
 H          0.000 -0.000  0.000   -0.004  0.003 -0.000   -0.011  0.008 -0.001
 H          0.010  0.089 -0.035   -0.013 -0.109  0.043    0.004  0.043 -0.017
 H          0.461 -0.324  0.221   -0.211  0.151 -0.102    0.320 -0.227  0.154
 H          0.046  0.103  0.406   -0.018 -0.043 -0.157    0.044  0.095  0.370
 H         -0.399 -0.080 -0.249   -0.342 -0.069 -0.214    0.333  0.069  0.210
 H          0.025  0.226 -0.372    0.020  0.175 -0.284   -0.020 -0.181  0.293
 H          0.001  0.020  0.013    0.002  0.028  0.019   -0.001 -0.008 -0.005
 H         -0.000 -0.002 -0.000   -0.000 -0.001  0.000    0.001  0.005  0.000
 H          0.000  0.000  0.000   -0.000 -0.000 -0.001   -0.001 -0.000 -0.001
 H          0.000 -0.000  0.000    0.000 -0.001  0.002   -0.001  0.001 -0.005
 H         -0.000  0.000  0.000   -0.000 -0.003 -0.002   -0.000 -0.003 -0.002
 TransDip  -0.020 -0.004  0.022    0.083 -0.050  0.022   -0.092  0.004 -0.164

 Mode:                76                     77                     78
 Frequency:      3122.54                3124.91                3130.66
 Force Cnst:      6.3596                 6.3713                 6.2938
 Red. Mass:       1.1070                 1.1074                 1.0899
 IR Active:          YES                    YES                    YES
 IR Intens:       18.516                 15.503                 22.199
 Raman Active:       YES                    YES                    YES
               X      Y      Z        X      Y      Z        X      Y      Z
 C         -0.000 -0.000 -0.001    0.000  0.000  0.000   -0.000 -0.002 -0.006
 C          0.000  0.000 -0.000   -0.000 -0.000  0.000   -0.000  0.001 -0.001
 C          0.000 -0.000  0.000   -0.000  0.000  0.000   -0.000 -0.001  0.000
 C         -0.000 -0.000 -0.000    0.000  0.000 -0.000   -0.000  0.000 -0.000
 O          0.000 -0.000  0.000    0.000 -0.000 -0.000    0.000  0.000 -0.000
 O          0.000 -0.000  0.000    0.000 -0.000 -0.000    0.000  0.000 -0.000
 O          0.000 -0.000  0.000    0.000  0.000 -0.000    0.000 -0.000  0.000
 O          0.000  0.000  0.000   -0.000  0.000 -0.000    0.000 -0.000  0.000
 C          0.001  0.002 -0.001   -0.028 -0.079  0.045   -0.000 -0.000  0.000
 C         -0.057  0.046 -0.060   -0.002  0.001 -0.002    0.001 -0.000  0.001
 C         -0.000 -0.001  0.000   -0.000  0.000 -0.000   -0.009 -0.078  0.032
 C         -0.000  0.000 -0.000    0.000 -0.000  0.000    0.010 -0.006  0.006
 C         -0.000  0.000 -0.001    0.000 -0.000  0.000    0.003  0.001  0.001
 C         -0.000 -0.000 -0.000   -0.000  0.000  0.000   -0.000 -0.003 -0.003
 O          0.000 -0.000  0.000    0.000  0.000 -0.000   -0.000 -0.000 -0.000
 H          0.000  0.003  0.010    0.000 -0.001 -0.004    0.001  0.020  0.064
 H         -0.001 -0.001  0.003    0.000  0.001 -0.001   -0.004 -0.006  0.015
 H         -0.006 -0.007  0.017    0.203  0.248 -0.620    0.001  0.001 -0.003
 H          0.562 -0.424  0.047    0.016 -0.012  0.001   -0.009  0.007 -0.001
 H          0.002  0.013 -0.005   -0.000 -0.001  0.001    0.104  0.901 -0.370
 H          0.002 -0.001  0.001   -0.001  0.001 -0.000   -0.114  0.078 -0.052
 H          0.000  0.001  0.004   -0.000 -0.000 -0.002   -0.004 -0.009 -0.027
 H          0.003  0.001  0.002   -0.002 -0.000 -0.001   -0.027 -0.005 -0.018
 H         -0.000 -0.002  0.004    0.000  0.002 -0.003    0.000  0.001 -0.001
 H          0.000  0.001  0.001   -0.000 -0.001 -0.001    0.003  0.046  0.033
 H         -0.004 -0.022 -0.002    0.119  0.696  0.061    0.000 -0.000  0.000
 H         -0.002 -0.000 -0.002    0.010 -0.010  0.025   -0.001 -0.000 -0.001
 H          0.128 -0.123  0.678    0.004 -0.004  0.021   -0.001  0.001 -0.008
 H         -0.012  0.006 -0.014   -0.000  0.002  0.001    0.000 -0.001 -0.001
 TransDip  -0.083  0.067 -0.087   -0.026 -0.111  0.054    0.012 -0.147  0.033

 Mode:                79                     80                     81
 Frequency:      3153.15                3155.99                3162.74
 Force Cnst:      6.4815                 6.4919                 6.4276
 Red. Mass:       1.1065                 1.1062                 1.0906
 IR Active:          YES                    YES                    YES
 IR Intens:       13.999                 14.400                  5.671
 Raman Active:       YES                    YES                    YES
               X      Y      Z        X      Y      Z        X      Y      Z
 C         -0.000 -0.000 -0.000   -0.000  0.000 -0.000    0.001  0.001  0.002
 C          0.000  0.000  0.000    0.000  0.000 -0.000    0.000 -0.000  0.001
 C         -0.000 -0.000 -0.000    0.001  0.000 -0.001    0.000  0.000 -0.000
 C          0.001 -0.001 -0.001    0.000  0.000 -0.000   -0.000 -0.001 -0.001
 O          0.000  0.000  0.000   -0.000  0.000  0.000   -0.000 -0.000  0.000
 O         -0.000  0.000  0.000   -0.000  0.000  0.000   -0.000 -0.000  0.000
 O          0.000  0.000  0.000   -0.000 -0.000  0.000   -0.000  0.000  0.000
 O         -0.000  0.000  0.000   -0.000 -0.000  0.000    0.000  0.000  0.000
 C         -0.044 -0.029 -0.078   -0.000  0.000 -0.000   -0.000 -0.000 -0.001
 C         -0.000  0.000  0.000    0.006 -0.072 -0.061    0.000  0.000  0.000
 C         -0.000 -0.000  0.000   -0.000 -0.000  0.000    0.001  0.005 -0.001
 C          0.000 -0.000 -0.000    0.000 -0.000 -0.000   -0.001  0.001  0.001
 C          0.000  0.000  0.000    0.000  0.000 -0.000   -0.005 -0.000 -0.002
 C          0.000  0.001  0.001   -0.000 -0.000 -0.000   -0.006 -0.070 -0.050
 O         -0.000  0.000  0.000   -0.000  0.000  0.000   -0.000 -0.000  0.000
 H         -0.000  0.001  0.002   -0.000  0.000  0.001   -0.000 -0.006 -0.017
 H         -0.000 -0.000  0.001   -0.000 -0.000  0.000    0.001  0.003 -0.011
 H         -0.109 -0.135  0.284   -0.001 -0.001  0.003   -0.001 -0.002  0.003
 H          0.003 -0.002  0.000   -0.245  0.172 -0.041    0.000 -0.000  0.000
 H          0.000  0.003 -0.001    0.000  0.000 -0.000   -0.005 -0.046  0.020
 H         -0.000  0.000 -0.000   -0.000  0.000 -0.000    0.010 -0.006  0.004
 H          0.000  0.000  0.001    0.000  0.000  0.001   -0.001 -0.001 -0.008
 H         -0.001 -0.000 -0.001   -0.000 -0.000 -0.000    0.051  0.009  0.029
 H         -0.000 -0.000  0.000   -0.000 -0.000  0.000    0.002  0.002 -0.006
 H         -0.001 -0.009 -0.006    0.000  0.002  0.002    0.061  0.808  0.574
 H          0.045  0.297  0.004   -0.000 -0.000 -0.000    0.001  0.005  0.000
 H          0.585  0.183  0.643    0.003  0.001  0.003    0.006  0.002  0.007
 H          0.000  0.000  0.000    0.066 -0.074  0.292   -0.000  0.000 -0.001
 H         -0.001 -0.004 -0.002    0.107  0.758  0.468   -0.000 -0.002 -0.001
 TransDip  -0.074 -0.028 -0.090   -0.011 -0.101 -0.066   -0.044 -0.058 -0.023

 STANDARD THERMODYNAMIC QUANTITIES AT   298.15 K  AND     1.00 ATM

   This Molecule has  0 Imaginary Frequencies
   Zero point vibrational energy:      149.053 kcal/mol

   Atom    1 Element C  Has Mass   12.00000
   Atom    2 Element C  Has Mass   12.00000
   Atom    3 Element C  Has Mass   12.00000
   Atom    4 Element C  Has Mass   12.00000
   Atom    5 Element O  Has Mass   15.99491
   Atom    6 Element O  Has Mass   15.99491
   Atom    7 Element O  Has Mass   15.99491
   Atom    8 Element O  Has Mass   15.99491
   Atom    9 Element C  Has Mass   12.00000
   Atom   10 Element C  Has Mass   12.00000
   Atom   11 Element C  Has Mass   12.00000
   Atom   12 Element C  Has Mass   12.00000
   Atom   13 Element C  Has Mass   12.00000
   Atom   14 Element C  Has Mass   12.00000
   Atom   15 Element O  Has Mass   15.99491
   Atom   16 Element H  Has Mass    1.00783
   Atom   17 Element H  Has Mass    1.00783
   Atom   18 Element H  Has Mass    1.00783
   Atom   19 Element H  Has Mass    1.00783
   Atom   20 Element H  Has Mass    1.00783
   Atom   21 Element H  Has Mass    1.00783
   Atom   22 Element H  Has Mass    1.00783
   Atom   23 Element H  Has Mass    1.00783
   Atom   24 Element H  Has Mass    1.00783
   Atom   25 Element H  Has Mass    1.00783
   Atom   26 Element H  Has Mass    1.00783
   Atom   27 Element H  Has Mass    1.00783
   Atom   28 Element H  Has Mass    1.00783
   Atom   29 Element H  Has Mass    1.00783
   Molecular Mass:   214.084170 amu
   Principal axes and moments of inertia in amu*Bohr^2:
                             1           2           3
    Eigenvalues --     2438.70155  2979.94220  4683.01104
          X               0.99991     0.00922    -0.01008
          Y              -0.00929     0.99993    -0.00720
          Z               0.01001     0.00730     0.99992
   Rotational Symmetry Number is   1
   The Molecule is an Asymmetric Top
   Translational Enthalpy:        0.889 kcal/mol
   Rotational Enthalpy:           0.889 kcal/mol
   Vibrational Enthalpy:        156.340 kcal/mol
   gas constant (RT):             0.592 kcal/mol
   Translational Entropy:        41.987  cal/mol.K
   Rotational Entropy:           31.898  cal/mol.K
   Vibrational Entropy:          48.943  cal/mol.K

   Total Enthalpy:              158.709 kcal/mol
   Total Entropy:               122.828  cal/mol.K
Archival summary:
1\1\nid04597\FREQ\ProcedureUnspecified\BasisUnspecified\51014\junteng\WedOct420:18:142017WedOct420:18:142017\0\\#,FREQ,ProcedureUnspecified,BasisUnspecified,\\0,1\O\C,1,1.42773\H,2,1.08814,1,110.156\C,1,1.43911,2,97.135,3,179.448,0\H,4,1.08575,1,109.777,2,177.521,0\C,4,1.54198,1,102.122,2,-57.6111,0\H,6,1.09087,4,110.21,1,-80.6507,0\H,6,1.09179,4,112.802,1,158.203,0\C,2,1.54683,1,103.382,3,-124.163,0\H,9,1.09074,2,110.26,1,86.82,0\H,9,1.09192,2,112.405,1,-152.519,0\C,4,1.54959,1,103.181,2,55.2493,0\H,12,1.09373,4,110.832,1,-145.295,0\C,12,1.51872,4,113.994,1,96.1793,0\O,14,1.20321,12,125.883,4,6.53776,0\O,14,1.35116,12,109.865,4,-177.815,0\C,16,1.43905,14,115.958,12,175.381,0\H,17,1.08804,16,105.491,14,179.511,0\H,17,1.09086,16,110.658,14,59.8304,0\H,17,1.09108,16,109.746,14,-61.2233,0\C,2,1.56345,1,102.017,3,122.027,0\H,21,1.08896,2,111.392,1,157.395,0\C,21,1.51327,2,108.945,1,-83.3201,0\O,23,1.2045,21,126.746,2,86.4928,0\O,23,1.35369,21,109.807,2,-90.4703,0\C,25,1.44017,23,115.943,21,176.414,0\H,26,1.08783,25,105.455,23,179.811,0\H,26,1.091,25,110.384,23,60.3289,0\H,26,1.09105,25,110.505,23,-60.5541,0\\\@

 Total job time:  7414.59s(wall), 40253.87s(cpu) 
 Wed Oct  4 20:18:15 2017

        *************************************************************
        *                                                           *
        *  Thank you very much for using Q-Chem.  Have a nice day.  *
        *                                                           *
        *************************************************************


