nid03064 10.128.12
Q-Chem Developer Version! Running on 10.128.12.*
                  Welcome to Q-Chem
     A Quantum Leap Into The Future Of Chemistry


 Q-Chem 5.0, Q-Chem, Inc., Pleasanton, CA (2017)

 Yihan Shao,  Zhengting Gan,  E. Epifanovsky,  A. T. B. Gilbert,  M. Wormit,  
 J. Kussmann,  A. W. Lange,  A. Behn,  Jia Deng,  Xintian Feng,  D. Ghosh,  
 M. Goldey,  P. R. Horn,  L. D. Jacobson,  I. Kaliman,  T. Kus,  A. Landau,  
 Jie Liu,  E. I. Proynov,  R. M. Richard,  R. P. Steele,  E. J. Sundstrom,  
 H. L. Woodcock III,  P. M. Zimmerman,  D. Zuev,  B. Albrecht,  E. Alguire,  
 S. A. Baeppler,  Z. Benda,  Y. A. Bernard,  E. J. Berquist,  K. B. Bravaya,  
 D. Casanova,  Chun-Min Chang,  Yunqing Chen,  A. Chien,  K. D. Closser,  
 M. P. Coons,  S. Dasgupta,  M. Diedenhofen,  Hainam Do,  R. G. Edgar,  
 Po-Tung Fang,  S. Fatehi,  Qingguo Feng,  Qinghui Ge,  A. Ghysels,  
 J. Gomes,  J. Gonthier,  A. Gunina,  M. W. D. Hanson-Heine,  
 P. H. P. Harbach,  A. W. Hauser,  J. E. Herr,  E. G. Hohenstein,  
 Z. C. Holden,  Kerwin Hui,  T.-C. Jagau,  Hyunjun Ji,  B. Kaduk,  
 K. Khistyaev,  Jaehoon Kim,  P. Klunzinger,  K. Koh,  D. Kosenkov,  
 T. Kowalczyk,  C. M. Krauter,  A. Kunitsa,  Ka Un Lao,  A. Laurent,  
 K. V. Lawler,  Joonho Lee,  D. Lefrancois,  S. Lehtola,  D. S. Levine,  
 Yi-Pei Li,  You-Sheng Lin,  Fenglai Liu,  E. Livshits,  A. Luenser,  
 P. Manohar,  E. Mansoor,  S. F. Manzer,  Shan-Ping Mao,  Yuezhi Mao,  
 N. Mardirossian,  A. V. Marenich,  L. A. Martinez-Martinez,  S. A. Maurer,  
 N. J. Mayhall,  S. C. McKenzie,  J.-M. Mewes,  A. F. Morrison,  K. Nanda,  
 T. S. Nguyen-Beck,  R. Olivares-Amaya,  J. A. Parkhill,  T. M. Perrine,  
 F. Plasser,  S. Prager,  A. Prociuk,  D. R. Rehn,  F. Rob,  M. Schneider,  
 N. Sergueev,  S. M. Sharada,  S. Sharma,  D. W. Small,  T. Stauch,  
 T. Stein,  Yu-Chuan Su,  A. J. W. Thom,  T. Tsuchimochi,  L. Vogt,  
 O. Vydrov,  M. A. Watson,  J. Wenzel,  M. de Wergifosse,  T. A. Wesolowski,  
 A. White,  J. Witte,  A. Yamada,  Jun Yang,  K. Yao,  S. Yeganeh,  
 S. R. Yost,  Zhi-Qiang You,  A. Zech,  Igor Ying Zhang,  Xing Zhang,  
 Yan Zhao,  Ying Zhu,  B. R. Brooks,  G. K. L. Chan,  C. J. Cramer,  
 M. S. Gordon,  W. J. Hehre,  A. Klamt,  M. W. Schmidt,  C. D. Sherrill,  
 D. G. Truhlar,  A. Aspuru-Guzik,  R. Baer,  A. T. Bell,  N. A. Besley,  
 Jeng-Da Chai,  A. Dreuw,  B. D. Dunietz,  T. R. Furlani,  Chao-Ping Hsu,  
 Yousung Jung,  Jing Kong,  D. S. Lambrecht,  WanZhen Liang,  C. Ochsenfeld,  
 V. A. Rassolov,  L. V. Slipchenko,  J. E. Subotnik,  T. Van Voorhis,  
 J. M. Herbert,  A. I. Krylov,  P. M. W. Gill,  M. Head-Gordon

 Contributors to earlier versions of Q-Chem not listed above: 
 R. D. Adamson,  B. Austin,  J. Baker,  G. J. O. Beran,  K. Brandhorst,  
 S. T. Brown,  E. F. C. Byrd,  A. K. Chakraborty,  C.-L. Cheng,  
 Siu Hung Chien,  D. M. Chipman,  D. L. Crittenden,  H. Dachsel,  
 R. A. DiStasio Jr.,  R. J. Doerksen,  A. D. Dutoi,  L. Fusti-Molnar,  
 W. A. Goddard III,  A. Golubeva-Zadorozhnaya,  S. R. Gwaltney,  G. Hawkins,  
 A. Heyden,  S. Hirata,  G. Kedziora,  F. J. Keil,  C. Kelley,  Jihan Kim,  
 R. A. King,  R. Z. Khaliullin,  P. P. Korambath,  W. Kurlancheek,  
 A. M. Lee,  M. S. Lee,  S. V. Levchenko,  Ching Yeh Lin,  D. Liotard,  
 R. C. Lochan,  I. Lotan,  P. E. Maslen,  N. Nair,  D. P. O'Neill,  
 D. Neuhauser,  E. Neuscamman,  C. M. Oana,  R. Olson,  B. Peters,  
 R. Peverati,  P. A. Pieniazek,  Y. M. Rhee,  J. Ritchie,  M. A. Rohrdanz,  
 E. Rosta,  N. J. Russ,  H. F. Schaefer III,  N. E. Schultz,  N. Shenvi,  
 A. C. Simmonett,  A. Sodt,  D. Stuck,  K. S. Thanthiriwatte,  V. Vanovschi,  
 Tao Wang,  A. Warshel,  C. F. Williams,  Q. Wu,  X. Xu,  W. Zhang

 Please cite Q-Chem as follows:
 Y. Shao et al., Mol. Phys. 113, 184-215 (2015)
 DOI: 10.1080/00268976.2014.952696

 Q-Chem 5.0.0 for Intel X86 EM64T Linux

 Parts of Q-Chem use Armadillo 5.200.1 (Boston Tea Smuggler).
 http://arma.sourceforge.net/

 Q-Chem begins on Wed Oct  4 18:26:26 2017  

Host: nid03064
0

     Scratch files written to /global/cscratch1/sd/junteng/scratch/18/opt_11n11+o.save//

Checking the input file for inconsistencies... 	...done.

--------------------------------------------------------------
User input:
--------------------------------------------------------------
$molecule
0  1
C    0.304  -2.425   0.241
C   -0.187  -2.670   1.539
C    0.664  -1.037  -0.131
C   -0.223  -1.586   2.547
O    1.892  -1.027  -0.706
O   -0.050  -0.071   0.073
O    1.036  -1.102   2.698
O   -1.208  -1.281   3.197
C    1.131  -0.051   3.659
C    2.346   0.277  -1.069
C    0.337  -3.468  -0.713
C   -0.078  -4.750  -0.324
C   -0.556  -4.992   0.965
C   -0.619  -3.961   1.912
H    0.496   0.792   3.371
H    1.683   0.717  -1.820
H   -0.885  -5.997   1.223
H    0.862  -0.417   4.655
H    2.169   0.291   3.685
H    3.345   0.180  -1.503
H    2.413   0.921  -0.186
H   -0.050  -5.576  -1.034
C   -1.153  -4.262   3.286
C    0.800  -3.263  -2.130
H    0.377  -2.346  -2.553
H    0.472  -4.085  -2.776
H    1.893  -3.221  -2.170
H   -2.134  -3.796   3.422
H   -0.464  -3.904   4.057
H   -1.273  -5.340   3.441
$end


$opt
CONSTRAINT
tors    2    1    3    5    140.2
tors    1    2    4    7    -57.3
ENDCONSTRAINT
$end

$rem
JOBTYPE                   OPT
METHOD                    B3LYP
DFT_D                     D3_OP
BASIS                     STO-3G
GEOM_OPT_MAX_CYCLES       500
SYMMETRY                  False
THRESH                    12
SCF_CONVERGENCE           8
MAX_SUB_FILE_NUM          128
MEM_STATIC                400
MEM_TOTAL                 4000
$end

--------------------------------------------------------------
 Adding empirical dispersion correction 
 ----------------------------------------------------------------
 Doing -D3(op) with
 s6 =   1.00000
 s8 =   0.78311
 a1 =   0.30000
 a2 =   4.25000
 n  =  10.00000
 -D3 energy without 3body term =     -0.0331083887 hartrees
 ----------------------------------------------------------------
             Standard Nuclear Orientation (Angstroms)
    I     Atom           X                Y                Z
 ----------------------------------------------------------------
    1      C       0.4125011125    -0.6355076896    -0.1241194854
    2      C      -0.9199718424    -0.1775825584    -0.0970935988
    3      C       1.4909203662     0.3367582974    -0.4177838583
    4      C      -1.2227722681     1.2652754643    -0.2345295060
    5      O       2.4794071129     0.2069212582     0.5013164054
    6      O       1.4599007613     1.1281261782    -1.3437118584
    7      O      -0.5671603921     1.9341318938     0.7477851812
    8      O      -2.0192894914     1.7300109239    -1.0316062059
    9      C      -0.7911410252     3.3435492204     0.7249274575
   10      C       3.5538033154     1.1302705963     0.3241165186
   11      C       0.6908325096    -2.0150972909     0.0112251320
   12      C      -0.3765806243    -2.9000235158     0.2224235647
   13      C      -1.6950140119    -2.4427633611     0.2572883515
   14      C      -1.9865449822    -1.0814074782     0.0977300441
   15      H      -0.4624112412     3.7697958433    -0.2274740049
   16      H       4.0453282984     0.9641147078    -0.6391930950
   17      H      -2.4970302573    -3.1634910569     0.4061222542
   18      H      -1.8474376543     3.5666794906     0.9059890877
   19      H      -0.2002982988     3.7931790170     1.5273126011
   20      H       4.2838919982     0.9582831261     1.1198280401
   21      H       3.1925407862     2.1609409489     0.4023597877
   22      H      -0.1906002296    -3.9666582263     0.3443320837
   23      C      -3.4222635693    -0.6326602424     0.1288918324
   24      C       2.0849910947    -2.5767940219    -0.0602005081
   25      H       2.6449814024    -2.1343937269    -0.8905256458
   26      H       2.0671057384    -3.6580417916    -0.2367433488
   27      H       2.6144009167    -2.3996751371     0.8812702249
   28      H      -3.7454857248    -0.3261374563    -0.8709002559
   29      H      -3.5543120453     0.1968300833     0.8302013215
   30      H      -4.0860980650    -1.4390523749     0.4598971058
 ----------------------------------------------------------------
 Molecular Point Group                 C1    NOp =  1
 Largest Abelian Subgroup              C1    NOp =  1
 Nuclear Repulsion Energy =  1141.1730988225 hartrees
 There are       59 alpha and       59 beta electrons
 Requested basis set is STO-3G
 There are 46 shells and 94 basis functions

 Total QAlloc Memory Limit   4000 MB
 Mega-Array Size       392 MB
 MEM_STATIC part       400 MB
 A cutoff of  1.0D-12 yielded    921 shell pairs
 There are      4311 function pairs
 
 -------------------------------------------------------
 OpenMP Integral Computing Module                       
 Release: version 1.0, May 2013, Q-Chem Inc. Pittsburgh 
 -------------------------------------------------------
 Integral Job Info:
 Integral job number is                      11
 Integral operator is                         1
 short-range coefficients                     0
 long-range coefficients              100000000
 Omega coefficients                           0
 if combine SR and LR in K                    0
 Integral screening is                        0
 Integral computing path is                   2
 max size of driver memory is            800000
 size of driver memory is                 45569
 size of scratch memory is               945100
 max col of scratch BK array                289
 max len of scratch array in speh3           22
 max len of scratch index in speh4            8
 max int batch size is                      520
 min int batch size is                       52
 fixed nKL is                                52
 max L of basis functions is                  1
 order of int derivative is                   0
 number of shells is                         46
 number of basis is                          94
 number of cartesian basis is                94
 number of contracted shell pairs           921
 number of primitive shell pairs           4930
 maxK2 (contraction) of shell pair            9
 max number of K2 of shell pair               1
 max number of CS2 of shell pair            151
 max number of PS2 of shell pair            660
 mem total for path MDJ                   29642
 -------------------------------------------------------
 Smallest overlap matrix eigenvalue = 1.76E-01

 Scale SEOQF with 1.000000e-01/1.000000e-01/1.000000e+00

 Standard Electronic Orientation quadrupole field applied
 Nucleus-field energy     =    -0.0000000013 hartrees
 Guess from superposition of atomic densities
 Warning:  Energy on first SCF cycle will be non-variational
 A restricted hybrid HF-DFT SCF calculation will be
 performed using Pulay DIIS extrapolation
 Exchange:     0.2000 Hartree-Fock + 0.0800 Slater + 0.7200 B88
 Correlation:  0.1900 VWN1RPA + 0.8100 LYP
 Using SG-1 standard quadrature grid
 Dispersion:   Grimme D3
 SCF converges when DIIS error is below 1.0E-08
 -------------------------------------------------------
 OpenMP Integral computing Module                
 Release: version 1.0, May 2013, Q-Chem Inc. Pittsburgh 
 -------------------------------------------------------
 -------------------------------------------------------
 OpenMP BLAS3 based DFT computing Module                
 Release: version 1.0, May 2013, Q-Chem Inc. Pittsburgh 
 -------------------------------------------------------
 ---------------------------------------
  Cycle       Energy         DIIS Error
 ---------------------------------------
    1    -756.4854003916      1.14E-01
    2    -756.5487627268      1.27E-02
    3    -755.4707920431      3.40E-02
    4    -756.7513971877      4.53E-03
    5    -756.7739817500      1.66E-03
    6    -756.7772694929      3.92E-04
    7    -756.7774746141      1.05E-04
    8    -756.7774914576      3.18E-05
    9    -756.7774924185      1.90E-05
   10    -756.7774928824      3.60E-06
   11    -756.7774928987      8.95E-07
   12    -756.7774928997      2.23E-07
   13    -756.7774928998      8.13E-08
   14    -756.7774928998      3.01E-08
   15    -756.7774928998      6.43E-09 Convergence criterion met
 ---------------------------------------
 SCF time:  CPU 86.20 s  wall 3.72 s
 SCF   energy in the final basis set = -756.7774928998
 Total energy in the final basis set = -756.7774928998
 
 --------------------------------------------------------------
 
                    Orbital Energies (a.u.)
 --------------------------------------------------------------
 
 Alpha MOs
 -- Occupied --
-18.949 -18.946 -18.868 -18.867 -10.115 -10.112 -10.075 -10.072
-10.020 -10.019 -10.017 -10.016 -10.015 -10.013 -10.004 -10.003
 -1.048  -1.042  -0.958  -0.955  -0.820  -0.752  -0.730  -0.692
 -0.683  -0.672  -0.622  -0.590  -0.562  -0.506  -0.500  -0.461
 -0.453  -0.447  -0.432  -0.425  -0.415  -0.398  -0.392  -0.385
 -0.382  -0.369  -0.357  -0.350  -0.346  -0.339  -0.326  -0.321
 -0.309  -0.293  -0.287  -0.250  -0.248  -0.197  -0.184  -0.181
 -0.180  -0.152  -0.148
 -- Virtual --
  0.062   0.077   0.130   0.142   0.242   0.288   0.309   0.353
  0.372   0.389   0.394   0.406   0.410   0.436   0.440   0.445
  0.446   0.452   0.455   0.457   0.460   0.468   0.471   0.475
  0.484   0.492   0.504   0.577   0.590   0.602   0.627   0.702
  0.709   0.786   0.800
 --------------------------------------------------------------
 
          Ground-State Mulliken Net Atomic Charges

     Atom                 Charge (a.u.)
  ----------------------------------------
      1 C                    -0.020315
      2 C                    -0.018928
      3 C                     0.235748
      4 C                     0.236538
      5 O                    -0.181275
      6 O                    -0.229574
      7 O                    -0.184253
      8 O                    -0.224009
      9 C                    -0.127614
     10 C                    -0.126341
     11 C                     0.009809
     12 C                    -0.080336
     13 C                    -0.080433
     14 C                     0.010066
     15 H                     0.096676
     16 H                     0.093049
     17 H                     0.079304
     18 H                     0.092734
     19 H                     0.094731
     20 H                     0.096134
     21 H                     0.093638
     22 H                     0.078551
     23 C                    -0.231252
     24 C                    -0.229602
     25 H                     0.082934
     26 H                     0.080995
     27 H                     0.092446
     28 H                     0.095901
     29 H                     0.084121
     30 H                     0.080559
  ----------------------------------------
  Sum of atomic charges =    -0.000000

 -----------------------------------------------------------------
                    Cartesian Multipole Moments
 -----------------------------------------------------------------
    Charge (ESU x 10^10)
                -0.0000
    Dipole Moment (Debye)
         X       1.2962      Y      -0.1010      Z       1.7364
       Tot       2.1692
    Quadrupole Moments (Debye-Ang)
        XX     -77.8750     XY       2.5850     YY     -77.1677
        XZ      -2.0609     YZ       4.6538     ZZ     -90.4602
    Octopole Moments (Debye-Ang^2)
       XXX      31.3988    XXY       6.2045    XYY       3.2220
       YYY      33.1978    XXZ       7.9534    XYZ      -0.8801
       YYZ      11.8410    XZZ       4.7944    YZZ       7.2816
       ZZZ      -1.5429
    Hexadecapole Moments (Debye-Ang^3)
      XXXX   -1962.7992   XXXY      47.3519   XXYY    -646.4083
      XYYY     -13.2508   YYYY   -1735.6892   XXXZ      -1.7022
      XXYZ      17.5216   XYYZ      -9.7525   YYYZ      13.7299
      XXZZ    -388.8525   XYZZ      -6.2694   YYZZ    -361.9148
      XZZZ       9.5993   YZZZ       1.8299   ZZZZ    -235.9432
 -----------------------------------------------------------------
 Calculating analytic gradient of the SCF energy
 Gradient of SCF Energy
            1           2           3           4           5           6
    1   0.0213257  -0.0080944   0.0219533   0.0038728  -0.0213627  -0.0049191
    2   0.0280999   0.0335195   0.0130442   0.0252676   0.0316096  -0.0513407
    3  -0.0060298  -0.0071836  -0.0015978   0.0068760  -0.0526758   0.0521430
            7           8           9          10          11          12
    1  -0.0435928   0.0411236   0.0034144  -0.0167356   0.0111495   0.0041761
    2   0.0026304  -0.0357710  -0.0228437  -0.0142570   0.0022105   0.0017290
    3  -0.0483522   0.0435054  -0.0000375   0.0032563  -0.0024467   0.0009026
           13          14          15          16          17          18
    1  -0.0031860  -0.0059502   0.0008837  -0.0064515   0.0072787   0.0118702
    2   0.0033800   0.0100336  -0.0081916  -0.0041587   0.0033181  -0.0067733
    3  -0.0007584   0.0006345   0.0113512   0.0120997  -0.0015351   0.0021588
           19          20          21          22          23          24
    1  -0.0064546  -0.0051214   0.0007536  -0.0036346   0.0171200  -0.0151163
    2  -0.0018106   0.0037889  -0.0128389   0.0064391  -0.0027253   0.0083908
    3  -0.0085387  -0.0084767   0.0036917  -0.0000443  -0.0037533   0.0048797
           25          26          27          28          29          30
    1  -0.0053769   0.0027466  -0.0067816   0.0030568   0.0020212   0.0000315
    2  -0.0049794   0.0040361  -0.0027634  -0.0060541  -0.0076737   0.0046841
    3   0.0005309  -0.0013090  -0.0034106   0.0044744  -0.0000072  -0.0003474
 Max gradient component =       5.268E-02
 RMS gradient           =       1.699E-02
 Gradient time:  CPU 20.12 s  wall 0.86 s
 Geometry Optimization Parameters
   NAtoms,    NIC,     NZ,  NCons,   NDum,   NFix, NCnnct, MaxDiis
       30     194       0       2       0       0       0       0


** CONSTRAINED OPTIMIZATION IN DELOCALIZED INTERNAL COORDINATES **
   Searching for a Minimum

   Optimization Cycle:   1

                       Coordinates (Angstroms)
     ATOM                X               Y               Z
      1  C         0.4125011125   -0.6355076896   -0.1241194854
      2  C        -0.9199718424   -0.1775825584   -0.0970935988
      3  C         1.4909203662    0.3367582974   -0.4177838583
      4  C        -1.2227722681    1.2652754643   -0.2345295060
      5  O         2.4794071129    0.2069212582    0.5013164054
      6  O         1.4599007613    1.1281261782   -1.3437118584
      7  O        -0.5671603921    1.9341318938    0.7477851812
      8  O        -2.0192894914    1.7300109239   -1.0316062059
      9  C        -0.7911410252    3.3435492204    0.7249274575
     10  C         3.5538033154    1.1302705963    0.3241165186
     11  C         0.6908325096   -2.0150972909    0.0112251320
     12  C        -0.3765806243   -2.9000235158    0.2224235647
     13  C        -1.6950140119   -2.4427633611    0.2572883515
     14  C        -1.9865449822   -1.0814074782    0.0977300441
     15  H        -0.4624112412    3.7697958433   -0.2274740049
     16  H         4.0453282984    0.9641147078   -0.6391930950
     17  H        -2.4970302573   -3.1634910569    0.4061222542
     18  H        -1.8474376543    3.5666794906    0.9059890877
     19  H        -0.2002982988    3.7931790170    1.5273126011
     20  H         4.2838919982    0.9582831261    1.1198280401
     21  H         3.1925407862    2.1609409489    0.4023597877
     22  H        -0.1906002296   -3.9666582263    0.3443320837
     23  C        -3.4222635693   -0.6326602424    0.1288918324
     24  C         2.0849910947   -2.5767940219   -0.0602005081
     25  H         2.6449814024   -2.1343937269   -0.8905256458
     26  H         2.0671057384   -3.6580417916   -0.2367433488
     27  H         2.6144009167   -2.3996751371    0.8812702249
     28  H        -3.7454857248   -0.3261374563   -0.8709002559
     29  H        -3.5543120453    0.1968300833    0.8302013215
     30  H        -4.0860980650   -1.4390523749    0.4598971058
   Point Group: c1    Number of degrees of freedom:    84


   Energy is   -756.777492900

              Constraints and their Current Values
                                        Value     Constraint
   Dihedral:        2   1   3   5      131.435      140.200
   Dihedral:        1   2   4   7      -57.239      -57.300

 Attempting to Generate Delocalized Internal Coordinates

   Using Lagrange Multiplier Algorithm


 86 Hessian modes will be used to form the next step
  Hessian Eigenvalues:
    -0.977753   -0.977753    0.045000    0.045000    0.045000    0.045000
     0.045000    0.045000    0.045000    0.045000    0.045000    0.045001
     0.045002    0.045003    0.045005    0.045012    0.045013    0.045137
     0.045284    0.093755    0.094007    0.094234    0.094419    0.113828
     0.113875    0.116854    0.116890    0.159975    0.159998    0.160000
     0.160000    0.160000    0.160000    0.160000    0.160000    0.160000
     0.160000    0.160000    0.160000    0.160000    0.160000    0.224723
     0.244737    0.248923    0.249138    0.249624    0.249908    0.249990
     0.249993    0.250000    0.250000    0.250000    0.250000    0.250000
     0.318837    0.319059    0.341608    0.341647    0.342469    0.342555
     0.342769    0.342935    0.342935    0.343290    0.343371    0.343554
     0.344100    0.344105    0.344456    0.344917    0.348625    0.349867
     0.408089    0.409183    0.413229    0.413817    0.437594    0.446154
     0.449565    0.458786    0.535065    0.537664    0.958663    0.960829
     1.022753    1.022753

 Minimum Search - Taking P-RFO Step
 Searching for Lamda that Maximizes Along the Constraint modes Only
 Value Taken    Lamda =   0.01196677
 Searching for Lamda that Minimizes Along All other modes
 Value Taken    Lamda =  -0.06552603
 Calculated Step too Large.  Step scaled by  0.809135
 Step Taken.  Stepsize is  0.300000

                             Maximum     Tolerance    Cnvgd?
         Gradient            0.152983       0.000300      NO
         Displacement        0.122565       0.001200      NO
         Energy change     *********       0.000001      NO


 New Cartesian Coordinates Obtained by Inverse Iteration

 Displacement from previous Coordinates is:  0.999607
 Adding empirical dispersion correction 
 ----------------------------------------------------------------
 Doing -D3(op) with
 s6 =   1.00000
 s8 =   0.78311
 a1 =   0.30000
 a2 =   4.25000
 n  =  10.00000
 -D3 energy without 3body term =     -0.0326986142 hartrees
 ----------------------------------------------------------------
             Standard Nuclear Orientation (Angstroms)
    I     Atom           X                Y                Z
 ----------------------------------------------------------------
    1      C       0.3914517075    -0.6582866349    -0.0653314671
    2      C      -0.9560718294    -0.2090879167    -0.0601165519
    3      C       1.4878577395     0.3704754766    -0.3535025989
    4      C      -1.2609463176     1.2846190849    -0.2117051555
    5      O       2.5754205799     0.1660666883     0.5069962593
    6      O       1.4525337206     1.2177013645    -1.2702971291
    7      O      -0.6039629502     1.9897310180     0.8096847074
    8      O      -2.0342677644     1.7923776596    -1.0489743554
    9      C      -0.8301152437     3.4338977900     0.7349299910
   10      C       3.6707169376     1.1059602196     0.2657544745
   11      C       0.6828695960    -2.0475910269     0.0420822373
   12      C      -0.3906686799    -2.9476708253     0.2190275151
   13      C      -1.7221179149    -2.4982608994     0.2437640327
   14      C      -2.0295681125    -1.1285425682     0.0994661560
   15      H      -0.4775532661     3.8522947295    -0.2278834081
   16      H       4.0904234987     0.9926073554    -0.7530687679
   17      H      -2.5314808936    -3.2277540583     0.3666700725
   18      H      -1.8998755756     3.6871257310     0.8714115927
   19      H      -0.2513264345     3.8955358077     1.5541120304
   20      H       4.4617830574     0.8762781728     1.0010001138
   21      H       3.3468585244     2.1553315902     0.4097796524
   22      H      -0.1885522598    -4.0208270853     0.3205578691
   23      C      -3.4915034619    -0.6703625667     0.1040948897
   24      C       2.1136909316    -2.5910943225    -0.0251839091
   25      H       2.6865242377    -2.1138136741    -0.8343168143
   26      H       2.1052059045    -3.6726367080    -0.2241649242
   27      H       2.6432443778    -2.4255810246     0.9264100810
   28      H      -3.8006558822    -0.3380122886    -0.8995658832
   29      H      -3.6493916196     0.1586822673     0.8105328577
   30      H      -4.1543289175    -1.4935822348     0.4069720551
 ----------------------------------------------------------------
 Molecular Point Group                 C1    NOp =  1
 Largest Abelian Subgroup              C1    NOp =  1
 Nuclear Repulsion Energy =  1120.0765180556 hartrees
 There are       59 alpha and       59 beta electrons
 Applying Cartesian multipole field
    Component          Value
    ---------          -----
     (2,0,0)        1.00000E-11
     (0,2,0)        2.00000E-11
     (0,0,2)       -3.00000E-10
 Nucleus-field energy     =     0.0000000021 hartrees
 Requested basis set is STO-3G
 There are 46 shells and 94 basis functions
 A cutoff of  1.0D-12 yielded    914 shell pairs
 There are      4289 function pairs
 Smallest overlap matrix eigenvalue = 1.82E-01
 Guess MOs from SCF MO coefficient file
 Reading MOs from coefficient file
 Reading MOs from coefficient file
 A restricted hybrid HF-DFT SCF calculation will be
 performed using Pulay DIIS extrapolation
 Exchange:     0.2000 Hartree-Fock + 0.0800 Slater + 0.7200 B88
 Correlation:  0.1900 VWN1RPA + 0.8100 LYP
 Using SG-1 standard quadrature grid
 Dispersion:   Grimme D3
 SCF converges when DIIS error is below 1.0E-08
 Geometry optimization detected.  Setting ReadMinima to 0
 Setting SaveMinima to 0
 -------------------------------------------------------
 OpenMP Integral computing Module                
 Release: version 1.0, May 2013, Q-Chem Inc. Pittsburgh 
 -------------------------------------------------------
 -------------------------------------------------------
 OpenMP BLAS3 based DFT computing Module                
 Release: version 1.0, May 2013, Q-Chem Inc. Pittsburgh 
 -------------------------------------------------------
 ---------------------------------------
  Cycle       Energy         DIIS Error
 ---------------------------------------
    1    -756.6345788601      6.65E-03
    2    -756.7967348500      2.39E-03
    3    -756.7814675610      4.24E-03
    4    -756.8036769579      6.12E-04
    5    -756.8041700575      1.71E-04
    6    -756.8042083998      4.87E-05
    7    -756.8042112968      2.25E-05
    8    -756.8042118706      1.15E-05
    9    -756.8042120410      2.04E-06
   10    -756.8042120478      4.99E-07
   11    -756.8042120483      1.38E-07
   12    -756.8042120483      6.75E-08
   13    -756.8042120484      2.29E-08
   14    -756.8042120484      6.23E-09 Convergence criterion met
 ---------------------------------------
 SCF time:  CPU 84.87 s  wall 3.63 s
 SCF   energy in the final basis set = -756.8042120484
 Total energy in the final basis set = -756.8042120484
 
 --------------------------------------------------------------
 
                    Orbital Energies (a.u.)
 --------------------------------------------------------------
 
 Alpha MOs
 -- Occupied --
-18.942 -18.938 -18.869 -18.868 -10.106 -10.103 -10.070 -10.066
-10.023 -10.022 -10.021 -10.020 -10.017 -10.016 -10.008 -10.007
 -1.022  -1.015  -0.940  -0.936  -0.815  -0.745  -0.720  -0.681
 -0.675  -0.662  -0.621  -0.585  -0.557  -0.498  -0.492  -0.450
 -0.443  -0.435  -0.417  -0.414  -0.409  -0.391  -0.384  -0.379
 -0.375  -0.368  -0.355  -0.347  -0.345  -0.336  -0.319  -0.313
 -0.307  -0.291  -0.284  -0.251  -0.248  -0.195  -0.182  -0.179
 -0.175  -0.151  -0.147
 -- Virtual --
  0.056   0.072   0.120   0.131   0.233   0.257   0.281   0.328
  0.352   0.357   0.375   0.390   0.401   0.421   0.424   0.427
  0.432   0.433   0.438   0.442   0.444   0.448   0.459   0.462
  0.470   0.481   0.486   0.553   0.565   0.578   0.606   0.660
  0.661   0.761   0.773
 --------------------------------------------------------------
 
          Ground-State Mulliken Net Atomic Charges

     Atom                 Charge (a.u.)
  ----------------------------------------
      1 C                    -0.019017
      2 C                    -0.016884
      3 C                     0.216540
      4 C                     0.217513
      5 O                    -0.170956
      6 O                    -0.216471
      7 O                    -0.173816
      8 O                    -0.212252
      9 C                    -0.125444
     10 C                    -0.124804
     11 C                     0.009147
     12 C                    -0.079362
     13 C                    -0.078948
     14 C                     0.008962
     15 H                     0.093122
     16 H                     0.089509
     17 H                     0.079528
     18 H                     0.088862
     19 H                     0.091150
     20 H                     0.092427
     21 H                     0.090472
     22 H                     0.079091
     23 C                    -0.225482
     24 C                    -0.223252
     25 H                     0.083037
     26 H                     0.079309
     27 H                     0.091068
     28 H                     0.093474
     29 H                     0.083626
     30 H                     0.079850
  ----------------------------------------
  Sum of atomic charges =     0.000000

 -----------------------------------------------------------------
                    Cartesian Multipole Moments
 -----------------------------------------------------------------
    Charge (ESU x 10^10)
                -0.0000
    Dipole Moment (Debye)
         X       1.1582      Y      -0.3216      Z       1.5186
       Tot       1.9367
    Quadrupole Moments (Debye-Ang)
        XX     -77.1861     XY       2.6594     YY     -77.0047
        XZ      -2.2099     YZ       4.4567     ZZ     -90.4198
    Octopole Moments (Debye-Ang^2)
       XXX      32.6783    XXY       6.7846    XYY       2.9782
       YYY      33.3597    XXZ       5.6479    XYZ      -1.4108
       YYZ      10.8940    XZZ       5.9054    YZZ       7.6003
       ZZZ      -6.1262
    Hexadecapole Moments (Debye-Ang^3)
      XXXX   -2033.1939   XXXY      49.7015   XXYY    -670.2028
      XYYY     -16.3100   YYYY   -1795.2637   XXXZ      -5.2637
      XXYZ      16.5054   XYYZ     -10.7781   YYYZ      18.3048
      XXZZ    -404.2535   XYZZ      -6.0987   YYZZ    -374.8307
      XZZZ       5.2822   YZZZ       2.1866   ZZZZ    -229.4936
 -----------------------------------------------------------------
 Calculating analytic gradient of the SCF energy
 Gradient of SCF Energy
            1           2           3           4           5           6
    1   0.0058372  -0.0025309   0.0079545   0.0119899  -0.0084866  -0.0002930
    2   0.0058658   0.0067818   0.0021146   0.0066131   0.0114910  -0.0116026
    3   0.0009484  -0.0049207   0.0110811   0.0103603  -0.0201533   0.0048663
            7           8           9          10          11          12
    1  -0.0177532   0.0044806   0.0029243  -0.0056756   0.0016349   0.0018400
    2   0.0014819  -0.0071363  -0.0088545  -0.0073501   0.0001736  -0.0010374
    3  -0.0185443   0.0063363   0.0029406   0.0036549  -0.0026962   0.0012881
           13          14          15          16          17          18
    1  -0.0023303  -0.0019049   0.0011023   0.0004443   0.0017702   0.0018524
    2   0.0002350   0.0018799  -0.0005099  -0.0012624   0.0001760  -0.0005402
    3  -0.0001288   0.0011596   0.0022128   0.0022072  -0.0006068   0.0016951
           19          20          21          22          23          24
    1  -0.0014777   0.0004324   0.0006126  -0.0013804   0.0051256  -0.0039461
    2   0.0017734   0.0021747  -0.0017018   0.0010797   0.0001307   0.0041340
    3  -0.0018471  -0.0018475   0.0016677   0.0003807  -0.0018261   0.0020481
           25          26          27          28          29          30
    1  -0.0008065   0.0018398  -0.0013472  -0.0004003  -0.0006897  -0.0008184
    2  -0.0025238   0.0011021  -0.0017439  -0.0022989  -0.0023848   0.0017392
    3  -0.0010932  -0.0010230  -0.0001569   0.0006862   0.0010004   0.0003103
 Max gradient component =       2.015E-02
 RMS gradient           =       5.322E-03
 Gradient time:  CPU 17.98 s  wall 0.76 s
 Geometry Optimization Parameters
   NAtoms,    NIC,     NZ,  NCons,   NDum,   NFix, NCnnct, MaxDiis
       30     194       0       2       0       0       0       0

 Cartesian Hessian Update
 Hessian Updated using BFGS Update


** CONSTRAINED OPTIMIZATION IN DELOCALIZED INTERNAL COORDINATES **
   Searching for a Minimum

   Optimization Cycle:   2

                       Coordinates (Angstroms)
     ATOM                X               Y               Z
      1  C         0.3914517075   -0.6582866349   -0.0653314671
      2  C        -0.9560718294   -0.2090879167   -0.0601165519
      3  C         1.4878577395    0.3704754766   -0.3535025989
      4  C        -1.2609463176    1.2846190849   -0.2117051555
      5  O         2.5754205799    0.1660666883    0.5069962593
      6  O         1.4525337206    1.2177013645   -1.2702971291
      7  O        -0.6039629502    1.9897310180    0.8096847074
      8  O        -2.0342677644    1.7923776596   -1.0489743554
      9  C        -0.8301152437    3.4338977900    0.7349299910
     10  C         3.6707169376    1.1059602196    0.2657544745
     11  C         0.6828695960   -2.0475910269    0.0420822373
     12  C        -0.3906686799   -2.9476708253    0.2190275151
     13  C        -1.7221179149   -2.4982608994    0.2437640327
     14  C        -2.0295681125   -1.1285425682    0.0994661560
     15  H        -0.4775532661    3.8522947295   -0.2278834081
     16  H         4.0904234987    0.9926073554   -0.7530687679
     17  H        -2.5314808936   -3.2277540583    0.3666700725
     18  H        -1.8998755756    3.6871257310    0.8714115927
     19  H        -0.2513264345    3.8955358077    1.5541120304
     20  H         4.4617830574    0.8762781728    1.0010001138
     21  H         3.3468585244    2.1553315902    0.4097796524
     22  H        -0.1885522598   -4.0208270853    0.3205578691
     23  C        -3.4915034619   -0.6703625667    0.1040948897
     24  C         2.1136909316   -2.5910943225   -0.0251839091
     25  H         2.6865242377   -2.1138136741   -0.8343168143
     26  H         2.1052059045   -3.6726367080   -0.2241649242
     27  H         2.6432443778   -2.4255810246    0.9264100810
     28  H        -3.8006558822   -0.3380122886   -0.8995658832
     29  H        -3.6493916196    0.1586822673    0.8105328577
     30  H        -4.1543289175   -1.4935822348    0.4069720551
   Point Group: c1    Number of degrees of freedom:    84


   Energy is   -756.804212048

              Constraints and their Current Values
                                        Value     Constraint
   Dihedral:        2   1   3   5      138.273      140.200
   Dihedral:        1   2   4   7      -57.295      -57.300
 Hessian Updated using BFGS Update

   Using Lagrange Multiplier Algorithm


 70 Hessian modes will be used to form the next step
  Hessian Eigenvalues:
    -0.977885   -0.977636    0.044638    0.045000    0.045000    0.045000
     0.045000    0.045001    0.045001    0.045004    0.045006    0.045013
     0.045062    0.045151    0.045449    0.093639    0.093941    0.094234
     0.094414    0.113767    0.113856    0.116855    0.116890    0.158444
     0.159976    0.159999    0.162428    0.224719    0.236940    0.244956
     0.248979    0.249466    0.249635    0.249914    0.249992    0.249997
     0.250000    0.252588    0.318932    0.321723    0.341605    0.341649
     0.342502    0.342565    0.342807    0.342934    0.342963    0.343294
     0.343400    0.343580    0.344092    0.344406    0.344557    0.348588
     0.349809    0.371920    0.407940    0.408230    0.413477    0.424341
     0.438499    0.446297    0.457536    0.463543    0.523868    0.536466
     0.959694    0.989602    1.022665    1.023151

 Minimum Search - Taking P-RFO Step
 Searching for Lamda that Maximizes Along the Constraint modes Only
 Value Taken    Lamda =   0.00043365
 Searching for Lamda that Minimizes Along All other modes
 Value Taken    Lamda =  -0.00729020
 Step Taken.  Stepsize is  0.216153

                             Maximum     Tolerance    Cnvgd?
         Gradient            0.033627       0.000300      NO
         Displacement        0.065417       0.001200      NO
         Energy change     -0.026719       0.000001      NO


 New Cartesian Coordinates Obtained by Inverse Iteration

 Displacement from previous Coordinates is:  0.754603
 Adding empirical dispersion correction 
 ----------------------------------------------------------------
 Doing -D3(op) with
 s6 =   1.00000
 s8 =   0.78311
 a1 =   0.30000
 a2 =   4.25000
 n  =  10.00000
 -D3 energy without 3body term =     -0.0327754424 hartrees
 ----------------------------------------------------------------
             Standard Nuclear Orientation (Angstroms)
    I     Atom           X                Y                Z
 ----------------------------------------------------------------
    1      C       0.3846751969    -0.6875772413    -0.0342279546
    2      C      -0.9610185398    -0.2361085633    -0.0191144116
    3      C       1.4727154576     0.3743292916    -0.2988437080
    4      C      -1.2469213883     1.2726560483    -0.1810968813
    5      O       2.6039408604     0.1394018108     0.5334379898
    6      O       1.3989409708     1.3083843807    -1.1356125320
    7      O      -0.5555709320     1.9756251238     0.8502073456
    8      O      -1.9888555408     1.8162259142    -1.0336898414
    9      C      -0.7707518530     3.4265516342     0.6832559172
   10      C       3.6319197366     1.1648869136     0.2657125366
   11      C       0.6779826024    -2.0794371170     0.0432008787
   12      C      -0.4025119262    -2.9784016960     0.1932042570
   13      C      -1.7346760578    -2.5250389616     0.2301618447
   14      C      -2.0397570984    -1.1504328266     0.1150708495
   15      H      -0.4074938129     3.7823476189    -0.3034428722
   16      H       3.9896574556     1.1220921199    -0.7844319108
   17      H      -2.5527001912    -3.2509173622     0.3370638000
   18      H      -1.8428421217     3.6971859517     0.7833178217
   19      H      -0.1900178235     3.9119186855     1.4899841372
   20      H       4.4694556132     0.9382226374     0.9517633285
   21      H       3.2535069217     2.1887907332     0.4662916535
   22      H      -0.1960968536    -4.0550328799     0.2670776320
   23      C      -3.5005038641    -0.6679746618     0.1179855344
   24      C       2.1157555464    -2.6240791221    -0.0291100565
   25      H       2.6923523059    -2.1178879707    -0.8191810216
   26      H       2.0969343027    -3.7037739617    -0.2451460092
   27      H       2.6433718807    -2.4692093468     0.9271815254
   28      H      -3.7879797128    -0.2988145428    -0.8813224583
   29      H      -3.6443904205     0.1561440362     0.8356805724
   30      H      -4.1729270244    -1.4944955249     0.3937576560
 ----------------------------------------------------------------
 Molecular Point Group                 C1    NOp =  1
 Largest Abelian Subgroup              C1    NOp =  1
 Nuclear Repulsion Energy =  1119.5497458485 hartrees
 There are       59 alpha and       59 beta electrons
 Applying Cartesian multipole field
    Component          Value
    ---------          -----
     (2,0,0)        1.00000E-11
     (0,2,0)        2.00000E-11
     (0,0,2)       -3.00000E-10
 Nucleus-field energy     =     0.0000000059 hartrees
 Requested basis set is STO-3G
 There are 46 shells and 94 basis functions
 A cutoff of  1.0D-12 yielded    916 shell pairs
 There are      4294 function pairs
 Smallest overlap matrix eigenvalue = 1.83E-01
 Guess MOs from SCF MO coefficient file
 Reading MOs from coefficient file
 Reading MOs from coefficient file
 A restricted hybrid HF-DFT SCF calculation will be
 performed using Pulay DIIS extrapolation
 Exchange:     0.2000 Hartree-Fock + 0.0800 Slater + 0.7200 B88
 Correlation:  0.1900 VWN1RPA + 0.8100 LYP
 Using SG-1 standard quadrature grid
 Dispersion:   Grimme D3
 SCF converges when DIIS error is below 1.0E-08
 Geometry optimization detected.  Setting ReadMinima to 0
 Setting SaveMinima to 0
 -------------------------------------------------------
 OpenMP Integral computing Module                
 Release: version 1.0, May 2013, Q-Chem Inc. Pittsburgh 
 -------------------------------------------------------
 -------------------------------------------------------
 OpenMP BLAS3 based DFT computing Module                
 Release: version 1.0, May 2013, Q-Chem Inc. Pittsburgh 
 -------------------------------------------------------
 ---------------------------------------
  Cycle       Energy         DIIS Error
 ---------------------------------------
    1    -756.7357159923      4.96E-03
    2    -756.8059835286      1.09E-03
    3    -756.8016226012      2.19E-03
    4    -756.8075279203      3.26E-04
    5    -756.8076625477      1.11E-04
    6    -756.8076781129      3.75E-05
    7    -756.8076794684      2.26E-05
    8    -756.8076800948      6.51E-06
    9    -756.8076801527      1.51E-06
   10    -756.8076801564      3.27E-07
   11    -756.8076801565      9.25E-08
   12    -756.8076801566      4.14E-08
   13    -756.8076801566      1.52E-08
   14    -756.8076801566      3.79E-09 Convergence criterion met
 ---------------------------------------
 SCF time:  CPU 86.25 s  wall 3.68 s
 SCF   energy in the final basis set = -756.8076801566
 Total energy in the final basis set = -756.8076801566
 
 --------------------------------------------------------------
 
                    Orbital Energies (a.u.)
 --------------------------------------------------------------
 
 Alpha MOs
 -- Occupied --
-18.940 -18.934 -18.872 -18.871 -10.103 -10.099 -10.066 -10.061
-10.024 -10.023 -10.023 -10.021 -10.018 -10.017 -10.010 -10.009
 -1.015  -1.007  -0.936  -0.932  -0.815  -0.744  -0.719  -0.680
 -0.669  -0.657  -0.621  -0.583  -0.556  -0.495  -0.489  -0.448
 -0.442  -0.432  -0.413  -0.410  -0.407  -0.389  -0.381  -0.376
 -0.371  -0.367  -0.355  -0.347  -0.345  -0.336  -0.317  -0.310
 -0.306  -0.291  -0.282  -0.255  -0.252  -0.195  -0.183  -0.179
 -0.172  -0.153  -0.148
 -- Virtual --
  0.054   0.070   0.117   0.129   0.233   0.252   0.276   0.316
  0.340   0.346   0.368   0.383   0.401   0.414   0.421   0.426
  0.430   0.433   0.435   0.437   0.442   0.445   0.455   0.457
  0.464   0.476   0.482   0.548   0.558   0.574   0.602   0.649
  0.651   0.758   0.769
 --------------------------------------------------------------
 
          Ground-State Mulliken Net Atomic Charges

     Atom                 Charge (a.u.)
  ----------------------------------------
      1 C                    -0.019551
      2 C                    -0.017254
      3 C                     0.210387
      4 C                     0.211800
      5 O                    -0.164972
      6 O                    -0.213142
      7 O                    -0.168396
      8 O                    -0.208159
      9 C                    -0.127402
     10 C                    -0.126657
     11 C                     0.008881
     12 C                    -0.079100
     13 C                    -0.078459
     14 C                     0.008342
     15 H                     0.093017
     16 H                     0.088743
     17 H                     0.079637
     18 H                     0.087725
     19 H                     0.088597
     20 H                     0.090431
     21 H                     0.090341
     22 H                     0.079118
     23 C                    -0.223948
     24 C                    -0.221655
     25 H                     0.083875
     26 H                     0.079511
     27 H                     0.091177
     28 H                     0.093103
     29 H                     0.083845
     30 H                     0.080167
  ----------------------------------------
  Sum of atomic charges =     0.000000

 -----------------------------------------------------------------
                    Cartesian Multipole Moments
 -----------------------------------------------------------------
    Charge (ESU x 10^10)
                -0.0000
    Dipole Moment (Debye)
         X       1.0329      Y      -0.4862      Z       1.2653
       Tot       1.7042
    Quadrupole Moments (Debye-Ang)
        XX     -77.5261     XY       2.7997     YY     -77.5470
        XZ      -2.3176     YZ       4.1057     ZZ     -90.1082
    Octopole Moments (Debye-Ang^2)
       XXX      28.4649    XXY       7.4917    XYY       3.2788
       YYY      31.1467    XXZ       3.1573    XYZ      -1.3585
       YYZ       8.5966    XZZ       6.4624    YZZ       8.3652
       ZZZ     -11.1299
    Hexadecapole Moments (Debye-Ang^3)
      XXXX   -2022.9890   XXXY      37.3409   XXYY    -671.2555
      XYYY     -26.7632   YYYY   -1834.6679   XXXZ      -9.7098
      XXYZ      14.0598   XYYZ     -10.5882   YYYZ      17.7151
      XXZZ    -398.1409   XYZZ      -8.8469   YYZZ    -379.6504
      XZZZ      -0.7710   YZZZ      -0.1189   ZZZZ    -215.7424
 -----------------------------------------------------------------
 Calculating analytic gradient of the SCF energy
 Gradient of SCF Energy
            1           2           3           4           5           6
    1  -0.0010064   0.0006902   0.0043168   0.0062240  -0.0011198  -0.0001246
    2  -0.0001327  -0.0010198   0.0013697   0.0038879   0.0004917   0.0012804
    3   0.0040575  -0.0002874   0.0046068   0.0052180  -0.0020372  -0.0030662
            7           8           9          10          11          12
    1  -0.0019212  -0.0024801  -0.0008766  -0.0043628  -0.0002670   0.0008094
    2  -0.0013881   0.0010465  -0.0044191  -0.0018256  -0.0008217  -0.0000824
    3  -0.0016843  -0.0030113  -0.0014726  -0.0005037  -0.0028026   0.0004675
           13          14          15          16          17          18
    1  -0.0003929  -0.0001714   0.0001252   0.0003013  -0.0002311  -0.0006069
    2   0.0004055   0.0007476   0.0005094  -0.0000514  -0.0001106   0.0002740
    3  -0.0001499   0.0006566  -0.0005123  -0.0005931  -0.0002126   0.0001766
           19          20          21          22          23          24
    1   0.0005050   0.0000504   0.0000776   0.0000866   0.0006486   0.0003786
    2  -0.0003984  -0.0004805   0.0006814  -0.0001945   0.0008183   0.0011854
    3   0.0004474   0.0004629   0.0001254   0.0003116  -0.0006300   0.0006506
           25          26          27          28          29          30
    1  -0.0000029  -0.0001097   0.0000336  -0.0002942  -0.0001921  -0.0000876
    2  -0.0002196  -0.0005384  -0.0004549  -0.0002600   0.0001265  -0.0004269
    3  -0.0003766  -0.0004347   0.0001258  -0.0002122   0.0003071   0.0003731
 Max gradient component =       6.224E-03
 RMS gradient           =       1.659E-03
 Gradient time:  CPU 20.19 s  wall 0.92 s
 Geometry Optimization Parameters
   NAtoms,    NIC,     NZ,  NCons,   NDum,   NFix, NCnnct, MaxDiis
       30     194       0       2       0       0       0       0

 Cartesian Hessian Update
 Hessian Updated using BFGS Update


** CONSTRAINED OPTIMIZATION IN DELOCALIZED INTERNAL COORDINATES **
   Searching for a Minimum

   Optimization Cycle:   3

                       Coordinates (Angstroms)
     ATOM                X               Y               Z
      1  C         0.3846751969   -0.6875772413   -0.0342279546
      2  C        -0.9610185398   -0.2361085633   -0.0191144116
      3  C         1.4727154576    0.3743292916   -0.2988437080
      4  C        -1.2469213883    1.2726560483   -0.1810968813
      5  O         2.6039408604    0.1394018108    0.5334379898
      6  O         1.3989409708    1.3083843807   -1.1356125320
      7  O        -0.5555709320    1.9756251238    0.8502073456
      8  O        -1.9888555408    1.8162259142   -1.0336898414
      9  C        -0.7707518530    3.4265516342    0.6832559172
     10  C         3.6319197366    1.1648869136    0.2657125366
     11  C         0.6779826024   -2.0794371170    0.0432008787
     12  C        -0.4025119262   -2.9784016960    0.1932042570
     13  C        -1.7346760578   -2.5250389616    0.2301618447
     14  C        -2.0397570984   -1.1504328266    0.1150708495
     15  H        -0.4074938129    3.7823476189   -0.3034428722
     16  H         3.9896574556    1.1220921199   -0.7844319108
     17  H        -2.5527001912   -3.2509173622    0.3370638000
     18  H        -1.8428421217    3.6971859517    0.7833178217
     19  H        -0.1900178235    3.9119186855    1.4899841372
     20  H         4.4694556132    0.9382226374    0.9517633285
     21  H         3.2535069217    2.1887907332    0.4662916535
     22  H        -0.1960968536   -4.0550328799    0.2670776320
     23  C        -3.5005038641   -0.6679746618    0.1179855344
     24  C         2.1157555464   -2.6240791221   -0.0291100565
     25  H         2.6923523059   -2.1178879707   -0.8191810216
     26  H         2.0969343027   -3.7037739617   -0.2451460092
     27  H         2.6433718807   -2.4692093468    0.9271815254
     28  H        -3.7879797128   -0.2988145428   -0.8813224583
     29  H        -3.6443904205    0.1561440362    0.8356805724
     30  H        -4.1729270244   -1.4944955249    0.3937576560
   Point Group: c1    Number of degrees of freedom:    84


   Energy is   -756.807680157

              Constraints and their Current Values
                                        Value     Constraint
   Dihedral:        2   1   3   5      140.192      140.200
   Dihedral:        1   2   4   7      -57.300      -57.300
 Hessian Updated using BFGS Update

   Using Lagrange Multiplier Algorithm


 73 Hessian modes will be used to form the next step
  Hessian Eigenvalues:
    -0.977819   -0.976271    0.041295    0.045000    0.045000    0.045000
     0.045000    0.045001    0.045001    0.045004    0.045005    0.045008
     0.045037    0.045099    0.045430    0.046261    0.092710    0.093907
     0.094233    0.094402    0.113216    0.113854    0.116858    0.116890
     0.159337    0.159979    0.159999    0.161157    0.163931    0.224660
     0.242397    0.245089    0.249150    0.249520    0.249649    0.249942
     0.249993    0.249998    0.250000    0.250602    0.289326    0.318997
     0.321725    0.341630    0.341819    0.342500    0.342559    0.342801
     0.342939    0.342984    0.343288    0.343417    0.343583    0.344057
     0.344403    0.345245    0.348617    0.349832    0.377393    0.396799
     0.408133    0.413494    0.417470    0.439016    0.446626    0.457422
     0.463239    0.479110    0.536585    0.959568    1.006309    1.022784
     1.038682

 Minimum Search - Taking P-RFO Step
 Searching for Lamda that Maximizes Along the Constraint modes Only
 Value Taken    Lamda =   0.00001593
 Searching for Lamda that Minimizes Along All other modes
 Value Taken    Lamda =  -0.00069473
 Step Taken.  Stepsize is  0.082935

                             Maximum     Tolerance    Cnvgd?
         Gradient            0.006859       0.000300      NO
         Displacement        0.023425       0.001200      NO
         Energy change     -0.003468       0.000001      NO


 New Cartesian Coordinates Obtained by Inverse Iteration

 Displacement from previous Coordinates is:  0.172985
 Adding empirical dispersion correction 
 ----------------------------------------------------------------
 Doing -D3(op) with
 s6 =   1.00000
 s8 =   0.78311
 a1 =   0.30000
 a2 =   4.25000
 n  =  10.00000
 -D3 energy without 3body term =     -0.0327636129 hartrees
 ----------------------------------------------------------------
             Standard Nuclear Orientation (Angstroms)
    I     Atom           X                Y                Z
 ----------------------------------------------------------------
    1      C       0.3788926397    -0.6892712381    -0.0483040710
    2      C      -0.9696115900    -0.2393905719    -0.0216036028
    3      C       1.4699713569     0.3709278889    -0.3064657767
    4      C      -1.2653750144     1.2693771145    -0.1817044132
    5      O       2.6125431104     0.1266620544     0.5204524860
    6      O       1.3897152369     1.3266212139    -1.1160384307
    7      O      -0.5660110802     1.9850145030     0.8472856252
    8      O      -2.0094896931     1.8126656887    -1.0299022010
    9      C      -0.7667947115     3.4438913869     0.6791235882
   10      C       3.6493752678     1.1564140537     0.2696383646
   11      C       0.6748988676    -2.0793112502     0.0381943089
   12      C      -0.4030494967    -2.9816112119     0.1862359881
   13      C      -1.7355628929    -2.5330819464     0.2252766235
   14      C      -2.0443479795    -1.1591842620     0.1137434495
   15      H      -0.3997389056     3.7897005975    -0.3086857344
   16      H       4.0028738534     1.1313973451    -0.7815427504
   17      H      -2.5510971869    -3.2609928865     0.3354832202
   18      H      -1.8362867279     3.7226438050     0.7738877459
   19      H      -0.1845826675     3.9291515260     1.4840730384
   20      H       4.4880734040     0.9182929886     0.9494097459
   21      H       3.2706315997     2.1758738578     0.4865030843
   22      H      -0.1926405013    -4.0573047058     0.2592113831
   23      C      -3.5061569456    -0.6788674460     0.1235146080
   24      C       2.1150005417    -2.6185697402    -0.0266064586
   25      H       2.6919242065    -2.1114185511    -0.8155131402
   26      H       2.1034774842    -3.6994131232    -0.2328190240
   27      H       2.6370741740    -2.4502289578     0.9304382610
   28      H      -3.7926595582    -0.3021515234    -0.8730590460
   29      H      -3.6456608036     0.1431579941     0.8438806483
   30      H      -4.1791922981    -1.5054134822     0.3950281025
 ----------------------------------------------------------------
 Molecular Point Group                 C1    NOp =  1
 Largest Abelian Subgroup              C1    NOp =  1
 Nuclear Repulsion Energy =  1117.8978047374 hartrees
 There are       59 alpha and       59 beta electrons
 Applying Cartesian multipole field
    Component          Value
    ---------          -----
     (2,0,0)        1.00000E-11
     (0,2,0)        2.00000E-11
     (0,0,2)       -3.00000E-10
 Nucleus-field energy     =     0.0000000068 hartrees
 Requested basis set is STO-3G
 There are 46 shells and 94 basis functions
 A cutoff of  1.0D-12 yielded    912 shell pairs
 There are      4281 function pairs
 Smallest overlap matrix eigenvalue = 1.83E-01
 Guess MOs from SCF MO coefficient file
 Reading MOs from coefficient file
 Reading MOs from coefficient file
 A restricted hybrid HF-DFT SCF calculation will be
 performed using Pulay DIIS extrapolation
 Exchange:     0.2000 Hartree-Fock + 0.0800 Slater + 0.7200 B88
 Correlation:  0.1900 VWN1RPA + 0.8100 LYP
 Using SG-1 standard quadrature grid
 Dispersion:   Grimme D3
 SCF converges when DIIS error is below 1.0E-08
 Geometry optimization detected.  Setting ReadMinima to 0
 Setting SaveMinima to 0
 -------------------------------------------------------
 OpenMP Integral computing Module                
 Release: version 1.0, May 2013, Q-Chem Inc. Pittsburgh 
 -------------------------------------------------------
 -------------------------------------------------------
 OpenMP BLAS3 based DFT computing Module                
 Release: version 1.0, May 2013, Q-Chem Inc. Pittsburgh 
 -------------------------------------------------------
 ---------------------------------------
  Cycle       Energy         DIIS Error
 ---------------------------------------
    1    -756.8012756857      1.34E-03
    2    -756.8079143714      2.99E-04
    3    -756.8074223470      6.90E-04
    4    -756.8080337253      6.03E-05
    5    -756.8080381539      1.97E-05
    6    -756.8080386203      7.00E-06
    7    -756.8080386785      3.72E-06
    8    -756.8080386954      1.16E-06
    9    -756.8080386970      4.20E-07
   10    -756.8080386972      6.92E-08
   11    -756.8080386973      1.79E-08
   12    -756.8080386973      8.63E-09 Convergence criterion met
 ---------------------------------------
 SCF time:  CPU 68.30 s  wall 2.91 s
 SCF   energy in the final basis set = -756.8080386973
 Total energy in the final basis set = -756.8080386973
 
 --------------------------------------------------------------
 
                    Orbital Energies (a.u.)
 --------------------------------------------------------------
 
 Alpha MOs
 -- Occupied --
-18.936 -18.930 -18.872 -18.872 -10.102 -10.099 -10.065 -10.060
-10.025 -10.024 -10.024 -10.022 -10.018 -10.017 -10.010 -10.009
 -1.011  -1.004  -0.935  -0.930  -0.815  -0.745  -0.719  -0.680
 -0.668  -0.656  -0.621  -0.584  -0.556  -0.495  -0.488  -0.446
 -0.442  -0.431  -0.412  -0.409  -0.406  -0.389  -0.381  -0.376
 -0.371  -0.367  -0.355  -0.347  -0.346  -0.337  -0.317  -0.310
 -0.307  -0.291  -0.283  -0.254  -0.251  -0.195  -0.183  -0.178
 -0.171  -0.153  -0.149
 -- Virtual --
  0.053   0.070   0.117   0.130   0.232   0.248   0.272   0.315
  0.338   0.345   0.367   0.381   0.400   0.414   0.421   0.427
  0.431   0.433   0.435   0.438   0.443   0.446   0.454   0.457
  0.464   0.476   0.482   0.547   0.557   0.574   0.602   0.649
  0.651   0.757   0.769
 --------------------------------------------------------------
 
          Ground-State Mulliken Net Atomic Charges

     Atom                 Charge (a.u.)
  ----------------------------------------
      1 C                    -0.019157
      2 C                    -0.016851
      3 C                     0.209349
      4 C                     0.211097
      5 O                    -0.165046
      6 O                    -0.212407
      7 O                    -0.168405
      8 O                    -0.207499
      9 C                    -0.128862
     10 C                    -0.128137
     11 C                     0.009169
     12 C                    -0.079019
     13 C                    -0.078498
     14 C                     0.008642
     15 H                     0.092824
     16 H                     0.088603
     17 H                     0.079972
     18 H                     0.087529
     19 H                     0.088958
     20 H                     0.090798
     21 H                     0.090415
     22 H                     0.079305
     23 C                    -0.224309
     24 C                    -0.221818
     25 H                     0.084246
     26 H                     0.079587
     27 H                     0.091618
     28 H                     0.093237
     29 H                     0.084174
     30 H                     0.080482
  ----------------------------------------
  Sum of atomic charges =     0.000000

 -----------------------------------------------------------------
                    Cartesian Multipole Moments
 -----------------------------------------------------------------
    Charge (ESU x 10^10)
                -0.0000
    Dipole Moment (Debye)
         X       1.0289      Y      -0.5302      Z       1.2297
       Tot       1.6888
    Quadrupole Moments (Debye-Ang)
        XX     -77.4999     XY       2.8831     YY     -77.5661
        XZ      -2.3130     YZ       4.0381     ZZ     -89.9934
    Octopole Moments (Debye-Ang^2)
       XXX      29.6899    XXY       7.5446    XYY       3.3678
       YYY      31.4771    XXZ       3.4094    XYZ      -1.3191
       YYZ       8.7787    XZZ       6.9101    YZZ       8.5822
       ZZZ     -10.9108
    Hexadecapole Moments (Debye-Ang^3)
      XXXX   -2031.6681   XXXY      38.4864   XXYY    -674.4572
      XYYY     -27.3607   YYYY   -1839.4997   XXXZ     -10.1367
      XXYZ      13.7361   XYYZ     -10.6725   YYYZ      17.5655
      XXZZ    -399.5447   XYZZ      -8.7354   YYZZ    -380.4649
      XZZZ      -1.5004   YZZZ      -0.9681   ZZZZ    -213.4259
 -----------------------------------------------------------------
 Calculating analytic gradient of the SCF energy
 Gradient of SCF Energy
            1           2           3           4           5           6
    1  -0.0007593  -0.0004154   0.0000364   0.0012632  -0.0005745   0.0000340
    2  -0.0006938  -0.0011491  -0.0010667  -0.0009755  -0.0000012   0.0009316
    3   0.0020289   0.0003633   0.0004412   0.0002679  -0.0003680  -0.0011388
            7           8           9          10          11          12
    1  -0.0007398  -0.0006369   0.0004759   0.0012494  -0.0002383   0.0000060
    2  -0.0003528   0.0007852   0.0013356   0.0002895  -0.0002737   0.0003196
    3  -0.0003491  -0.0010493   0.0008089   0.0005947  -0.0016353   0.0001866
           13          14          15          16          17          18
    1   0.0001096  -0.0000514  -0.0002792  -0.0000935  -0.0001019   0.0000625
    2   0.0001151  -0.0001284  -0.0000390   0.0001734  -0.0000408   0.0000048
    3  -0.0001957   0.0003231  -0.0000525  -0.0000237  -0.0000168  -0.0001123
           19          20          21          22          23          24
    1   0.0000848   0.0002661   0.0000587   0.0000758  -0.0003187   0.0003924
    2   0.0003252   0.0001505  -0.0000267  -0.0000302   0.0000852   0.0001132
    3   0.0000265   0.0000200  -0.0002033   0.0001253  -0.0000268   0.0000211
           25          26          27          28          29          30
    1  -0.0000486  -0.0001460   0.0000275   0.0000382   0.0001577   0.0000653
    2   0.0002248  -0.0000002  -0.0001012  -0.0000630   0.0001718  -0.0000831
    3   0.0000331  -0.0000899   0.0000728  -0.0000429  -0.0001569   0.0001478
 Max gradient component =       2.029E-03
 RMS gradient           =       5.272E-04
 Gradient time:  CPU 18.78 s  wall 0.80 s
 Geometry Optimization Parameters
   NAtoms,    NIC,     NZ,  NCons,   NDum,   NFix, NCnnct, MaxDiis
       30     194       0       2       0       0       0       0

 Cartesian Hessian Update
 Hessian Updated using BFGS Update


** CONSTRAINED OPTIMIZATION IN DELOCALIZED INTERNAL COORDINATES **
   Searching for a Minimum

   Optimization Cycle:   4

                       Coordinates (Angstroms)
     ATOM                X               Y               Z
      1  C         0.3788926397   -0.6892712381   -0.0483040710
      2  C        -0.9696115900   -0.2393905719   -0.0216036028
      3  C         1.4699713569    0.3709278889   -0.3064657767
      4  C        -1.2653750144    1.2693771145   -0.1817044132
      5  O         2.6125431104    0.1266620544    0.5204524860
      6  O         1.3897152369    1.3266212139   -1.1160384307
      7  O        -0.5660110802    1.9850145030    0.8472856252
      8  O        -2.0094896931    1.8126656887   -1.0299022010
      9  C        -0.7667947115    3.4438913869    0.6791235882
     10  C         3.6493752678    1.1564140537    0.2696383646
     11  C         0.6748988676   -2.0793112502    0.0381943089
     12  C        -0.4030494967   -2.9816112119    0.1862359881
     13  C        -1.7355628929   -2.5330819464    0.2252766235
     14  C        -2.0443479795   -1.1591842620    0.1137434495
     15  H        -0.3997389056    3.7897005975   -0.3086857344
     16  H         4.0028738534    1.1313973451   -0.7815427504
     17  H        -2.5510971869   -3.2609928865    0.3354832202
     18  H        -1.8362867279    3.7226438050    0.7738877459
     19  H        -0.1845826675    3.9291515260    1.4840730384
     20  H         4.4880734040    0.9182929886    0.9494097459
     21  H         3.2706315997    2.1758738578    0.4865030843
     22  H        -0.1926405013   -4.0573047058    0.2592113831
     23  C        -3.5061569456   -0.6788674460    0.1235146080
     24  C         2.1150005417   -2.6185697402   -0.0266064586
     25  H         2.6919242065   -2.1114185511   -0.8155131402
     26  H         2.1034774842   -3.6994131232   -0.2328190240
     27  H         2.6370741740   -2.4502289578    0.9304382610
     28  H        -3.7926595582   -0.3021515234   -0.8730590460
     29  H        -3.6456608036    0.1431579941    0.8438806483
     30  H        -4.1791922981   -1.5054134822    0.3950281025
   Point Group: c1    Number of degrees of freedom:    84


   Energy is   -756.808038697

              Constraints and their Current Values
                                        Value     Constraint
   Dihedral:        2   1   3   5      140.200      140.200
   Dihedral:        1   2   4   7      -57.300      -57.300
 Hessian Updated using BFGS Update

   Using Lagrange Multiplier Algorithm


 76 Hessian modes will be used to form the next step
  Hessian Eigenvalues:
    -0.977673   -0.975452    0.032974    0.045000    0.045000    0.045000
     0.045000    0.045001    0.045001    0.045004    0.045005    0.045008
     0.045035    0.045053    0.045130    0.045440    0.046957    0.093093
     0.093977    0.094234    0.094395    0.113853    0.114755    0.116859
     0.116884    0.159551    0.159979    0.159999    0.160333    0.161131
     0.164241    0.224656    0.240525    0.245524    0.249145    0.249517
     0.249644    0.249965    0.249997    0.249998    0.250000    0.250101
     0.250582    0.300972    0.318988    0.321671    0.341630    0.341736
     0.342542    0.342592    0.342906    0.342938    0.343024    0.343298
     0.343467    0.343855    0.344172    0.344417    0.347930    0.348914
     0.349905    0.372935    0.407886    0.409174    0.413480    0.438427
     0.445752    0.452835    0.459199    0.466045    0.535853    0.539087
     0.959555    0.989058    1.022974    1.033535

 Minimum Search - Taking P-RFO Step
 Searching for Lamda that Maximizes Along the Constraint modes Only
 Value Taken    Lamda =   0.00000043
 Searching for Lamda that Minimizes Along All other modes
 Value Taken    Lamda =  -0.00009196
 Step Taken.  Stepsize is  0.037810

                             Maximum     Tolerance    Cnvgd?
         Gradient            0.002936       0.000300      NO
         Displacement        0.013040       0.001200      NO
         Energy change     -0.000359       0.000001      NO


 New Cartesian Coordinates Obtained by Inverse Iteration

 Displacement from previous Coordinates is:  0.065625
 Adding empirical dispersion correction 
 ----------------------------------------------------------------
 Doing -D3(op) with
 s6 =   1.00000
 s8 =   0.78311
 a1 =   0.30000
 a2 =   4.25000
 n  =  10.00000
 -D3 energy without 3body term =     -0.0327682251 hartrees
 ----------------------------------------------------------------
             Standard Nuclear Orientation (Angstroms)
    I     Atom           X                Y                Z
 ----------------------------------------------------------------
    1      C       0.3799417732    -0.6872821945    -0.0565933531
    2      C      -0.9687659245    -0.2371963996    -0.0256485846
    3      C       1.4703128199     0.3732453060    -0.3085548695
    4      C      -1.2672393521     1.2706895972    -0.1800161580
    5      O       2.6136736075     0.1225618526     0.5161801573
    6      O       1.3903083767     1.3343305223    -1.1105642586
    7      O      -0.5657316160     1.9828325778     0.8508058689
    8      O      -2.0148119265     1.8157825853    -1.0227611260
    9      C      -0.7671484073     3.4404852869     0.6798542530
   10      C       3.6475313174     1.1540771595     0.2643303026
   11      C       0.6758729349    -2.0772951738     0.0378386106
   12      C      -0.4021580250    -2.9801349578     0.1842625623
   13      C      -1.7345841631    -2.5319656098     0.2207879840
   14      C      -2.0430835690    -1.1579009198     0.1098250139
   15      H      -0.3953719763     3.7857153956    -0.3064740660
   16      H       3.9982019356     1.1319581004    -0.7878824154
   17      H      -2.5499139842    -3.2598237274     0.3316709476
   18      H      -1.8369595604     3.7193451833     0.7714305745
   19      H      -0.1876882150     3.9251162475     1.4867821758
   20      H       4.4877923363     0.9136467906     0.9409275230
   21      H       3.2682317657     2.1722652035     0.4866107031
   22      H      -0.1918979693    -4.0557018992     0.2585830457
   23      C      -3.5051978152    -0.6781239337     0.1229822987
   24      C       2.1155952079    -2.6182499375    -0.0201607213
   25      H       2.6960627693    -2.1171454448    -0.8102366211
   26      H       2.1050417065    -3.7003850974    -0.2188566986
   27      H       2.6347304495    -2.4434019892     0.9372629425
   28      H      -3.7931422058    -0.2973255326    -0.8716261147
   29      H      -3.6450406542     0.1407735681     0.8468339169
   30      H      -4.1783679469    -1.5053114379     0.3915417291
 ----------------------------------------------------------------
 Molecular Point Group                 C1    NOp =  1
 Largest Abelian Subgroup              C1    NOp =  1
 Nuclear Repulsion Energy =  1118.2017775658 hartrees
 There are       59 alpha and       59 beta electrons
 Applying Cartesian multipole field
    Component          Value
    ---------          -----
     (2,0,0)        1.00000E-11
     (0,2,0)        2.00000E-11
     (0,0,2)       -3.00000E-10
 Nucleus-field energy     =     0.0000000070 hartrees
 Requested basis set is STO-3G
 There are 46 shells and 94 basis functions
 A cutoff of  1.0D-12 yielded    912 shell pairs
 There are      4281 function pairs
 Smallest overlap matrix eigenvalue = 1.83E-01
 Guess MOs from SCF MO coefficient file
 Reading MOs from coefficient file
 Reading MOs from coefficient file
 A restricted hybrid HF-DFT SCF calculation will be
 performed using Pulay DIIS extrapolation
 Exchange:     0.2000 Hartree-Fock + 0.0800 Slater + 0.7200 B88
 Correlation:  0.1900 VWN1RPA + 0.8100 LYP
 Using SG-1 standard quadrature grid
 Dispersion:   Grimme D3
 SCF converges when DIIS error is below 1.0E-08
 Geometry optimization detected.  Setting ReadMinima to 0
 Setting SaveMinima to 0
 -------------------------------------------------------
 OpenMP Integral computing Module                
 Release: version 1.0, May 2013, Q-Chem Inc. Pittsburgh 
 -------------------------------------------------------
 -------------------------------------------------------
 OpenMP BLAS3 based DFT computing Module                
 Release: version 1.0, May 2013, Q-Chem Inc. Pittsburgh 
 -------------------------------------------------------
 ---------------------------------------
  Cycle       Energy         DIIS Error
 ---------------------------------------
    1    -756.8088672900      4.30E-04
    2    -756.8080916863      2.56E-05
    3    -756.8080924385      2.68E-05
    4    -756.8080932073      1.51E-05
    5    -756.8080934445      6.80E-06
    6    -756.8080935003      1.55E-06
    7    -756.8080935035      4.60E-07
    8    -756.8080935037      2.52E-07
    9    -756.8080935038      8.57E-08
   10    -756.8080935038      1.89E-08
   11    -756.8080935038      5.26E-09 Convergence criterion met
 ---------------------------------------
 SCF time:  CPU 63.61 s  wall 2.71 s
 SCF   energy in the final basis set = -756.8080935038
 Total energy in the final basis set = -756.8080935038
 
 --------------------------------------------------------------
 
                    Orbital Energies (a.u.)
 --------------------------------------------------------------
 
 Alpha MOs
 -- Occupied --
-18.936 -18.930 -18.873 -18.873 -10.103 -10.099 -10.065 -10.060
-10.025 -10.024 -10.024 -10.022 -10.018 -10.017 -10.010 -10.009
 -1.012  -1.004  -0.935  -0.931  -0.815  -0.745  -0.719  -0.680
 -0.668  -0.656  -0.621  -0.584  -0.556  -0.494  -0.488  -0.447
 -0.442  -0.432  -0.412  -0.409  -0.406  -0.389  -0.381  -0.376
 -0.371  -0.367  -0.355  -0.347  -0.345  -0.337  -0.317  -0.310
 -0.307  -0.291  -0.283  -0.254  -0.251  -0.195  -0.183  -0.178
 -0.171  -0.154  -0.149
 -- Virtual --
  0.052   0.069   0.117   0.130   0.232   0.249   0.273   0.315
  0.338   0.345   0.367   0.381   0.400   0.414   0.422   0.427
  0.431   0.433   0.436   0.438   0.443   0.446   0.454   0.457
  0.464   0.476   0.482   0.547   0.557   0.574   0.602   0.649
  0.652   0.757   0.769
 --------------------------------------------------------------
 
          Ground-State Mulliken Net Atomic Charges

     Atom                 Charge (a.u.)
  ----------------------------------------
      1 C                    -0.019288
      2 C                    -0.016908
      3 C                     0.209519
      4 C                     0.211382
      5 O                    -0.164973
      6 O                    -0.212541
      7 O                    -0.168254
      8 O                    -0.207442
      9 C                    -0.128939
     10 C                    -0.128179
     11 C                     0.009295
     12 C                    -0.079007
     13 C                    -0.078514
     14 C                     0.008701
     15 H                     0.092756
     16 H                     0.088576
     17 H                     0.080019
     18 H                     0.087575
     19 H                     0.088795
     20 H                     0.090631
     21 H                     0.090430
     22 H                     0.079342
     23 C                    -0.224399
     24 C                    -0.221866
     25 H                     0.084270
     26 H                     0.079539
     27 H                     0.091678
     28 H                     0.093190
     29 H                     0.084146
     30 H                     0.080464
  ----------------------------------------
  Sum of atomic charges =     0.000000

 -----------------------------------------------------------------
                    Cartesian Multipole Moments
 -----------------------------------------------------------------
    Charge (ESU x 10^10)
                -0.0000
    Dipole Moment (Debye)
         X       1.0230      Y      -0.5437      Z       1.2189
       Tot       1.6816
    Quadrupole Moments (Debye-Ang)
        XX     -77.5630     XY       2.8754     YY     -77.6504
        XZ      -2.3214     YZ       4.0067     ZZ     -89.9498
    Octopole Moments (Debye-Ang^2)
       XXX      29.5175    XXY       7.3582    XYY       3.3459
       YYY      30.9726    XXZ       3.3867    XYZ      -1.3380
       YYZ       8.8233    XZZ       6.9062    YZZ       8.5736
       ZZZ     -10.8259
    Hexadecapole Moments (Debye-Ang^3)
      XXXX   -2032.7905   XXXY      38.8756   XXYY    -674.5985
      XYYY     -26.5682   YYYY   -1839.1887   XXXZ     -10.4195
      XXYZ      13.6410   XYYZ     -10.6084   YYYZ      17.2279
      XXZZ    -399.3541   XYZZ      -8.5417   YYZZ    -380.0827
      XZZZ      -1.4679   YZZZ      -1.1859   ZZZZ    -212.4616
 -----------------------------------------------------------------
 Calculating analytic gradient of the SCF energy
 Gradient of SCF Energy
            1           2           3           4           5           6
    1  -0.0000948  -0.0002378  -0.0000751   0.0001548  -0.0000463   0.0001281
    2  -0.0001413  -0.0001161   0.0000741  -0.0001328  -0.0003854   0.0000797
    3   0.0006508   0.0007969  -0.0002918  -0.0008442   0.0003742  -0.0003303
            7           8           9          10          11          12
    1  -0.0001382  -0.0000099   0.0001009   0.0005599  -0.0000821  -0.0001768
    2  -0.0001299   0.0001547   0.0006483   0.0002858  -0.0001336   0.0000407
    3   0.0006595  -0.0001933   0.0001105   0.0000047  -0.0008440   0.0001772
           13          14          15          16          17          18
    1   0.0001387   0.0000702  -0.0001058  -0.0000188  -0.0000018  -0.0000170
    2  -0.0001173  -0.0001533  -0.0000399   0.0000377  -0.0000092   0.0000070
    3  -0.0002646   0.0001710  -0.0000880  -0.0000554   0.0000516   0.0000399
           19          20          21          22          23          24
    1   0.0000259  -0.0000616  -0.0000637  -0.0000113  -0.0002447   0.0001099
    2  -0.0000594  -0.0000220   0.0000090  -0.0000209  -0.0000810  -0.0000946
    3  -0.0000822  -0.0000485  -0.0000346   0.0000376   0.0000908  -0.0000740
           25          26          27          28          29          30
    1   0.0000200   0.0000266  -0.0000051  -0.0000225   0.0000541   0.0000243
    2   0.0001201   0.0000867  -0.0000787  -0.0000754   0.0001369   0.0001103
    3   0.0001146  -0.0000741   0.0000459  -0.0000354  -0.0001710   0.0001064
 Max gradient component =       8.442E-04
 RMS gradient           =       2.369E-04
 Gradient time:  CPU 17.46 s  wall 0.80 s
 Geometry Optimization Parameters
   NAtoms,    NIC,     NZ,  NCons,   NDum,   NFix, NCnnct, MaxDiis
       30     194       0       2       0       0       0       0

 Cartesian Hessian Update
 Hessian Updated using BFGS Update


** CONSTRAINED OPTIMIZATION IN DELOCALIZED INTERNAL COORDINATES **
   Searching for a Minimum

   Optimization Cycle:   5

                       Coordinates (Angstroms)
     ATOM                X               Y               Z
      1  C         0.3799417732   -0.6872821945   -0.0565933531
      2  C        -0.9687659245   -0.2371963996   -0.0256485846
      3  C         1.4703128199    0.3732453060   -0.3085548695
      4  C        -1.2672393521    1.2706895972   -0.1800161580
      5  O         2.6136736075    0.1225618526    0.5161801573
      6  O         1.3903083767    1.3343305223   -1.1105642586
      7  O        -0.5657316160    1.9828325778    0.8508058689
      8  O        -2.0148119265    1.8157825853   -1.0227611260
      9  C        -0.7671484073    3.4404852869    0.6798542530
     10  C         3.6475313174    1.1540771595    0.2643303026
     11  C         0.6758729349   -2.0772951738    0.0378386106
     12  C        -0.4021580250   -2.9801349578    0.1842625623
     13  C        -1.7345841631   -2.5319656098    0.2207879840
     14  C        -2.0430835690   -1.1579009198    0.1098250139
     15  H        -0.3953719763    3.7857153956   -0.3064740660
     16  H         3.9982019356    1.1319581004   -0.7878824154
     17  H        -2.5499139842   -3.2598237274    0.3316709476
     18  H        -1.8369595604    3.7193451833    0.7714305745
     19  H        -0.1876882150    3.9251162475    1.4867821758
     20  H         4.4877923363    0.9136467906    0.9409275230
     21  H         3.2682317657    2.1722652035    0.4866107031
     22  H        -0.1918979693   -4.0557018992    0.2585830457
     23  C        -3.5051978152   -0.6781239337    0.1229822987
     24  C         2.1155952079   -2.6182499375   -0.0201607213
     25  H         2.6960627693   -2.1171454448   -0.8102366211
     26  H         2.1050417065   -3.7003850974   -0.2188566986
     27  H         2.6347304495   -2.4434019892    0.9372629425
     28  H        -3.7931422058   -0.2973255326   -0.8716261147
     29  H        -3.6450406542    0.1407735681    0.8468339169
     30  H        -4.1783679469   -1.5053114379    0.3915417291
   Point Group: c1    Number of degrees of freedom:    84


   Energy is   -756.808093504

              Constraints and their Current Values
                                        Value     Constraint
   Dihedral:        2   1   3   5      140.200      140.200
   Dihedral:        1   2   4   7      -57.300      -57.300
 Hessian Updated using BFGS Update

 72 Hessian modes will be used to form the next step
  Hessian Eigenvalues:
     0.019803    0.044420    0.045000    0.045000    0.045000    0.045000
     0.045001    0.045003    0.045005    0.045007    0.045008    0.045040
     0.045134    0.045440    0.046957    0.092919    0.093876    0.094236
[...]
 H         -0.004  0.003  0.000   -0.003 -0.006  0.006    0.000 -0.132  0.031
 H         -0.006 -0.002  0.006   -0.003 -0.009  0.001    0.165  0.088 -0.069
 H         -0.012  0.002  0.005   -0.013 -0.001 -0.005    0.114 -0.019  0.055
 H         -0.320  0.187  0.023   -0.491 -0.039  0.058    0.007 -0.000  0.000
 C         -0.003 -0.027  0.002   -0.030  0.008  0.004   -0.001 -0.007  0.002
 C          0.022  0.014 -0.003    0.022 -0.023 -0.003   -0.003 -0.001  0.001
 H          0.193 -0.060  0.100    0.051 -0.000  0.027    0.014 -0.014  0.006
 H         -0.238  0.101 -0.026    0.000 -0.015  0.016   -0.002  0.006 -0.024
 H          0.152  0.056 -0.093    0.054 -0.019 -0.030    0.007  0.034 -0.003
 H          0.013 -0.180 -0.075   -0.009  0.049  0.024    0.044  0.027  0.003
 H          0.107 -0.149  0.119   -0.001  0.042 -0.039    0.016  0.019 -0.026
 H         -0.176  0.196 -0.025   -0.018 -0.004 -0.009    0.020 -0.023  0.011
 TransDip  -0.059  0.101 -0.013   -0.044  0.006 -0.018   -0.250 -0.040  0.196

 Mode:                70                     71                     72
 Frequency:      1778.32                3035.16                3040.88
 Force Cnst:     21.8260                 5.6223                 5.6428
 Red. Mass:      11.7140                 1.0359                 1.0357
 IR Active:          YES                    YES                    YES
 IR Intens:      418.911                 24.399                 23.162
 Raman Active:       YES                    YES                    YES
               X      Y      Z        X      Y      Z        X      Y      Z
 C         -0.051 -0.038  0.022   -0.000  0.001 -0.000    0.000 -0.000  0.000
 C          0.043 -0.064  0.011    0.000 -0.000  0.000   -0.001 -0.000  0.000
 C          0.133  0.226 -0.343    0.000 -0.000  0.000   -0.000 -0.000 -0.000
 C         -0.362  0.430 -0.332    0.000  0.000  0.000    0.000 -0.000  0.000
 O         -0.001 -0.014  0.025   -0.000  0.000 -0.000    0.000  0.000  0.000
 O         -0.069 -0.142  0.229   -0.000 -0.000  0.000    0.000  0.000 -0.000
 O          0.026 -0.019  0.024   -0.000 -0.000 -0.000    0.000  0.000 -0.000
 O          0.241 -0.257  0.225    0.000 -0.000  0.000   -0.000  0.000 -0.000
 C         -0.000  0.026 -0.007   -0.000 -0.000  0.000   -0.000  0.000 -0.000
 C          0.015  0.007 -0.006   -0.000  0.000  0.000    0.000  0.000 -0.000
 C          0.008  0.015 -0.003   -0.000  0.000 -0.000   -0.000  0.000  0.000
 C         -0.011  0.004 -0.000   -0.000  0.001 -0.000    0.000 -0.000  0.000
 C          0.014 -0.012 -0.002    0.000 -0.000  0.000   -0.002 -0.000  0.000
 C         -0.026  0.017 -0.003   -0.000  0.000  0.000   -0.000  0.001 -0.000
 H         -0.057 -0.092 -0.063    0.001  0.001 -0.003   -0.002 -0.001  0.006
 H         -0.065 -0.011 -0.051    0.000 -0.000 -0.000   -0.002  0.002  0.005
 H         -0.012  0.038  0.001    0.000 -0.000 -0.000    0.017  0.006 -0.003
 H         -0.098 -0.074 -0.029   -0.003  0.002  0.001    0.005 -0.004 -0.002
 H         -0.005 -0.186  0.045    0.002  0.000  0.002   -0.004 -0.001 -0.003
 H         -0.108 -0.056  0.047   -0.000  0.000 -0.000   -0.002  0.001 -0.003
 H         -0.071  0.013 -0.037    0.000 -0.002  0.000    0.000 -0.005  0.000
 H          0.012  0.002  0.000   -0.000 -0.012  0.001    0.000 -0.001 -0.000
 C         -0.005 -0.007  0.003    0.000 -0.000 -0.000    0.040 -0.028 -0.010
 C          0.001 -0.000 -0.000    0.044 -0.024 -0.007   -0.000  0.000  0.000
 H         -0.019  0.013 -0.011   -0.363 -0.167  0.500    0.003  0.001 -0.004
 H          0.011 -0.009  0.016    0.163  0.470  0.063   -0.001 -0.003 -0.000
 H         -0.013 -0.023  0.009   -0.317 -0.030 -0.483    0.002  0.000  0.004
 H          0.078  0.043  0.000   -0.000  0.001 -0.003   -0.089  0.210 -0.453
 H          0.029  0.035 -0.039    0.001  0.003  0.003    0.067  0.464  0.428
 H          0.041 -0.049  0.020   -0.004 -0.003  0.001   -0.446 -0.341  0.147
 TransDip  -0.246  0.383 -0.471    0.112 -0.109 -0.022    0.142 -0.039 -0.046

 Mode:                73                     74                     75
 Frequency:      3050.34                3050.63                3090.81
 Force Cnst:      5.6431                 5.6446                 6.1942
 Red. Mass:       1.0294                 1.0294                 1.1005
 IR Active:          YES                    YES                    YES
 IR Intens:       16.095                 52.182                 10.652
 Raman Active:       YES                    YES                    YES
               X      Y      Z        X      Y      Z        X      Y      Z
 C         -0.000  0.000 -0.000    0.000 -0.000  0.000   -0.000 -0.000  0.000
 C          0.000  0.000  0.000    0.000  0.000  0.000    0.000 -0.000 -0.000
 C          0.001 -0.001  0.002   -0.001  0.000 -0.002   -0.000 -0.000 -0.000
 C         -0.001 -0.000 -0.001   -0.002 -0.000 -0.001    0.000  0.000 -0.000
 O         -0.002 -0.000 -0.000    0.002  0.000  0.000   -0.000 -0.000  0.000
 O          0.000  0.000 -0.001   -0.000 -0.000  0.001   -0.000 -0.000  0.000
 O          0.001  0.002  0.000    0.001  0.002  0.000   -0.000  0.000  0.000
 O          0.000 -0.000  0.000    0.000 -0.000  0.000   -0.000 -0.000  0.000
 C          0.002  0.026 -0.009    0.002  0.032 -0.011   -0.000 -0.000  0.000
 C         -0.028 -0.014  0.014    0.023  0.012 -0.011    0.000  0.000  0.000
 C          0.000  0.000 -0.000    0.000 -0.000  0.000   -0.000  0.000 -0.001
 C          0.000  0.000 -0.000   -0.000  0.000 -0.000    0.000 -0.001 -0.000
 C          0.000  0.000 -0.000    0.000  0.000 -0.000   -0.000  0.000 -0.000
 C         -0.000  0.000  0.000   -0.000  0.000 -0.000   -0.000 -0.000  0.000
 H         -0.118 -0.067  0.386   -0.144 -0.082  0.471    0.000  0.000 -0.001
 H          0.197 -0.206 -0.409   -0.162  0.169  0.335   -0.000  0.000  0.001
 H         -0.000 -0.000  0.000   -0.001 -0.000  0.000   -0.001 -0.001  0.000
 H          0.310 -0.217 -0.093    0.378 -0.264 -0.113    0.000 -0.000 -0.000
 H         -0.216 -0.046 -0.183   -0.263 -0.056 -0.223    0.000 -0.000  0.000
 H          0.174 -0.092  0.281   -0.142  0.075 -0.230   -0.001  0.001 -0.002
 H         -0.021  0.479 -0.040    0.017 -0.392  0.033   -0.000 -0.004  0.000
 H         -0.000  0.000  0.000   -0.000 -0.001  0.000   -0.000  0.005 -0.001
 C          0.000  0.000  0.000   -0.000  0.001  0.000    0.000  0.000  0.001
 C         -0.000 -0.000 -0.000    0.000  0.000  0.000    0.004  0.019 -0.090
 H         -0.002 -0.001  0.003   -0.001 -0.001  0.002   -0.414 -0.180  0.535
 H          0.002  0.005  0.001   -0.000 -0.001 -0.000   -0.028 -0.083 -0.031
 H          0.001  0.000  0.001   -0.003 -0.000 -0.004    0.405  0.039  0.572
 H         -0.000  0.000 -0.000    0.001 -0.003  0.006   -0.001  0.002 -0.004
 H         -0.000 -0.000 -0.000   -0.001 -0.007 -0.006   -0.000 -0.003 -0.003
 H         -0.001 -0.000  0.000    0.005  0.004 -0.002   -0.001 -0.001  0.000
 TransDip  -0.105  0.073  0.007    0.160  0.167  0.011    0.011  0.036 -0.098

 Mode:                76                     77                     78
 Frequency:      3099.23                3108.04                3112.25
 Force Cnst:      6.2261                 6.2731                 6.2930
 Red. Mass:       1.1002                 1.1022                 1.1027
 IR Active:          YES                    YES                    YES
 IR Intens:       12.773                 17.528                 12.681
 Raman Active:       YES                    YES                    YES
               X      Y      Z        X      Y      Z        X      Y      Z
 C          0.000 -0.000 -0.000   -0.000 -0.000 -0.000   -0.000  0.000 -0.000
 C          0.000 -0.000  0.000   -0.000  0.000 -0.000    0.000  0.000  0.000
 C         -0.000 -0.000  0.000   -0.000  0.000 -0.000    0.000  0.000 -0.000
 C          0.000 -0.000  0.000   -0.000 -0.000 -0.000   -0.001  0.000 -0.000
 O          0.000  0.000  0.000    0.000 -0.000  0.000    0.000 -0.000  0.000
 O          0.000  0.000 -0.000    0.000 -0.000  0.000    0.000 -0.000  0.000
 O         -0.000 -0.000 -0.000    0.000  0.000  0.000    0.000  0.000  0.000
 O          0.000  0.000  0.000    0.000 -0.000  0.000    0.000 -0.000  0.000
 C         -0.000  0.000  0.000    0.000 -0.000 -0.000    0.000 -0.000  0.000
 C         -0.000  0.000  0.000    0.001 -0.001 -0.001    0.000 -0.000 -0.000
 C          0.000  0.000 -0.000   -0.001 -0.000  0.000   -0.000 -0.000  0.000
 C         -0.000 -0.000  0.000    0.000  0.004 -0.000    0.000  0.001 -0.000
 C          0.002  0.001 -0.001   -0.000 -0.000  0.000   -0.004 -0.002  0.001
 C         -0.000 -0.001 -0.000    0.000  0.000 -0.000   -0.000  0.001 -0.000
 H          0.001  0.000 -0.002   -0.001 -0.000  0.002    0.001  0.000 -0.002
 H          0.000 -0.000 -0.001   -0.005  0.005  0.011   -0.000  0.000  0.001
 H         -0.020 -0.007  0.003    0.008  0.003 -0.001    0.045  0.018 -0.007
 H          0.004 -0.003 -0.001   -0.002  0.001  0.000   -0.001  0.001  0.000
 H          0.000  0.000  0.000   -0.001 -0.000 -0.001   -0.001 -0.000 -0.001
 H         -0.000  0.000  0.000   -0.001  0.000 -0.001   -0.000  0.000 -0.000
 H          0.000 -0.001  0.000   -0.001  0.005 -0.001   -0.000  0.002 -0.000
 H          0.001  0.005 -0.000   -0.002 -0.042  0.002   -0.001 -0.009  0.001
 C         -0.037 -0.044 -0.072   -0.000  0.000 -0.000    0.036  0.064 -0.056
 C          0.000  0.000 -0.000   -0.053 -0.074 -0.018    0.000  0.000 -0.000
 H         -0.003 -0.001  0.004    0.162  0.062 -0.240   -0.001 -0.000  0.001
 H         -0.001 -0.003 -0.001    0.265  0.808  0.110   -0.001 -0.003 -0.001
 H          0.002  0.000  0.002    0.221  0.003  0.342    0.001  0.000  0.001
 H          0.093 -0.248  0.465    0.001 -0.002  0.004    0.138 -0.281  0.598
 H          0.066  0.559  0.502    0.000  0.001  0.001   -0.005 -0.078 -0.100
 H          0.282  0.209 -0.111    0.000  0.000 -0.000   -0.559 -0.416  0.180
 TransDip  -0.060 -0.071 -0.067   -0.059 -0.119 -0.019    0.083  0.064 -0.046

 Mode:                79                     80                     81
 Frequency:      3122.70                3125.60                3156.35
 Force Cnst:      6.3588                 6.3733                 6.4943
 Red. Mass:       1.1068                 1.1073                 1.1064
 IR Active:          YES                    YES                    YES
 IR Intens:       18.070                 13.676                 13.078
 Raman Active:       YES                    YES                    YES
               X      Y      Z        X      Y      Z        X      Y      Z
 C          0.000 -0.000 -0.000   -0.000 -0.000  0.000    0.000 -0.000 -0.000
 C          0.000  0.000  0.000    0.000 -0.000 -0.000    0.000 -0.000  0.000
 C         -0.000  0.000  0.000    0.000  0.000 -0.000   -0.000  0.000 -0.000
 C         -0.000 -0.000 -0.000    0.000 -0.000  0.000   -0.000  0.001 -0.000
 O         -0.000  0.000  0.000   -0.000 -0.000  0.000    0.000  0.000  0.000
 O         -0.000  0.000  0.000   -0.000 -0.000  0.000    0.000 -0.000  0.000
 O          0.000  0.000  0.000   -0.000 -0.000  0.000    0.000 -0.000  0.000
 O          0.000  0.000  0.000   -0.000  0.000  0.000    0.000 -0.000  0.000
 C          0.002 -0.001 -0.002    0.061 -0.024 -0.069   -0.069  0.007 -0.064
 C          0.024 -0.081 -0.043   -0.001  0.002  0.002   -0.000 -0.000 -0.000
 C         -0.000 -0.000  0.000    0.000  0.000  0.000   -0.000 -0.000  0.000
 C          0.000 -0.000  0.000   -0.000 -0.000  0.000    0.000  0.000 -0.000
 C         -0.000  0.000 -0.000    0.000 -0.000  0.000   -0.000 -0.000  0.000
 C         -0.000 -0.000  0.000   -0.000  0.000  0.000   -0.000  0.000  0.000
 H         -0.005 -0.003  0.018   -0.183 -0.120  0.657   -0.101 -0.046  0.280
 H         -0.272  0.273  0.581    0.009 -0.009 -0.018   -0.002  0.002  0.004
 H          0.000  0.000 -0.000   -0.000 -0.000  0.000    0.002  0.001 -0.000
 H         -0.019  0.013  0.005   -0.572  0.399  0.153    0.250 -0.180 -0.091
 H         -0.003 -0.000 -0.003    0.029 -0.001  0.002    0.672  0.142  0.570
 H          0.016 -0.022  0.010   -0.002  0.001 -0.003    0.002 -0.001  0.003
 H         -0.030  0.705 -0.079    0.001 -0.020  0.002    0.000  0.003 -0.001
 H          0.000  0.001 -0.000    0.000  0.001 -0.000   -0.000 -0.001  0.000
 C         -0.000 -0.000  0.000   -0.000 -0.000 -0.000    0.000  0.000 -0.000
 C          0.001  0.001  0.000    0.000  0.000  0.000   -0.000 -0.000 -0.000
 H         -0.004 -0.001  0.006   -0.001 -0.000  0.001    0.000  0.000 -0.000
 H         -0.003 -0.010 -0.001   -0.001 -0.002 -0.000    0.000  0.000  0.000
 H         -0.002  0.000 -0.004   -0.000  0.000 -0.001    0.000 -0.000  0.000
 H         -0.000  0.000 -0.001    0.000 -0.001  0.003    0.000 -0.000  0.001
 H          0.000  0.001  0.001    0.000  0.003  0.003   -0.000 -0.001 -0.001
 H          0.002  0.001 -0.001    0.001  0.001 -0.000   -0.001 -0.001  0.001
 TransDip   0.035 -0.115 -0.064    0.069 -0.041 -0.087   -0.089 -0.015 -0.073

 Mode:                82                     83                     84
 Frequency:      3158.15                3160.53                3177.59
 Force Cnst:      6.5014                 6.3984                 6.5119
 Red. Mass:       1.1064                 1.0872                 1.0946
 IR Active:          YES                    YES                    YES
 IR Intens:       12.712                  8.238                 20.498
 Raman Active:       YES                    YES                    YES
               X      Y      Z        X      Y      Z        X      Y      Z
 C         -0.000 -0.000  0.000   -0.000  0.000 -0.000   -0.000  0.001 -0.000
 C         -0.000 -0.000  0.000   -0.001  0.000  0.000    0.001  0.000 -0.000
 C          0.001  0.001 -0.001    0.000  0.000  0.000    0.000  0.000 -0.000
 C          0.000 -0.000  0.000    0.000 -0.000  0.000   -0.000  0.000 -0.000
 O          0.000 -0.000  0.000   -0.000  0.000 -0.000   -0.000 -0.000 -0.000
 O         -0.000 -0.000  0.000   -0.000 -0.000  0.000   -0.000 -0.000  0.000
 O         -0.000  0.000  0.000    0.000  0.000  0.000   -0.000 -0.000 -0.000
 O         -0.000  0.000 -0.000   -0.000  0.000 -0.000    0.000 -0.000  0.000
 C          0.000 -0.000 -0.000   -0.000 -0.000 -0.000    0.000  0.000  0.000
 C         -0.030  0.036 -0.083    0.000 -0.000  0.001    0.000 -0.000  0.000
 C         -0.000  0.000  0.000    0.002 -0.000 -0.000    0.003  0.000 -0.000
 C         -0.000 -0.001  0.000   -0.009 -0.059  0.003   -0.005 -0.063  0.003
 C          0.000  0.000 -0.000    0.054  0.027 -0.007   -0.057 -0.024  0.007
 C          0.000 -0.000 -0.000    0.001 -0.002  0.000   -0.001  0.003 -0.000
 H         -0.000 -0.000  0.001   -0.000  0.000  0.000   -0.000 -0.000  0.000
 H         -0.122  0.132  0.232    0.001 -0.001 -0.002    0.000 -0.000 -0.000
 H         -0.005 -0.003  0.001   -0.641 -0.295  0.086    0.630  0.284 -0.084
 H         -0.003  0.002  0.001    0.001 -0.000 -0.000    0.000 -0.000 -0.000
 H         -0.002 -0.001 -0.002    0.002  0.000  0.001   -0.001 -0.000 -0.001
 H          0.455 -0.242  0.735   -0.005  0.003 -0.008   -0.001  0.001 -0.002
 H          0.012 -0.316  0.012   -0.000  0.003 -0.000   -0.000 -0.000  0.000
 H          0.001  0.009 -0.000    0.080  0.690 -0.037    0.076  0.706 -0.038
 C          0.000  0.000 -0.000    0.003  0.003 -0.001   -0.002 -0.002  0.001
 C          0.000  0.000 -0.000   -0.001 -0.003 -0.000   -0.001 -0.002 -0.000
 H         -0.000  0.000  0.000    0.004  0.003 -0.006    0.001  0.002 -0.002
 H         -0.000 -0.000  0.000    0.009  0.034  0.005    0.006  0.025  0.004
 H         -0.000 -0.000  0.000    0.003  0.000  0.005    0.000  0.000  0.002
 H          0.000 -0.000  0.000    0.002 -0.004  0.010   -0.000  0.002 -0.005
 H         -0.000 -0.000 -0.000   -0.001 -0.007 -0.007    0.002  0.003  0.003
 H         -0.001 -0.000  0.000   -0.036 -0.024  0.012    0.026  0.017 -0.008
 TransDip  -0.056  0.034 -0.093    0.076 -0.051 -0.006   -0.085 -0.117  0.015

 STANDARD THERMODYNAMIC QUANTITIES AT   298.15 K  AND     1.00 ATM

   This Molecule has  0 Imaginary Frequencies
   Zero point vibrational energy:      150.389 kcal/mol

   Atom    1 Element C  Has Mass   12.00000
   Atom    2 Element C  Has Mass   12.00000
   Atom    3 Element C  Has Mass   12.00000
   Atom    4 Element C  Has Mass   12.00000
   Atom    5 Element O  Has Mass   15.99491
   Atom    6 Element O  Has Mass   15.99491
   Atom    7 Element O  Has Mass   15.99491
   Atom    8 Element O  Has Mass   15.99491
   Atom    9 Element C  Has Mass   12.00000
   Atom   10 Element C  Has Mass   12.00000
   Atom   11 Element C  Has Mass   12.00000
   Atom   12 Element C  Has Mass   12.00000
   Atom   13 Element C  Has Mass   12.00000
   Atom   14 Element C  Has Mass   12.00000
   Atom   15 Element H  Has Mass    1.00783
   Atom   16 Element H  Has Mass    1.00783
   Atom   17 Element H  Has Mass    1.00783
   Atom   18 Element H  Has Mass    1.00783
   Atom   19 Element H  Has Mass    1.00783
   Atom   20 Element H  Has Mass    1.00783
   Atom   21 Element H  Has Mass    1.00783
   Atom   22 Element H  Has Mass    1.00783
   Atom   23 Element C  Has Mass   12.00000
   Atom   24 Element C  Has Mass   12.00000
   Atom   25 Element H  Has Mass    1.00783
   Atom   26 Element H  Has Mass    1.00783
   Atom   27 Element H  Has Mass    1.00783
   Atom   28 Element H  Has Mass    1.00783
   Atom   29 Element H  Has Mass    1.00783
   Atom   30 Element H  Has Mass    1.00783
   Molecular Mass:   222.089260 amu
   Principal axes and moments of inertia in amu*Bohr^2:
                             1           2           3
    Eigenvalues --     2853.89119  3197.17831  5563.52373
          X               0.99994     0.01121     0.00103
          Y              -0.01122     0.99990     0.00803
          Z              -0.00094    -0.00804     0.99997
   Rotational Symmetry Number is   1
   The Molecule is an Asymmetric Top
   Translational Enthalpy:        0.889 kcal/mol
   Rotational Enthalpy:           0.889 kcal/mol
   Vibrational Enthalpy:        159.270 kcal/mol
   gas constant (RT):             0.592 kcal/mol
   Translational Entropy:        42.096  cal/mol.K
   Rotational Entropy:           32.295  cal/mol.K
   Vibrational Entropy:          59.377  cal/mol.K

   Total Enthalpy:              161.640 kcal/mol
   Total Entropy:               133.769  cal/mol.K
Archival summary:
1\1\nid03064\FREQ\ProcedureUnspecified\BasisUnspecified\41214\junteng\WedOct421:29:152017WedOct421:29:152017\0\\#,FREQ,ProcedureUnspecified,BasisUnspecified,\\0,1\O\C,1,1.35013\O,2,1.2072,1,123.435\C,1,1.4388,2,115.908,3,-7.76957,0\H,4,1.08774,1,105.4,2,178.536,0\H,4,1.09061,1,110.567,2,58.8666,0\H,4,1.09119,1,109.918,2,-62.1121,0\C,2,1.49613,1,111.43,3,-178.983,0\C,8,1.40688,2,120.138,1,-44.4843,0\C,9,1.40386,8,121.013,2,-178.769,0\C,10,1.39568,9,117.619,8,-0.906277,0\H,11,1.08505,10,119.102,9,179.721,0\C,11,1.38887,10,121.478,9,0.209318,0\H,13,1.08487,11,119.418,10,-179.767,0\C,13,1.39599,11,121.611,10,0.81519,0\C,9,1.5009,8,119.492,2,-4.57523,0\O,16,1.20751,9,124.326,8,-59.9488,0\O,16,1.34527,9,111.836,8,121.874,0\C,18,1.43973,16,115.768,9,178.582,0\H,19,1.08761,18,105.435,16,179.158,0\H,19,1.09083,18,110.267,16,59.6248,0\H,19,1.09117,18,110.499,16,-61.153,0\C,15,1.51023,13,119.39,11,179.206,0\H,23,1.09161,15,110.067,13,8.68447,0\H,23,1.09163,15,111.058,13,-111.782,0\H,23,1.09267,15,112.008,13,129.017,0\C,10,1.51064,9,122.406,8,177.851,0\H,27,1.09138,10,110.382,9,-167.072,0\H,27,1.09283,10,111.239,9,72.6508,0\H,27,1.09317,10,111.614,9,-47.2098,0\\\@

 Total job time:  8437.92s(wall), 47346.32s(cpu) 
 Wed Oct  4 21:29:15 2017

        *************************************************************
        *                                                           *
        *  Thank you very much for using Q-Chem.  Have a nice day.  *
        *                                                           *
        *************************************************************


