nid03065 10.128.12
Q-Chem Developer Version! Running on 10.128.12.*
                  Welcome to Q-Chem
     A Quantum Leap Into The Future Of Chemistry


 Q-Chem 5.0, Q-Chem, Inc., Pleasanton, CA (2017)

 Yihan Shao,  Zhengting Gan,  E. Epifanovsky,  A. T. B. Gilbert,  M. Wormit,  
 J. Kussmann,  A. W. Lange,  A. Behn,  Jia Deng,  Xintian Feng,  D. Ghosh,  
 M. Goldey,  P. R. Horn,  L. D. Jacobson,  I. Kaliman,  T. Kus,  A. Landau,  
 Jie Liu,  E. I. Proynov,  R. M. Richard,  R. P. Steele,  E. J. Sundstrom,  
 H. L. Woodcock III,  P. M. Zimmerman,  D. Zuev,  B. Albrecht,  E. Alguire,  
 S. A. Baeppler,  Z. Benda,  Y. A. Bernard,  E. J. Berquist,  K. B. Bravaya,  
 D. Casanova,  Chun-Min Chang,  Yunqing Chen,  A. Chien,  K. D. Closser,  
 M. P. Coons,  S. Dasgupta,  M. Diedenhofen,  Hainam Do,  R. G. Edgar,  
 Po-Tung Fang,  S. Fatehi,  Qingguo Feng,  Qinghui Ge,  A. Ghysels,  
 J. Gomes,  J. Gonthier,  A. Gunina,  M. W. D. Hanson-Heine,  
 P. H. P. Harbach,  A. W. Hauser,  J. E. Herr,  E. G. Hohenstein,  
 Z. C. Holden,  Kerwin Hui,  T.-C. Jagau,  Hyunjun Ji,  B. Kaduk,  
 K. Khistyaev,  Jaehoon Kim,  P. Klunzinger,  K. Koh,  D. Kosenkov,  
 T. Kowalczyk,  C. M. Krauter,  A. Kunitsa,  Ka Un Lao,  A. Laurent,  
 K. V. Lawler,  Joonho Lee,  D. Lefrancois,  S. Lehtola,  D. S. Levine,  
 Yi-Pei Li,  You-Sheng Lin,  Fenglai Liu,  E. Livshits,  A. Luenser,  
 P. Manohar,  E. Mansoor,  S. F. Manzer,  Shan-Ping Mao,  Yuezhi Mao,  
 N. Mardirossian,  A. V. Marenich,  L. A. Martinez-Martinez,  S. A. Maurer,  
 N. J. Mayhall,  S. C. McKenzie,  J.-M. Mewes,  A. F. Morrison,  K. Nanda,  
 T. S. Nguyen-Beck,  R. Olivares-Amaya,  J. A. Parkhill,  T. M. Perrine,  
 F. Plasser,  S. Prager,  A. Prociuk,  D. R. Rehn,  F. Rob,  M. Schneider,  
 N. Sergueev,  S. M. Sharada,  S. Sharma,  D. W. Small,  T. Stauch,  
 T. Stein,  Yu-Chuan Su,  A. J. W. Thom,  T. Tsuchimochi,  L. Vogt,  
 O. Vydrov,  M. A. Watson,  J. Wenzel,  M. de Wergifosse,  T. A. Wesolowski,  
 A. White,  J. Witte,  A. Yamada,  Jun Yang,  K. Yao,  S. Yeganeh,  
 S. R. Yost,  Zhi-Qiang You,  A. Zech,  Igor Ying Zhang,  Xing Zhang,  
 Yan Zhao,  Ying Zhu,  B. R. Brooks,  G. K. L. Chan,  C. J. Cramer,  
 M. S. Gordon,  W. J. Hehre,  A. Klamt,  M. W. Schmidt,  C. D. Sherrill,  
 D. G. Truhlar,  A. Aspuru-Guzik,  R. Baer,  A. T. Bell,  N. A. Besley,  
 Jeng-Da Chai,  A. Dreuw,  B. D. Dunietz,  T. R. Furlani,  Chao-Ping Hsu,  
 Yousung Jung,  Jing Kong,  D. S. Lambrecht,  WanZhen Liang,  C. Ochsenfeld,  
 V. A. Rassolov,  L. V. Slipchenko,  J. E. Subotnik,  T. Van Voorhis,  
 J. M. Herbert,  A. I. Krylov,  P. M. W. Gill,  M. Head-Gordon

 Contributors to earlier versions of Q-Chem not listed above: 
 R. D. Adamson,  B. Austin,  J. Baker,  G. J. O. Beran,  K. Brandhorst,  
 S. T. Brown,  E. F. C. Byrd,  A. K. Chakraborty,  C.-L. Cheng,  
 Siu Hung Chien,  D. M. Chipman,  D. L. Crittenden,  H. Dachsel,  
 R. A. DiStasio Jr.,  R. J. Doerksen,  A. D. Dutoi,  L. Fusti-Molnar,  
 W. A. Goddard III,  A. Golubeva-Zadorozhnaya,  S. R. Gwaltney,  G. Hawkins,  
 A. Heyden,  S. Hirata,  G. Kedziora,  F. J. Keil,  C. Kelley,  Jihan Kim,  
 R. A. King,  R. Z. Khaliullin,  P. P. Korambath,  W. Kurlancheek,  
 A. M. Lee,  M. S. Lee,  S. V. Levchenko,  Ching Yeh Lin,  D. Liotard,  
 R. C. Lochan,  I. Lotan,  P. E. Maslen,  N. Nair,  D. P. O'Neill,  
 D. Neuhauser,  E. Neuscamman,  C. M. Oana,  R. Olson,  B. Peters,  
 R. Peverati,  P. A. Pieniazek,  Y. M. Rhee,  J. Ritchie,  M. A. Rohrdanz,  
 E. Rosta,  N. J. Russ,  H. F. Schaefer III,  N. E. Schultz,  N. Shenvi,  
 A. C. Simmonett,  A. Sodt,  D. Stuck,  K. S. Thanthiriwatte,  V. Vanovschi,  
 Tao Wang,  A. Warshel,  C. F. Williams,  Q. Wu,  X. Xu,  W. Zhang

 Please cite Q-Chem as follows:
 Y. Shao et al., Mol. Phys. 113, 184-215 (2015)
 DOI: 10.1080/00268976.2014.952696

 Q-Chem 5.0.0 for Intel X86 EM64T Linux

 Parts of Q-Chem use Armadillo 5.200.1 (Boston Tea Smuggler).
 http://arma.sourceforge.net/

 Q-Chem begins on Wed Oct  4 18:26:25 2017  

Host: nid03065
0

     Scratch files written to /global/cscratch1/sd/junteng/scratch/18/opt_11n11oo.save//

Checking the input file for inconsistencies... 	...done.

--------------------------------------------------------------
User input:
--------------------------------------------------------------
$molecule
0  1
C    0.304  -2.425   0.241
C   -0.187  -2.670   1.539
C    0.664  -1.037  -0.131
C   -0.223  -1.586   2.547
O    1.892  -1.027  -0.706
O   -0.050  -0.071   0.073
O    1.036  -1.102   2.698
O   -1.208  -1.281   3.197
C    1.131  -0.051   3.659
C    2.346   0.277  -1.069
C    0.337  -3.468  -0.713
C   -0.078  -4.750  -0.324
C   -0.556  -4.992   0.965
C   -0.619  -3.961   1.912
H    0.496   0.792   3.371
H    1.683   0.717  -1.820
H   -0.885  -5.997   1.223
H    0.862  -0.417   4.655
H    2.169   0.291   3.685
H    3.345   0.180  -1.503
H    2.413   0.921  -0.186
H   -0.050  -5.576  -1.034
C   -1.153  -4.262   3.286
C    0.800  -3.263  -2.130
H    0.377  -2.346  -2.553
H    0.472  -4.085  -2.776
H    1.893  -3.221  -2.170
H   -2.134  -3.796   3.422
H   -0.464  -3.904   4.057
H   -1.273  -5.340   3.441
$end


$opt
CONSTRAINT
tors    2    1    3    5    135.2
tors    1    2    4    7    -57.3
ENDCONSTRAINT
$end

$rem
JOBTYPE                   OPT
METHOD                    B3LYP
DFT_D                     D3_OP
BASIS                     STO-3G
GEOM_OPT_MAX_CYCLES       500
SYMMETRY                  False
THRESH                    12
SCF_CONVERGENCE           8
MAX_SUB_FILE_NUM          128
MEM_STATIC                400
MEM_TOTAL                 4000
$end

--------------------------------------------------------------
 Adding empirical dispersion correction 
 ----------------------------------------------------------------
 Doing -D3(op) with
 s6 =   1.00000
 s8 =   0.78311
 a1 =   0.30000
 a2 =   4.25000
 n  =  10.00000
 -D3 energy without 3body term =     -0.0331083887 hartrees
 ----------------------------------------------------------------
             Standard Nuclear Orientation (Angstroms)
    I     Atom           X                Y                Z
 ----------------------------------------------------------------
    1      C       0.4125011125    -0.6355076896    -0.1241194854
    2      C      -0.9199718424    -0.1775825584    -0.0970935988
    3      C       1.4909203662     0.3367582974    -0.4177838583
    4      C      -1.2227722681     1.2652754643    -0.2345295060
    5      O       2.4794071129     0.2069212582     0.5013164054
    6      O       1.4599007613     1.1281261782    -1.3437118584
    7      O      -0.5671603921     1.9341318938     0.7477851812
    8      O      -2.0192894914     1.7300109239    -1.0316062059
    9      C      -0.7911410252     3.3435492204     0.7249274575
   10      C       3.5538033154     1.1302705963     0.3241165186
   11      C       0.6908325096    -2.0150972909     0.0112251320
   12      C      -0.3765806243    -2.9000235158     0.2224235647
   13      C      -1.6950140119    -2.4427633611     0.2572883515
   14      C      -1.9865449822    -1.0814074782     0.0977300441
   15      H      -0.4624112412     3.7697958433    -0.2274740049
   16      H       4.0453282984     0.9641147078    -0.6391930950
   17      H      -2.4970302573    -3.1634910569     0.4061222542
   18      H      -1.8474376543     3.5666794906     0.9059890877
   19      H      -0.2002982988     3.7931790170     1.5273126011
   20      H       4.2838919982     0.9582831261     1.1198280401
   21      H       3.1925407862     2.1609409489     0.4023597877
   22      H      -0.1906002296    -3.9666582263     0.3443320837
   23      C      -3.4222635693    -0.6326602424     0.1288918324
   24      C       2.0849910947    -2.5767940219    -0.0602005081
   25      H       2.6449814024    -2.1343937269    -0.8905256458
   26      H       2.0671057384    -3.6580417916    -0.2367433488
   27      H       2.6144009167    -2.3996751371     0.8812702249
   28      H      -3.7454857248    -0.3261374563    -0.8709002559
   29      H      -3.5543120453     0.1968300833     0.8302013215
   30      H      -4.0860980650    -1.4390523749     0.4598971058
 ----------------------------------------------------------------
 Molecular Point Group                 C1    NOp =  1
 Largest Abelian Subgroup              C1    NOp =  1
 Nuclear Repulsion Energy =  1141.1730988225 hartrees
 There are       59 alpha and       59 beta electrons
 Requested basis set is STO-3G
 There are 46 shells and 94 basis functions

 Total QAlloc Memory Limit   4000 MB
 Mega-Array Size       392 MB
 MEM_STATIC part       400 MB
 A cutoff of  1.0D-12 yielded    921 shell pairs
 There are      4311 function pairs
 
 -------------------------------------------------------
 OpenMP Integral Computing Module                       
 Release: version 1.0, May 2013, Q-Chem Inc. Pittsburgh 
 -------------------------------------------------------
 Integral Job Info:
 Integral job number is                      11
 Integral operator is                         1
 short-range coefficients                     0
 long-range coefficients              100000000
 Omega coefficients                           0
 if combine SR and LR in K                    0
 Integral screening is                        0
 Integral computing path is                   2
 max size of driver memory is            800000
 size of driver memory is                 45569
 size of scratch memory is               945100
 max col of scratch BK array                289
 max len of scratch array in speh3           22
 max len of scratch index in speh4            8
 max int batch size is                      520
 min int batch size is                       52
 fixed nKL is                                52
 max L of basis functions is                  1
 order of int derivative is                   0
 number of shells is                         46
 number of basis is                          94
 number of cartesian basis is                94
 number of contracted shell pairs           921
 number of primitive shell pairs           4930
 maxK2 (contraction) of shell pair            9
 max number of K2 of shell pair               1
 max number of CS2 of shell pair            151
 max number of PS2 of shell pair            660
 mem total for path MDJ                   29642
 -------------------------------------------------------
 Smallest overlap matrix eigenvalue = 1.76E-01

 Scale SEOQF with 1.000000e-01/1.000000e-01/1.000000e+00

 Standard Electronic Orientation quadrupole field applied
 Nucleus-field energy     =    -0.0000000013 hartrees
 Guess from superposition of atomic densities
 Warning:  Energy on first SCF cycle will be non-variational
 A restricted hybrid HF-DFT SCF calculation will be
 performed using Pulay DIIS extrapolation
 Exchange:     0.2000 Hartree-Fock + 0.0800 Slater + 0.7200 B88
 Correlation:  0.1900 VWN1RPA + 0.8100 LYP
 Using SG-1 standard quadrature grid
 Dispersion:   Grimme D3
 SCF converges when DIIS error is below 1.0E-08
 -------------------------------------------------------
 OpenMP Integral computing Module                
 Release: version 1.0, May 2013, Q-Chem Inc. Pittsburgh 
 -------------------------------------------------------
 -------------------------------------------------------
 OpenMP BLAS3 based DFT computing Module                
 Release: version 1.0, May 2013, Q-Chem Inc. Pittsburgh 
 -------------------------------------------------------
 ---------------------------------------
  Cycle       Energy         DIIS Error
 ---------------------------------------
    1    -756.4854003916      1.14E-01
    2    -756.5487627268      1.27E-02
    3    -755.4707920431      3.40E-02
    4    -756.7513971877      4.53E-03
    5    -756.7739817500      1.66E-03
    6    -756.7772694929      3.92E-04
    7    -756.7774746141      1.05E-04
    8    -756.7774914576      3.18E-05
    9    -756.7774924185      1.90E-05
   10    -756.7774928824      3.60E-06
   11    -756.7774928987      8.95E-07
   12    -756.7774928997      2.23E-07
   13    -756.7774928998      8.13E-08
   14    -756.7774928998      3.01E-08
   15    -756.7774928998      6.43E-09 Convergence criterion met
 ---------------------------------------
 SCF time:  CPU 79.31 s  wall 3.53 s
 SCF   energy in the final basis set = -756.7774928998
 Total energy in the final basis set = -756.7774928998
 
 --------------------------------------------------------------
 
                    Orbital Energies (a.u.)
 --------------------------------------------------------------
 
 Alpha MOs
 -- Occupied --
-18.949 -18.946 -18.868 -18.867 -10.115 -10.112 -10.075 -10.072
-10.020 -10.019 -10.017 -10.016 -10.015 -10.013 -10.004 -10.003
 -1.048  -1.042  -0.958  -0.955  -0.820  -0.752  -0.730  -0.692
 -0.683  -0.672  -0.622  -0.590  -0.562  -0.506  -0.500  -0.461
 -0.453  -0.447  -0.432  -0.425  -0.415  -0.398  -0.392  -0.385
 -0.382  -0.369  -0.357  -0.350  -0.346  -0.339  -0.326  -0.321
 -0.309  -0.293  -0.287  -0.250  -0.248  -0.197  -0.184  -0.181
 -0.180  -0.152  -0.148
 -- Virtual --
  0.062   0.077   0.130   0.142   0.242   0.288   0.309   0.353
  0.372   0.389   0.394   0.406   0.410   0.436   0.440   0.445
  0.446   0.452   0.455   0.457   0.460   0.468   0.471   0.475
  0.484   0.492   0.504   0.577   0.590   0.602   0.627   0.702
  0.709   0.786   0.800
 --------------------------------------------------------------
 
          Ground-State Mulliken Net Atomic Charges

     Atom                 Charge (a.u.)
  ----------------------------------------
      1 C                    -0.020315
      2 C                    -0.018928
      3 C                     0.235748
      4 C                     0.236538
      5 O                    -0.181275
      6 O                    -0.229574
      7 O                    -0.184253
      8 O                    -0.224009
      9 C                    -0.127614
     10 C                    -0.126341
     11 C                     0.009809
     12 C                    -0.080336
     13 C                    -0.080433
     14 C                     0.010066
     15 H                     0.096676
     16 H                     0.093049
     17 H                     0.079304
     18 H                     0.092734
     19 H                     0.094731
     20 H                     0.096134
     21 H                     0.093638
     22 H                     0.078551
     23 C                    -0.231252
     24 C                    -0.229602
     25 H                     0.082934
     26 H                     0.080995
     27 H                     0.092446
     28 H                     0.095901
     29 H                     0.084121
     30 H                     0.080559
  ----------------------------------------
  Sum of atomic charges =    -0.000000

 -----------------------------------------------------------------
                    Cartesian Multipole Moments
 -----------------------------------------------------------------
    Charge (ESU x 10^10)
                -0.0000
    Dipole Moment (Debye)
         X       1.2962      Y      -0.1010      Z       1.7364
       Tot       2.1692
    Quadrupole Moments (Debye-Ang)
        XX     -77.8750     XY       2.5850     YY     -77.1677
        XZ      -2.0609     YZ       4.6538     ZZ     -90.4602
    Octopole Moments (Debye-Ang^2)
       XXX      31.3988    XXY       6.2045    XYY       3.2220
       YYY      33.1978    XXZ       7.9534    XYZ      -0.8801
       YYZ      11.8410    XZZ       4.7944    YZZ       7.2816
       ZZZ      -1.5429
    Hexadecapole Moments (Debye-Ang^3)
      XXXX   -1962.7992   XXXY      47.3519   XXYY    -646.4083
      XYYY     -13.2508   YYYY   -1735.6892   XXXZ      -1.7022
      XXYZ      17.5216   XYYZ      -9.7525   YYYZ      13.7299
      XXZZ    -388.8525   XYZZ      -6.2694   YYZZ    -361.9148
      XZZZ       9.5993   YZZZ       1.8299   ZZZZ    -235.9432
 -----------------------------------------------------------------
 Calculating analytic gradient of the SCF energy
 Gradient of SCF Energy
            1           2           3           4           5           6
    1   0.0213257  -0.0080944   0.0219533   0.0038728  -0.0213627  -0.0049191
    2   0.0280999   0.0335195   0.0130442   0.0252676   0.0316096  -0.0513407
    3  -0.0060298  -0.0071836  -0.0015978   0.0068760  -0.0526758   0.0521430
            7           8           9          10          11          12
    1  -0.0435928   0.0411236   0.0034144  -0.0167356   0.0111495   0.0041761
    2   0.0026304  -0.0357710  -0.0228437  -0.0142570   0.0022105   0.0017290
    3  -0.0483522   0.0435054  -0.0000375   0.0032563  -0.0024467   0.0009026
           13          14          15          16          17          18
    1  -0.0031860  -0.0059502   0.0008837  -0.0064515   0.0072787   0.0118702
    2   0.0033800   0.0100336  -0.0081916  -0.0041587   0.0033181  -0.0067733
    3  -0.0007584   0.0006345   0.0113512   0.0120997  -0.0015351   0.0021588
           19          20          21          22          23          24
    1  -0.0064546  -0.0051214   0.0007536  -0.0036346   0.0171200  -0.0151163
    2  -0.0018106   0.0037889  -0.0128389   0.0064391  -0.0027253   0.0083908
    3  -0.0085387  -0.0084767   0.0036917  -0.0000443  -0.0037533   0.0048797
           25          26          27          28          29          30
    1  -0.0053769   0.0027466  -0.0067816   0.0030568   0.0020212   0.0000315
    2  -0.0049794   0.0040361  -0.0027634  -0.0060541  -0.0076737   0.0046841
    3   0.0005309  -0.0013090  -0.0034106   0.0044744  -0.0000072  -0.0003474
 Max gradient component =       5.268E-02
 RMS gradient           =       1.699E-02
 Gradient time:  CPU 21.15 s  wall 1.38 s
 Geometry Optimization Parameters
   NAtoms,    NIC,     NZ,  NCons,   NDum,   NFix, NCnnct, MaxDiis
       30     194       0       2       0       0       0       0


** CONSTRAINED OPTIMIZATION IN DELOCALIZED INTERNAL COORDINATES **
   Searching for a Minimum

   Optimization Cycle:   1

                       Coordinates (Angstroms)
     ATOM                X               Y               Z
      1  C         0.4125011125   -0.6355076896   -0.1241194854
      2  C        -0.9199718424   -0.1775825584   -0.0970935988
      3  C         1.4909203662    0.3367582974   -0.4177838583
      4  C        -1.2227722681    1.2652754643   -0.2345295060
      5  O         2.4794071129    0.2069212582    0.5013164054
      6  O         1.4599007613    1.1281261782   -1.3437118584
      7  O        -0.5671603921    1.9341318938    0.7477851812
      8  O        -2.0192894914    1.7300109239   -1.0316062059
      9  C        -0.7911410252    3.3435492204    0.7249274575
     10  C         3.5538033154    1.1302705963    0.3241165186
     11  C         0.6908325096   -2.0150972909    0.0112251320
     12  C        -0.3765806243   -2.9000235158    0.2224235647
     13  C        -1.6950140119   -2.4427633611    0.2572883515
     14  C        -1.9865449822   -1.0814074782    0.0977300441
     15  H        -0.4624112412    3.7697958433   -0.2274740049
     16  H         4.0453282984    0.9641147078   -0.6391930950
     17  H        -2.4970302573   -3.1634910569    0.4061222542
     18  H        -1.8474376543    3.5666794906    0.9059890877
     19  H        -0.2002982988    3.7931790170    1.5273126011
     20  H         4.2838919982    0.9582831261    1.1198280401
     21  H         3.1925407862    2.1609409489    0.4023597877
     22  H        -0.1906002296   -3.9666582263    0.3443320837
     23  C        -3.4222635693   -0.6326602424    0.1288918324
     24  C         2.0849910947   -2.5767940219   -0.0602005081
     25  H         2.6449814024   -2.1343937269   -0.8905256458
     26  H         2.0671057384   -3.6580417916   -0.2367433488
     27  H         2.6144009167   -2.3996751371    0.8812702249
     28  H        -3.7454857248   -0.3261374563   -0.8709002559
     29  H        -3.5543120453    0.1968300833    0.8302013215
     30  H        -4.0860980650   -1.4390523749    0.4598971058
   Point Group: c1    Number of degrees of freedom:    84


   Energy is   -756.777492900

              Constraints and their Current Values
                                        Value     Constraint
   Dihedral:        2   1   3   5      131.435      135.200
   Dihedral:        1   2   4   7      -57.239      -57.300

 Attempting to Generate Delocalized Internal Coordinates

   Using Lagrange Multiplier Algorithm


 86 Hessian modes will be used to form the next step
  Hessian Eigenvalues:
    -0.977753   -0.977753    0.045000    0.045000    0.045000    0.045000
     0.045000    0.045000    0.045000    0.045000    0.045000    0.045001
     0.045002    0.045003    0.045005    0.045012    0.045013    0.045137
     0.045284    0.093755    0.094007    0.094234    0.094419    0.113828
     0.113875    0.116854    0.116890    0.159975    0.159998    0.160000
     0.160000    0.160000    0.160000    0.160000    0.160000    0.160000
     0.160000    0.160000    0.160000    0.160000    0.160000    0.224723
     0.244737    0.248923    0.249138    0.249624    0.249908    0.249990
     0.249993    0.250000    0.250000    0.250000    0.250000    0.250000
     0.318837    0.319059    0.341608    0.341647    0.342469    0.342555
     0.342769    0.342935    0.342935    0.343290    0.343371    0.343554
     0.344100    0.344105    0.344456    0.344917    0.348625    0.349867
     0.408089    0.409183    0.413229    0.413817    0.437594    0.446154
     0.449565    0.458786    0.535065    0.537664    0.958663    0.960829
     1.022753    1.022753

 Minimum Search - Taking P-RFO Step
 Searching for Lamda that Maximizes Along the Constraint modes Only
 Value Taken    Lamda =   0.00222260
 Searching for Lamda that Minimizes Along All other modes
 Value Taken    Lamda =  -0.05779808
 Calculated Step too Large.  Step scaled by  0.849518
 Step Taken.  Stepsize is  0.300000

                             Maximum     Tolerance    Cnvgd?
         Gradient            0.096534       0.000300      NO
         Displacement        0.131357       0.001200      NO
         Energy change     *********       0.000001      NO


 New Cartesian Coordinates Obtained by Inverse Iteration

 Displacement from previous Coordinates is:  0.818904
 Adding empirical dispersion correction 
 ----------------------------------------------------------------
 Doing -D3(op) with
 s6 =   1.00000
 s8 =   0.78311
 a1 =   0.30000
 a2 =   4.25000
 n  =  10.00000
 -D3 energy without 3body term =     -0.0326878442 hartrees
 ----------------------------------------------------------------
             Standard Nuclear Orientation (Angstroms)
    I     Atom           X                Y                Z
 ----------------------------------------------------------------
    1      C       0.3912142461    -0.6759868582    -0.0906301730
    2      C      -0.9541591779    -0.2193380563    -0.0671883369
    3      C       1.4922388890     0.3534422048    -0.3772426795
    4      C      -1.2531047070     1.2794374037    -0.2169386047
    5      O       2.5542059762     0.1884184279     0.5272986393
    6      O       1.4643187492     1.2003394202    -1.2969890670
    7      O      -0.5769328058     1.9845479084     0.7960120911
    8      O      -2.0327321138     1.7938293580    -1.0467665081
    9      C      -0.7952364770     3.4322310737     0.7181462749
   10      C       3.6379803567     1.1499797673     0.3056950469
   11      C       0.6800661709    -2.0657970220     0.0224378572
   12      C      -0.3961176991    -2.9612253699     0.2114576687
   13      C      -1.7262318486    -2.5060243167     0.2476191439
   14      C      -2.0303677632    -1.1344915806     0.1048875630
   15      H      -0.4526193265     3.8464082972    -0.2511430671
   16      H       4.0973250620     1.0288071212    -0.6960179814
   17      H      -2.5380733217    -3.2318173782     0.3806577124
   18      H      -1.8621398874     3.6948028242     0.8662879172
   19      H      -0.2025181124     3.8922920654     1.5292509462
   20      H       4.4069621021     0.9509913285     1.0737068854
   21      H       3.2872013517     2.1956095813     0.4170044661
   22      H      -0.1964303997    -4.0351470956     0.3150879188
   23      C      -3.4918085365    -0.6686441717     0.1251509184
   24      C       2.1109594685    -2.6136019517    -0.0524206946
   25      H       2.6798847919    -2.1414228183    -0.8677965978
   26      H       2.0975306904    -3.6965002392    -0.2452174541
   27      H       2.6490765612    -2.4440780416     0.8942176145
   28      H      -3.8110894938    -0.3348118510    -0.8753806179
   29      H      -3.6387564666     0.1627111190     0.8319297692
   30      H      -4.1544525890    -1.4893800289     0.4360189714
 ----------------------------------------------------------------
 Molecular Point Group                 C1    NOp =  1
 Largest Abelian Subgroup              C1    NOp =  1
 Nuclear Repulsion Energy =  1119.0608146157 hartrees
 There are       59 alpha and       59 beta electrons
 Applying Cartesian multipole field
    Component          Value
    ---------          -----
     (2,0,0)        1.00000E-11
     (0,2,0)        2.00000E-11
     (0,0,2)       -3.00000E-10
 Nucleus-field energy     =     0.0000000014 hartrees
 Requested basis set is STO-3G
 There are 46 shells and 94 basis functions
 A cutoff of  1.0D-12 yielded    915 shell pairs
 There are      4293 function pairs
 Smallest overlap matrix eigenvalue = 1.82E-01
 Guess MOs from SCF MO coefficient file
 Reading MOs from coefficient file
 Reading MOs from coefficient file
 A restricted hybrid HF-DFT SCF calculation will be
 performed using Pulay DIIS extrapolation
 Exchange:     0.2000 Hartree-Fock + 0.0800 Slater + 0.7200 B88
 Correlation:  0.1900 VWN1RPA + 0.8100 LYP
 Using SG-1 standard quadrature grid
 Dispersion:   Grimme D3
 SCF converges when DIIS error is below 1.0E-08
 Geometry optimization detected.  Setting ReadMinima to 0
 Setting SaveMinima to 0
 -------------------------------------------------------
 OpenMP Integral computing Module                
 Release: version 1.0, May 2013, Q-Chem Inc. Pittsburgh 
 -------------------------------------------------------
 -------------------------------------------------------
 OpenMP BLAS3 based DFT computing Module                
 Release: version 1.0, May 2013, Q-Chem Inc. Pittsburgh 
 -------------------------------------------------------
 ---------------------------------------
  Cycle       Energy         DIIS Error
 ---------------------------------------
    1    -756.6337368760      6.42E-03
    2    -756.7972493891      2.45E-03
    3    -756.7825916420      4.22E-03
    4    -756.8044705711      6.41E-04
    5    -756.8050130696      1.68E-04
    6    -756.8050497463      5.05E-05
    7    -756.8050528595      2.25E-05
    8    -756.8050534055      1.10E-05
    9    -756.8050535670      1.80E-06
   10    -756.8050535722      4.16E-07
   11    -756.8050535725      1.31E-07
   12    -756.8050535725      4.23E-08
   13    -756.8050535725      1.86E-08
   14    -756.8050535725      5.38E-09 Convergence criterion met
 ---------------------------------------
 SCF time:  CPU 85.28 s  wall 3.65 s
 SCF   energy in the final basis set = -756.8050535725
 Total energy in the final basis set = -756.8050535725
 
 --------------------------------------------------------------
 
                    Orbital Energies (a.u.)
 --------------------------------------------------------------
 
 Alpha MOs
 -- Occupied --
-18.941 -18.937 -18.869 -18.868 -10.105 -10.103 -10.069 -10.066
-10.023 -10.023 -10.022 -10.021 -10.017 -10.016 -10.008 -10.007
 -1.020  -1.014  -0.939  -0.936  -0.814  -0.744  -0.720  -0.680
 -0.675  -0.662  -0.621  -0.585  -0.556  -0.498  -0.492  -0.450
 -0.443  -0.434  -0.416  -0.413  -0.409  -0.391  -0.383  -0.379
 -0.374  -0.368  -0.355  -0.347  -0.345  -0.336  -0.318  -0.313
 -0.307  -0.291  -0.284  -0.251  -0.248  -0.195  -0.182  -0.179
 -0.175  -0.151  -0.147
 -- Virtual --
  0.057   0.072   0.119   0.129   0.231   0.255   0.279   0.325
  0.351   0.355   0.374   0.388   0.401   0.419   0.422   0.426
  0.431   0.432   0.438   0.441   0.443   0.447   0.458   0.461
  0.469   0.480   0.484   0.552   0.564   0.577   0.604   0.657
  0.658   0.759   0.772
 --------------------------------------------------------------
 
          Ground-State Mulliken Net Atomic Charges

     Atom                 Charge (a.u.)
  ----------------------------------------
      1 C                    -0.018590
      2 C                    -0.016929
      3 C                     0.215412
      4 C                     0.216181
      5 O                    -0.170119
      6 O                    -0.215840
      7 O                    -0.173068
      8 O                    -0.211377
      9 C                    -0.125317
     10 C                    -0.124568
     11 C                     0.009001
     12 C                    -0.079207
     13 C                    -0.078934
     14 C                     0.008981
     15 H                     0.092865
     16 H                     0.089135
     17 H                     0.079492
     18 H                     0.088697
     19 H                     0.090923
     20 H                     0.092173
     21 H                     0.090265
     22 H                     0.079058
     23 C                    -0.225077
     24 C                    -0.223287
     25 H                     0.082841
     26 H                     0.079649
     27 H                     0.090919
     28 H                     0.093293
     29 H                     0.083589
     30 H                     0.079836
  ----------------------------------------
  Sum of atomic charges =     0.000000

 -----------------------------------------------------------------
                    Cartesian Multipole Moments
 -----------------------------------------------------------------
    Charge (ESU x 10^10)
                -0.0000
    Dipole Moment (Debye)
         X       1.1384      Y      -0.3131      Z       1.5335
       Tot       1.9353
    Quadrupole Moments (Debye-Ang)
        XX     -77.3281     XY       2.7156     YY     -76.8334
        XZ      -2.1441     YZ       4.4364     ZZ     -90.4905
    Octopole Moments (Debye-Ang^2)
       XXX      31.7267    XXY       6.9922    XYY       3.5037
       YYY      34.1958    XXZ       6.3291    XYZ      -1.0366
       YYZ      11.0806    XZZ       5.7040    YZZ       7.8863
       ZZZ      -4.9125
    Hexadecapole Moments (Debye-Ang^3)
      XXXX   -2021.2582   XXXY      43.9626   XXYY    -669.3765
      XYYY     -21.9095   YYYY   -1807.6870   XXXZ      -4.6317
      XXYZ      16.2782   XYYZ     -10.7038   YYYZ      15.8795
      XXZZ    -401.7003   XYZZ      -8.1920   YYZZ    -377.8427
      XZZZ       5.8835   YZZZ       0.6453   ZZZZ    -232.5973
 -----------------------------------------------------------------
 Calculating analytic gradient of the SCF energy
 Gradient of SCF Energy
            1           2           3           4           5           6
    1   0.0040054  -0.0023628   0.0085258   0.0124784  -0.0077344  -0.0008578
    2   0.0052775   0.0054024  -0.0014381   0.0056430   0.0112496  -0.0079237
    3   0.0004463  -0.0041053   0.0102335   0.0104345  -0.0181423   0.0034369
            7           8           9          10          11          12
    1  -0.0165605   0.0027259   0.0028880  -0.0051739   0.0015897   0.0017523
    2   0.0013541  -0.0054651  -0.0081878  -0.0069868   0.0000151  -0.0011655
    3  -0.0165707   0.0042601   0.0030335   0.0037022  -0.0022210   0.0012159
           13          14          15          16          17          18
    1  -0.0022869  -0.0016038   0.0011036   0.0007485   0.0013653   0.0012092
    2  -0.0001050   0.0016249   0.0000271  -0.0009407  -0.0000334  -0.0000683
    3  -0.0000877   0.0011730   0.0015807   0.0015266  -0.0005362   0.0015535
           19          20          21          22          23          24
    1  -0.0011426   0.0008328   0.0006847  -0.0011474   0.0043140  -0.0031925
    2   0.0020017   0.0019837  -0.0008945   0.0007533   0.0002641   0.0033924
    3  -0.0013578  -0.0014390   0.0015445   0.0003875  -0.0017530   0.0018895
           25          26          27          28          29          30
    1  -0.0004912   0.0016414  -0.0009298  -0.0006438  -0.0008960  -0.0008415
    2  -0.0023822   0.0007791  -0.0017317  -0.0019765  -0.0019849   0.0015160
    3  -0.0010193  -0.0009968  -0.0000458   0.0004683   0.0010345   0.0003535
 Max gradient component =       1.814E-02
 RMS gradient           =       4.803E-03
 Gradient time:  CPU 18.18 s  wall 0.77 s
 Geometry Optimization Parameters
   NAtoms,    NIC,     NZ,  NCons,   NDum,   NFix, NCnnct, MaxDiis
       30     194       0       2       0       0       0       0

 Cartesian Hessian Update
 Hessian Updated using BFGS Update


** CONSTRAINED OPTIMIZATION IN DELOCALIZED INTERNAL COORDINATES **
   Searching for a Minimum

   Optimization Cycle:   2

                       Coordinates (Angstroms)
     ATOM                X               Y               Z
      1  C         0.3912142461   -0.6759868582   -0.0906301730
      2  C        -0.9541591779   -0.2193380563   -0.0671883369
      3  C         1.4922388890    0.3534422048   -0.3772426795
      4  C        -1.2531047070    1.2794374037   -0.2169386047
      5  O         2.5542059762    0.1884184279    0.5272986393
      6  O         1.4643187492    1.2003394202   -1.2969890670
      7  O        -0.5769328058    1.9845479084    0.7960120911
      8  O        -2.0327321138    1.7938293580   -1.0467665081
      9  C        -0.7952364770    3.4322310737    0.7181462749
     10  C         3.6379803567    1.1499797673    0.3056950469
     11  C         0.6800661709   -2.0657970220    0.0224378572
     12  C        -0.3961176991   -2.9612253699    0.2114576687
     13  C        -1.7262318486   -2.5060243167    0.2476191439
     14  C        -2.0303677632   -1.1344915806    0.1048875630
     15  H        -0.4526193265    3.8464082972   -0.2511430671
     16  H         4.0973250620    1.0288071212   -0.6960179814
     17  H        -2.5380733217   -3.2318173782    0.3806577124
     18  H        -1.8621398874    3.6948028242    0.8662879172
     19  H        -0.2025181124    3.8922920654    1.5292509462
     20  H         4.4069621021    0.9509913285    1.0737068854
     21  H         3.2872013517    2.1956095813    0.4170044661
     22  H        -0.1964303997   -4.0351470956    0.3150879188
     23  C        -3.4918085365   -0.6686441717    0.1251509184
     24  C         2.1109594685   -2.6136019517   -0.0524206946
     25  H         2.6798847919   -2.1414228183   -0.8677965978
     26  H         2.0975306904   -3.6965002392   -0.2452174541
     27  H         2.6490765612   -2.4440780416    0.8942176145
     28  H        -3.8110894938   -0.3348118510   -0.8753806179
     29  H        -3.6387564666    0.1627111190    0.8319297692
     30  H        -4.1544525890   -1.4893800289    0.4360189714
   Point Group: c1    Number of degrees of freedom:    84


   Energy is   -756.805053572

              Constraints and their Current Values
                                        Value     Constraint
   Dihedral:        2   1   3   5      134.545      135.200
   Dihedral:        1   2   4   7      -57.299      -57.300
 Hessian Updated using BFGS Update

   Using Lagrange Multiplier Algorithm


 70 Hessian modes will be used to form the next step
  Hessian Eigenvalues:
    -0.977807   -0.977704    0.044800    0.045000    0.045000    0.045000
     0.045000    0.045001    0.045001    0.045004    0.045006    0.045013
     0.045042    0.045132    0.045371    0.093613    0.093940    0.094234
     0.094415    0.113763    0.113857    0.116855    0.116890    0.158407
     0.159976    0.159999    0.162545    0.224725    0.236912    0.244914
     0.248947    0.249470    0.249635    0.249914    0.249992    0.249997
     0.250000    0.252626    0.318937    0.321816    0.341609    0.341649
     0.342500    0.342566    0.342804    0.342934    0.342963    0.343294
     0.343397    0.343576    0.344088    0.344401    0.344558    0.348587
     0.349809    0.371684    0.407623    0.408433    0.413473    0.423692
     0.438617    0.446271    0.457581    0.464336    0.521416    0.536446
     0.959697    0.989282    1.022734    1.023058

 Minimum Search - Taking P-RFO Step
 Searching for Lamda that Maximizes Along the Constraint modes Only
 Value Taken    Lamda =   0.00004373
 Searching for Lamda that Minimizes Along All other modes
 Value Taken    Lamda =  -0.00508319
 Step Taken.  Stepsize is  0.180333

                             Maximum     Tolerance    Cnvgd?
         Gradient            0.020493       0.000300      NO
         Displacement        0.057986       0.001200      NO
         Energy change     -0.027561       0.000001      NO


 New Cartesian Coordinates Obtained by Inverse Iteration

 Displacement from previous Coordinates is:  0.634932
 Adding empirical dispersion correction 
 ----------------------------------------------------------------
 Doing -D3(op) with
 s6 =   1.00000
 s8 =   0.78311
 a1 =   0.30000
 a2 =   4.25000
 n  =  10.00000
 -D3 energy without 3body term =     -0.0328115700 hartrees
 ----------------------------------------------------------------
             Standard Nuclear Orientation (Angstroms)
    I     Atom           X                Y                Z
 ----------------------------------------------------------------
    1      C       0.3819816111    -0.6965542188    -0.0713431359
    2      C      -0.9607785663    -0.2399073820    -0.0299524851
    3      C       1.4778209741     0.3593642439    -0.3289951322
    4      C      -1.2457745457     1.2695304941    -0.1887069217
    5      O       2.5649772180     0.1598146607     0.5691006419
    6      O       1.4350718744     1.2716973818    -1.1910930928
    7      O      -0.5313451654     1.9717609969     0.8275479191
    8      O      -2.0008180674     1.8145871623    -1.0286273670
    9      C      -0.7435195282     3.4232017542     0.6612779133
   10      C       3.5995605566     1.1837375657     0.3214175221
   11      C       0.6748469414    -2.0863358308     0.0148866501
   12      C      -0.4038793350    -2.9840360694     0.1827523850
   13      C      -1.7344829369    -2.5277044529     0.2360244843
   14      C      -2.0387434534    -1.1526421975     0.1228814457
   15      H      -0.3980606454     3.7748108018    -0.3332056235
   16      H       4.0131375542     1.1093570576    -0.7061000693
   17      H      -2.5522334025    -3.2514462345     0.3577541455
   18      H      -1.8122828595     3.6984295669     0.7813518351
   19      H      -0.1451691406     3.9076736166     1.4554383629
   20      H       4.4005922101     0.9867810799     1.0582344848
   21      H       3.2037543041     2.2103076147     0.4672609489
   22      H      -0.1979219080    -4.0604769485     0.2603969161
   23      C      -3.4982538572    -0.6675504841     0.1489178400
   24      C       2.1143472798    -2.6237370450    -0.0673565735
   25      H       2.6796486895    -2.1198549458    -0.8672420046
   26      H       2.1009855642    -3.7051019544    -0.2741904029
   27      H       2.6497884141    -2.4566869160     0.8826635886
   28      H      -3.8009804858    -0.2993154643    -0.8461758172
   29      H      -3.6284140548     0.1581898164     0.8673119567
   30      H      -4.1676615496    -1.4923125484     0.4369052079
 ----------------------------------------------------------------
 Molecular Point Group                 C1    NOp =  1
 Largest Abelian Subgroup              C1    NOp =  1
 Nuclear Repulsion Energy =  1119.6613598295 hartrees
 There are       59 alpha and       59 beta electrons
 Applying Cartesian multipole field
    Component          Value
    ---------          -----
     (2,0,0)        1.00000E-11
     (0,2,0)        2.00000E-11
     (0,0,2)       -3.00000E-10
 Nucleus-field energy     =     0.0000000044 hartrees
 Requested basis set is STO-3G
 There are 46 shells and 94 basis functions
 A cutoff of  1.0D-12 yielded    917 shell pairs
 There are      4298 function pairs
 Smallest overlap matrix eigenvalue = 1.83E-01
 Guess MOs from SCF MO coefficient file
 Reading MOs from coefficient file
 Reading MOs from coefficient file
 A restricted hybrid HF-DFT SCF calculation will be
 performed using Pulay DIIS extrapolation
 Exchange:     0.2000 Hartree-Fock + 0.0800 Slater + 0.7200 B88
 Correlation:  0.1900 VWN1RPA + 0.8100 LYP
 Using SG-1 standard quadrature grid
 Dispersion:   Grimme D3
 SCF converges when DIIS error is below 1.0E-08
 Geometry optimization detected.  Setting ReadMinima to 0
 Setting SaveMinima to 0
 -------------------------------------------------------
 OpenMP Integral computing Module                
 Release: version 1.0, May 2013, Q-Chem Inc. Pittsburgh 
 -------------------------------------------------------
 -------------------------------------------------------
 OpenMP BLAS3 based DFT computing Module                
 Release: version 1.0, May 2013, Q-Chem Inc. Pittsburgh 
 -------------------------------------------------------
 ---------------------------------------
  Cycle       Energy         DIIS Error
 ---------------------------------------
    1    -756.7561503418      3.88E-03
    2    -756.8065791459      9.05E-04
    3    -756.8033588193      1.87E-03
    4    -756.8076219179      2.55E-04
    5    -756.8077053089      8.07E-05
    6    -756.8077132139      2.99E-05
    7    -756.8077141176      1.71E-05
    8    -756.8077144786      4.84E-06
    9    -756.8077145107      1.25E-06
   10    -756.8077145133      2.52E-07
   11    -756.8077145134      7.50E-08
   12    -756.8077145134      3.27E-08
   13    -756.8077145134      1.27E-08
   14    -756.8077145134      3.15E-09 Convergence criterion met
 ---------------------------------------
 SCF time:  CPU 79.23 s  wall 3.37 s
 SCF   energy in the final basis set = -756.8077145134
 Total energy in the final basis set = -756.8077145134
 
 --------------------------------------------------------------
 
                    Orbital Energies (a.u.)
 --------------------------------------------------------------
 
 Alpha MOs
 -- Occupied --
-18.939 -18.935 -18.872 -18.872 -10.103 -10.100 -10.066 -10.062
-10.024 -10.023 -10.022 -10.021 -10.018 -10.017 -10.009 -10.009
 -1.015  -1.008  -0.936  -0.933  -0.815  -0.744  -0.719  -0.680
 -0.669  -0.657  -0.621  -0.584  -0.556  -0.495  -0.489  -0.448
 -0.442  -0.433  -0.413  -0.410  -0.407  -0.390  -0.382  -0.376
 -0.371  -0.368  -0.355  -0.347  -0.346  -0.337  -0.317  -0.310
 -0.306  -0.291  -0.283  -0.255  -0.253  -0.195  -0.183  -0.179
 -0.173  -0.153  -0.149
 -- Virtual --
  0.055   0.070   0.117   0.128   0.232   0.253   0.277   0.316
  0.340   0.346   0.369   0.382   0.401   0.415   0.421   0.425
  0.430   0.432   0.434   0.437   0.442   0.445   0.454   0.457
  0.464   0.476   0.482   0.548   0.559   0.575   0.602   0.649
  0.650   0.758   0.770
 --------------------------------------------------------------
 
          Ground-State Mulliken Net Atomic Charges

     Atom                 Charge (a.u.)
  ----------------------------------------
      1 C                    -0.019145
      2 C                    -0.017631
      3 C                     0.210364
      4 C                     0.211353
      5 O                    -0.164746
      6 O                    -0.213025
      7 O                    -0.168051
      8 O                    -0.207626
      9 C                    -0.127545
     10 C                    -0.126753
     11 C                     0.008749
     12 C                    -0.079042
     13 C                    -0.078636
     14 C                     0.008483
     15 H                     0.092979
     16 H                     0.088547
     17 H                     0.079566
     18 H                     0.088015
     19 H                     0.088840
     20 H                     0.090396
     21 H                     0.090260
     22 H                     0.079180
     23 C                    -0.223986
     24 C                    -0.222032
     25 H                     0.083301
     26 H                     0.079774
     27 H                     0.091347
     28 H                     0.093047
     29 H                     0.083793
     30 H                     0.080225
  ----------------------------------------
  Sum of atomic charges =     0.000000

 -----------------------------------------------------------------
                    Cartesian Multipole Moments
 -----------------------------------------------------------------
    Charge (ESU x 10^10)
                -0.0000
    Dipole Moment (Debye)
         X       1.0123      Y      -0.4453      Z       1.3146
       Tot       1.7180
    Quadrupole Moments (Debye-Ang)
        XX     -77.7085     XY       2.7495     YY     -77.3800
        XZ      -2.2045     YZ       4.1228     ZZ     -90.2514
    Octopole Moments (Debye-Ang^2)
       XXX      28.1762    XXY       7.2394    XYY       3.5674
       YYY      32.1728    XXZ       4.3953    XYZ      -0.8464
       YYZ       8.9343    XZZ       6.1006    YZZ       8.4608
       ZZZ      -9.2264
    Hexadecapole Moments (Debye-Ang^3)
      XXXX   -2013.0463   XXXY      33.0674   XXYY    -669.3907
      XYYY     -29.7679   YYYY   -1833.8280   XXXZ      -8.0385
      XXYZ      14.2621   XYYZ     -10.4108   YYYZ      14.6521
      XXZZ    -396.1910   XYZZ     -10.3717   YYZZ    -380.6641
      XZZZ       0.9379   YZZZ      -1.7381   ZZZZ    -221.0777
 -----------------------------------------------------------------
 Calculating analytic gradient of the SCF energy
 Gradient of SCF Energy
            1           2           3           4           5           6
    1  -0.0011173   0.0008619   0.0053832   0.0062312  -0.0014371  -0.0004352
    2  -0.0007569  -0.0009252  -0.0000273   0.0043180   0.0007925   0.0016956
    3   0.0020214   0.0007339   0.0041914   0.0047610  -0.0014511  -0.0028562
            7           8           9          10          11          12
    1  -0.0022221  -0.0024855  -0.0009386  -0.0042657  -0.0002157   0.0006201
    2  -0.0011260   0.0009742  -0.0044351  -0.0019409  -0.0002671  -0.0000648
    3  -0.0011180  -0.0029587  -0.0014593  -0.0008734  -0.0021191   0.0004471
           13          14          15          16          17          18
    1  -0.0003262  -0.0001558   0.0000913   0.0003550  -0.0001962  -0.0005549
    2   0.0002856   0.0008549   0.0004355  -0.0000253  -0.0001001   0.0002447
    3  -0.0001916   0.0007294  -0.0004870  -0.0005256  -0.0001901   0.0001568
           19          20          21          22          23          24
    1   0.0004907  -0.0000548  -0.0000524   0.0000728   0.0005973   0.0002378
    2  -0.0004708  -0.0005011   0.0006409  -0.0001680   0.0007582   0.0012576
    3   0.0004175   0.0004688   0.0001018   0.0003004  -0.0006145   0.0005754
           25          26          27          28          29          30
    1   0.0000285  -0.0001560   0.0000651  -0.0002467  -0.0001248  -0.0000500
    2  -0.0000535  -0.0004238  -0.0004096  -0.0002456   0.0001276  -0.0004441
    3  -0.0003408  -0.0003720   0.0002059  -0.0001751   0.0002663   0.0003553
 Max gradient component =       6.231E-03
 RMS gradient           =       1.611E-03
 Gradient time:  CPU 18.13 s  wall 0.77 s
 Geometry Optimization Parameters
   NAtoms,    NIC,     NZ,  NCons,   NDum,   NFix, NCnnct, MaxDiis
       30     194       0       2       0       0       0       0

 Cartesian Hessian Update
 Hessian Updated using BFGS Update


** CONSTRAINED OPTIMIZATION IN DELOCALIZED INTERNAL COORDINATES **
   Searching for a Minimum

   Optimization Cycle:   3

                       Coordinates (Angstroms)
     ATOM                X               Y               Z
      1  C         0.3819816111   -0.6965542188   -0.0713431359
      2  C        -0.9607785663   -0.2399073820   -0.0299524851
      3  C         1.4778209741    0.3593642439   -0.3289951322
      4  C        -1.2457745457    1.2695304941   -0.1887069217
      5  O         2.5649772180    0.1598146607    0.5691006419
      6  O         1.4350718744    1.2716973818   -1.1910930928
      7  O        -0.5313451654    1.9717609969    0.8275479191
      8  O        -2.0008180674    1.8145871623   -1.0286273670
      9  C        -0.7435195282    3.4232017542    0.6612779133
     10  C         3.5995605566    1.1837375657    0.3214175221
     11  C         0.6748469414   -2.0863358308    0.0148866501
     12  C        -0.4038793350   -2.9840360694    0.1827523850
     13  C        -1.7344829369   -2.5277044529    0.2360244843
     14  C        -2.0387434534   -1.1526421975    0.1228814457
     15  H        -0.3980606454    3.7748108018   -0.3332056235
     16  H         4.0131375542    1.1093570576   -0.7061000693
     17  H        -2.5522334025   -3.2514462345    0.3577541455
     18  H        -1.8122828595    3.6984295669    0.7813518351
     19  H        -0.1451691406    3.9076736166    1.4554383629
     20  H         4.4005922101    0.9867810799    1.0582344848
     21  H         3.2037543041    2.2103076147    0.4672609489
     22  H        -0.1979219080   -4.0604769485    0.2603969161
     23  C        -3.4982538572   -0.6675504841    0.1489178400
     24  C         2.1143472798   -2.6237370450   -0.0673565735
     25  H         2.6796486895   -2.1198549458   -0.8672420046
     26  H         2.1009855642   -3.7051019544   -0.2741904029
     27  H         2.6497884141   -2.4566869160    0.8826635886
     28  H        -3.8009804858   -0.2993154643   -0.8461758172
     29  H        -3.6284140548    0.1581898164    0.8673119567
     30  H        -4.1676615496   -1.4923125484    0.4369052079
   Point Group: c1    Number of degrees of freedom:    84


   Energy is   -756.807714513

              Constraints and their Current Values
                                        Value     Constraint
   Dihedral:        2   1   3   5      135.198      135.200
   Dihedral:        1   2   4   7      -57.300      -57.300
 Hessian Updated using BFGS Update

   Using Lagrange Multiplier Algorithm


 73 Hessian modes will be used to form the next step
  Hessian Eigenvalues:
    -0.977762   -0.976785    0.041617    0.045000    0.045000    0.045000
     0.045000    0.045001    0.045001    0.045004    0.045006    0.045010
     0.045037    0.045066    0.045258    0.045697    0.092314    0.093898
     0.094233    0.094405    0.113011    0.113853    0.116855    0.116890
     0.159191    0.159980    0.159999    0.161189    0.163970    0.224628
     0.239579    0.244958    0.249041    0.249541    0.249634    0.249915
     0.249993    0.249999    0.250000    0.250410    0.292383    0.318951
     0.321884    0.341626    0.341790    0.342514    0.342596    0.342832
     0.342934    0.343010    0.343282    0.343451    0.343720    0.344048
     0.344385    0.344884    0.348610    0.349820    0.376024    0.395280
     0.408273    0.413507    0.421624    0.438605    0.446418    0.457934
     0.465620    0.475794    0.536483    0.959642    1.008174    1.022765
     1.032160

 Minimum Search - Taking P-RFO Step
 Searching for Lamda that Maximizes Along the Constraint modes Only
 Value Taken    Lamda =   0.00000584
 Searching for Lamda that Minimizes Along All other modes
 Value Taken    Lamda =  -0.00057810
 Step Taken.  Stepsize is  0.067508

                             Maximum     Tolerance    Cnvgd?
         Gradient            0.006972       0.000300      NO
         Displacement        0.021862       0.001200      NO
         Energy change     -0.002661       0.000001      NO


 New Cartesian Coordinates Obtained by Inverse Iteration

 Displacement from previous Coordinates is:  0.174139
 Adding empirical dispersion correction 
 ----------------------------------------------------------------
 Doing -D3(op) with
 s6 =   1.00000
 s8 =   0.78311
 a1 =   0.30000
 a2 =   4.25000
 n  =  10.00000
 -D3 energy without 3body term =     -0.0328115385 hartrees
 ----------------------------------------------------------------
             Standard Nuclear Orientation (Angstroms)
    I     Atom           X                Y                Z
 ----------------------------------------------------------------
    1      C       0.3750263340    -0.6970554236    -0.0801545684
    2      C      -0.9703802577    -0.2440252515    -0.0275816519
    3      C       1.4707116025     0.3612727397    -0.3291939045
    4      C      -1.2624877410     1.2643441233    -0.1891140238
    5      O       2.5693334155     0.1534499780     0.5649795849
    6      O       1.4246501024     1.2893486865    -1.1720115988
    7      O      -0.5381567224     1.9799166324     0.8222020607
    8      O      -2.0179310080     1.8084364809    -1.0264430215
    9      C      -0.7333090458     3.4391216518     0.6504850015
   10      C       3.6132505180     1.1802129622     0.3321023759
   11      C       0.6714663023    -2.0861200390     0.0091736546
   12      C      -0.4044456627    -2.9874523887     0.1747109117
   13      C      -1.7355611636    -2.5364189434     0.2330668190
   14      C      -2.0442438697    -1.1622930061     0.1251294220
   15      H      -0.3841776643     3.7776046493    -0.3462337433
   16      H       4.0215736466     1.1196803465    -0.6973827806
   17      H      -2.5504975115    -3.2626943426     0.3569362172
   18      H      -1.7989639366     3.7245360200     0.7653258675
   19      H      -0.1321068057     3.9245107210     1.4411343566
   20      H       4.4159931154     0.9720143858     1.0630779866
   21      H       3.2188085147     2.2041638069     0.4917815752
   22      H      -0.1942191172    -4.0631400336     0.2481642985
   23      C      -3.5048459787    -0.6797897319     0.1575597886
   24      C       2.1126090705    -2.6198776039    -0.0709012141
   25      H       2.6767255883    -2.1141012777    -0.8699486373
   26      H       2.1048001182    -3.7018103886    -0.2712917482
   27      H       2.6451175054    -2.4429992533     0.8787845059
   28      H      -3.8061523347    -0.3033240004    -0.8347066718
   29      H      -3.6315047052     0.1430799692     0.8793004333
   30      H      -4.1748886192    -1.5050103479     0.4401843273
 ----------------------------------------------------------------
 Molecular Point Group                 C1    NOp =  1
 Largest Abelian Subgroup              C1    NOp =  1
 Nuclear Repulsion Energy =  1118.2804747134 hartrees
 There are       59 alpha and       59 beta electrons
 Applying Cartesian multipole field
    Component          Value
    ---------          -----
     (2,0,0)        1.00000E-11
     (0,2,0)        2.00000E-11
     (0,0,2)       -3.00000E-10
 Nucleus-field energy     =     0.0000000053 hartrees
 Requested basis set is STO-3G
 There are 46 shells and 94 basis functions
 A cutoff of  1.0D-12 yielded    912 shell pairs
 There are      4281 function pairs
 Smallest overlap matrix eigenvalue = 1.83E-01
 Guess MOs from SCF MO coefficient file
 Reading MOs from coefficient file
 Reading MOs from coefficient file
 A restricted hybrid HF-DFT SCF calculation will be
 performed using Pulay DIIS extrapolation
 Exchange:     0.2000 Hartree-Fock + 0.0800 Slater + 0.7200 B88
 Correlation:  0.1900 VWN1RPA + 0.8100 LYP
 Using SG-1 standard quadrature grid
 Dispersion:   Grimme D3
 SCF converges when DIIS error is below 1.0E-08
 Geometry optimization detected.  Setting ReadMinima to 0
 Setting SaveMinima to 0
 -------------------------------------------------------
 OpenMP Integral computing Module                
 Release: version 1.0, May 2013, Q-Chem Inc. Pittsburgh 
 -------------------------------------------------------
 -------------------------------------------------------
 OpenMP BLAS3 based DFT computing Module                
 Release: version 1.0, May 2013, Q-Chem Inc. Pittsburgh 
 -------------------------------------------------------
 ---------------------------------------
  Cycle       Energy         DIIS Error
 ---------------------------------------
    1    -756.8021359165      1.14E-03
    2    -756.8078955168      3.05E-04
    3    -756.8074145221      6.85E-04
    4    -756.8080170049      6.25E-05
    5    -756.8080218133      1.68E-05
    6    -756.8080221531      6.04E-06
    7    -756.8080222038      2.70E-06
    8    -756.8080222129      1.02E-06
    9    -756.8080222140      4.34E-07
   10    -756.8080222143      6.08E-08
   11    -756.8080222143      1.74E-08
   12    -756.8080222143      8.81E-09 Convergence criterion met
 ---------------------------------------
 SCF time:  CPU 66.35 s  wall 2.83 s
 SCF   energy in the final basis set = -756.8080222143
 Total energy in the final basis set = -756.8080222143
 
 --------------------------------------------------------------
 
                    Orbital Energies (a.u.)
 --------------------------------------------------------------
 
 Alpha MOs
 -- Occupied --
-18.936 -18.931 -18.873 -18.873 -10.102 -10.100 -10.065 -10.061
-10.025 -10.024 -10.023 -10.022 -10.018 -10.018 -10.010 -10.009
 -1.011  -1.005  -0.935  -0.931  -0.816  -0.745  -0.719  -0.680
 -0.668  -0.656  -0.621  -0.584  -0.556  -0.494  -0.488  -0.447
 -0.442  -0.432  -0.411  -0.409  -0.406  -0.390  -0.382  -0.376
 -0.371  -0.367  -0.355  -0.347  -0.346  -0.337  -0.317  -0.310
 -0.307  -0.291  -0.283  -0.254  -0.252  -0.195  -0.183  -0.178
 -0.172  -0.153  -0.149
 -- Virtual --
  0.054   0.069   0.116   0.128   0.231   0.248   0.273   0.315
  0.338   0.346   0.368   0.381   0.400   0.415   0.421   0.426
  0.431   0.432   0.435   0.438   0.443   0.446   0.454   0.457
  0.464   0.475   0.482   0.547   0.559   0.574   0.602   0.649
  0.651   0.757   0.769
 --------------------------------------------------------------
 
          Ground-State Mulliken Net Atomic Charges

     Atom                 Charge (a.u.)
  ----------------------------------------
      1 C                    -0.018716
      2 C                    -0.017326
      3 C                     0.209644
      4 C                     0.210746
      5 O                    -0.164901
      6 O                    -0.212420
      7 O                    -0.168136
      8 O                    -0.206982
      9 C                    -0.129032
     10 C                    -0.128250
     11 C                     0.009116
     12 C                    -0.078964
     13 C                    -0.078660
     14 C                     0.008770
     15 H                     0.092836
     16 H                     0.088401
     17 H                     0.079885
     18 H                     0.087841
     19 H                     0.089170
     20 H                     0.090751
     21 H                     0.090275
     22 H                     0.079369
     23 C                    -0.224336
     24 C                    -0.222263
     25 H                     0.083621
     26 H                     0.079921
     27 H                     0.091793
     28 H                     0.093180
     29 H                     0.084117
     30 H                     0.080552
  ----------------------------------------
  Sum of atomic charges =     0.000000

 -----------------------------------------------------------------
                    Cartesian Multipole Moments
 -----------------------------------------------------------------
    Charge (ESU x 10^10)
                -0.0000
    Dipole Moment (Debye)
         X       1.0049      Y      -0.4878      Z       1.2768
       Tot       1.6964
    Quadrupole Moments (Debye-Ang)
        XX     -77.6901     XY       2.8295     YY     -77.3629
        XZ      -2.1953     YZ       4.0668     ZZ     -90.1624
    Octopole Moments (Debye-Ang^2)
       XXX      29.3046    XXY       7.2701    XYY       3.7655
       YYY      32.4252    XXZ       4.5864    XYZ      -0.7479
       YYZ       8.9325    XZZ       6.5475    YZZ       8.6242
       ZZZ      -9.3049
    Hexadecapole Moments (Debye-Ang^3)
      XXXX   -2019.1278   XXXY      32.4373   XXYY    -671.8940
      XYYY     -31.8542   YYYY   -1838.7484   XXXZ      -8.7295
      XXYZ      14.0499   XYYZ     -10.5357   YYYZ      14.6806
      XXZZ    -397.1044   XYZZ     -10.7986   YYZZ    -381.6591
      XZZZ      -0.3355   YZZZ      -2.4548   ZZZZ    -218.8183
 -----------------------------------------------------------------
 Calculating analytic gradient of the SCF energy
 Gradient of SCF Energy
            1           2           3           4           5           6
    1  -0.0010312  -0.0001162   0.0002281   0.0015632  -0.0007265  -0.0000432
    2  -0.0007479  -0.0009193  -0.0012327  -0.0006963   0.0002941   0.0008341
    3   0.0000030   0.0015606   0.0003356  -0.0002567  -0.0001520  -0.0008625
            7           8           9          10          11          12
    1  -0.0010273  -0.0004675   0.0004028   0.0012045  -0.0002274  -0.0001125
    2  -0.0004991   0.0006469   0.0012523   0.0003700  -0.0002071   0.0002647
    3   0.0000235  -0.0009361   0.0006525   0.0005618  -0.0011613   0.0002341
           13          14          15          16          17          18
    1   0.0002401   0.0000321  -0.0002992  -0.0001472  -0.0000849   0.0001023
    2   0.0000841   0.0000495  -0.0000772   0.0001337  -0.0000022  -0.0000363
    3  -0.0002025   0.0004156   0.0000001   0.0000449  -0.0000408  -0.0001280
           19          20          21          22          23          24
    1   0.0000712   0.0002069   0.0000441   0.0000702  -0.0003323   0.0003678
    2   0.0002403   0.0001392  -0.0000909  -0.0000094   0.0000321   0.0000552
    3   0.0000013   0.0000174  -0.0002238   0.0001285  -0.0000048  -0.0000182
           25          26          27          28          29          30
    1  -0.0000793  -0.0001350  -0.0000427   0.0000669   0.0001829   0.0000891
    2   0.0002419  -0.0000296  -0.0001010  -0.0000609   0.0001581  -0.0000865
    3   0.0001316  -0.0000952   0.0000396  -0.0000188  -0.0001826   0.0001332
 Max gradient component =       1.563E-03
 RMS gradient           =       4.865E-04
 Gradient time:  CPU 20.54 s  wall 0.87 s
 Geometry Optimization Parameters
   NAtoms,    NIC,     NZ,  NCons,   NDum,   NFix, NCnnct, MaxDiis
       30     194       0       2       0       0       0       0

 Cartesian Hessian Update
 Hessian Updated using BFGS Update


** CONSTRAINED OPTIMIZATION IN DELOCALIZED INTERNAL COORDINATES **
   Searching for a Minimum

   Optimization Cycle:   4

                       Coordinates (Angstroms)
     ATOM                X               Y               Z
      1  C         0.3750263340   -0.6970554236   -0.0801545684
      2  C        -0.9703802577   -0.2440252515   -0.0275816519
      3  C         1.4707116025    0.3612727397   -0.3291939045
      4  C        -1.2624877410    1.2643441233   -0.1891140238
      5  O         2.5693334155    0.1534499780    0.5649795849
      6  O         1.4246501024    1.2893486865   -1.1720115988
      7  O        -0.5381567224    1.9799166324    0.8222020607
      8  O        -2.0179310080    1.8084364809   -1.0264430215
      9  C        -0.7333090458    3.4391216518    0.6504850015
     10  C         3.6132505180    1.1802129622    0.3321023759
     11  C         0.6714663023   -2.0861200390    0.0091736546
     12  C        -0.4044456627   -2.9874523887    0.1747109117
     13  C        -1.7355611636   -2.5364189434    0.2330668190
     14  C        -2.0442438697   -1.1622930061    0.1251294220
     15  H        -0.3841776643    3.7776046493   -0.3462337433
     16  H         4.0215736466    1.1196803465   -0.6973827806
     17  H        -2.5504975115   -3.2626943426    0.3569362172
     18  H        -1.7989639366    3.7245360200    0.7653258675
     19  H        -0.1321068057    3.9245107210    1.4411343566
     20  H         4.4159931154    0.9720143858    1.0630779866
     21  H         3.2188085147    2.2041638069    0.4917815752
     22  H        -0.1942191172   -4.0631400336    0.2481642985
     23  C        -3.5048459787   -0.6797897319    0.1575597886
     24  C         2.1126090705   -2.6198776039   -0.0709012141
     25  H         2.6767255883   -2.1141012777   -0.8699486373
     26  H         2.1048001182   -3.7018103886   -0.2712917482
     27  H         2.6451175054   -2.4429992533    0.8787845059
     28  H        -3.8061523347   -0.3033240004   -0.8347066718
     29  H        -3.6315047052    0.1430799692    0.8793004333
     30  H        -4.1748886192   -1.5050103479    0.4401843273
   Point Group: c1    Number of degrees of freedom:    84


   Energy is   -756.808022214

              Constraints and their Current Values
                                        Value     Constraint
   Dihedral:        2   1   3   5      135.200      135.200
   Dihedral:        1   2   4   7      -57.300      -57.300
 Hessian Updated using BFGS Update

 71 Hessian modes will be used to form the next step
  Hessian Eigenvalues:
     0.036188    0.045000    0.045000    0.045000    0.045001    0.045001
     0.045004    0.045005    0.045009    0.045020    0.045055    0.045089
     0.045254    0.046226    0.092977    0.093948    0.094234    0.094401
     0.113852    0.114795    0.116855    0.116884    0.159542    0.159981
     0.159999    0.160274    0.161214    0.164353    0.224508    0.237944
     0.245155    0.249051    0.249552    0.249631    0.249939    0.249996
     0.249999    0.250000    0.250130    0.250354    0.299005    0.318946
     0.321702    0.341625    0.341687    0.342537    0.342607    0.342893
     0.342934    0.343042    0.343297    0.343474    0.343940    0.344333
     0.344420    0.346985    0.348653    0.349821    0.371813    0.407982
     0.409499    0.413504    0.438360    0.446082    0.452977    0.459694
     0.465735    0.520248    0.536455    0.959562    0.990105

 Minimum Search - Taking Simple RFO Step
 Searching for Lamda that Minimizes Along All modes
 Value Taken    Lamda =  -0.00005681
 Step Taken.  Stepsize is  0.026034

                             Maximum     Tolerance    Cnvgd?
         Gradient           0.002266      0.000300      NO
         Displacement       0.008409      0.001200      NO
         Energy change     -0.000308      0.000001      NO


 New Cartesian Coordinates Obtained by Inverse Iteration

 Displacement from previous Coordinates is:  0.052304
 Adding empirical dispersion correction 
 ----------------------------------------------------------------
 Doing -D3(op) with
 s6 =   1.00000
 s8 =   0.78311
 a1 =   0.30000
 a2 =   4.25000
 n  =  10.00000
 -D3 energy without 3body term =     -0.0328090528 hartrees
 ----------------------------------------------------------------
             Standard Nuclear Orientation (Angstroms)
    I     Atom           X                Y                Z
 ----------------------------------------------------------------
    1      C       0.3760807335    -0.6940180532    -0.0843541381
    2      C      -0.9700330884    -0.2413092014    -0.0289967527
    3      C       1.4721165816     0.3632972600    -0.3295769304
    4      C      -1.2652892492     1.2659147305    -0.1873185792
    5      O       2.5704241175     0.1495411970     0.5639333116
    6      O       1.4288258598     1.2933884100    -1.1693260689
    7      O      -0.5400466826     1.9803204827     0.8246483639
    8      O      -2.0245478509     1.8098706212    -1.0202204715
    9      C      -0.7366769571     3.4381108102     0.6497387279
   10      C       3.6138771824     1.1751289475     0.3289557276
   11      C       0.6727013101    -2.0832552518     0.0093405722
   12      C      -0.4030543635    -2.9853617861     0.1731684374
   13      C      -1.7344365773    -2.5351446577     0.2301915765
   14      C      -2.0433681541    -1.1609584555     0.1230413876
   15      H      -0.3832766212     3.7760982989    -0.3458149801
   16      H       4.0204037042     1.1148615561    -0.7014091676
   17      H      -2.5488210855    -3.2619091019     0.3541888509
   18      H      -1.8028623642     3.7232268635     0.7617288389
   19      H      -0.1382856850     3.9239088251     1.4419982172
   20      H       4.4174197132     0.9640119742     1.0579212097
   21      H       3.2212812863     2.1994080493     0.4920964694
   22      H      -0.1926970923    -4.0609983868     0.2463842746
   23      C      -3.5044382962    -0.6794564344     0.1577570386
   24      C       2.1135758393    -2.6183945050    -0.0674086955
   25      H       2.6796816422    -2.1176228938    -0.8682337831
   26      H       2.1061801499    -3.7011750806    -0.2625029648
   27      H       2.6453572410    -2.4372220795     0.8818864090
   28      H      -3.8068790442    -0.2993162982    -0.8328014179
   29      H      -3.6324785606     0.1401995373     0.8829565464
   30      H      -4.1745399987    -1.5055642564     0.4371636133
 ----------------------------------------------------------------
 Molecular Point Group                 C1    NOp =  1
 Largest Abelian Subgroup              C1    NOp =  1
 Nuclear Repulsion Energy =  1118.3707973186 hartrees
 There are       59 alpha and       59 beta electrons
 Applying Cartesian multipole field
    Component          Value
    ---------          -----
     (2,0,0)        1.00000E-11
     (0,2,0)        2.00000E-11
     (0,0,2)       -3.00000E-10
 Nucleus-field energy     =     0.0000000055 hartrees
 Requested basis set is STO-3G
 There are 46 shells and 94 basis functions
 A cutoff of  1.0D-12 yielded    914 shell pairs
 There are      4289 function pairs
 Smallest overlap matrix eigenvalue = 1.83E-01
 Guess MOs from SCF MO coefficient file
 Reading MOs from coefficient file
 Reading MOs from coefficient file
 A restricted hybrid HF-DFT SCF calculation will be
 performed using Pulay DIIS extrapolation
 Exchange:     0.2000 Hartree-Fock + 0.0800 Slater + 0.7200 B88
 Correlation:  0.1900 VWN1RPA + 0.8100 LYP
 Using SG-1 standard quadrature grid
 Dispersion:   Grimme D3
 SCF converges when DIIS error is below 1.0E-08
 Geometry optimization detected.  Setting ReadMinima to 0
 Setting SaveMinima to 0
 -------------------------------------------------------
 OpenMP Integral computing Module                
 Release: version 1.0, May 2013, Q-Chem Inc. Pittsburgh 
 -------------------------------------------------------
 -------------------------------------------------------
 OpenMP BLAS3 based DFT computing Module                
 Release: version 1.0, May 2013, Q-Chem Inc. Pittsburgh 
 -------------------------------------------------------
 ---------------------------------------
  Cycle       Energy         DIIS Error
 ---------------------------------------
    1    -756.8086526377      2.96E-04
    2    -756.8080489126      1.99E-05
    3    -756.8080493510      1.90E-05
    4    -756.8080497024      1.29E-05
    5    -756.8080498971      3.97E-06
    6    -756.8080499146      1.35E-06
    7    -756.8080499170      2.54E-07
    8    -756.8080499171      1.44E-07
    9    -756.8080499171      4.96E-08
   10    -756.8080499171      2.01E-08
   11    -756.8080499171      4.20E-09 Convergence criterion met
 ---------------------------------------
 SCF time:  CPU 62.62 s  wall 2.67 s
 SCF   energy in the final basis set = -756.8080499171
 Total energy in the final basis set = -756.8080499171
 
 --------------------------------------------------------------
 
                    Orbital Energies (a.u.)
 --------------------------------------------------------------
 
 Alpha MOs
 -- Occupied --
-18.936 -18.931 -18.874 -18.873 -10.103 -10.100 -10.065 -10.061
-10.025 -10.024 -10.023 -10.022 -10.018 -10.017 -10.010 -10.009
 -1.012  -1.005  -0.935  -0.932  -0.815  -0.745  -0.719  -0.680
 -0.668  -0.656  -0.621  -0.584  -0.556  -0.494  -0.488  -0.447
 -0.442  -0.432  -0.411  -0.409  -0.406  -0.390  -0.381  -0.376
 -0.370  -0.367  -0.356  -0.347  -0.346  -0.337  -0.317  -0.311
 -0.307  -0.291  -0.283  -0.254  -0.252  -0.195  -0.183  -0.178
 -0.172  -0.154  -0.150
 -- Virtual --
  0.054   0.069   0.116   0.128   0.231   0.249   0.274   0.315
  0.338   0.346   0.368   0.381   0.400   0.415   0.422   0.426
  0.431   0.432   0.435   0.438   0.442   0.446   0.454   0.457
  0.464   0.476   0.482   0.547   0.559   0.574   0.602   0.649
  0.651   0.757   0.769
 --------------------------------------------------------------
 
          Ground-State Mulliken Net Atomic Charges

     Atom                 Charge (a.u.)
  ----------------------------------------
      1 C                    -0.018798
      2 C                    -0.017371
      3 C                     0.209836
      4 C                     0.210990
      5 O                    -0.164865
      6 O                    -0.212478
      7 O                    -0.168036
      8 O                    -0.206952
      9 C                    -0.129013
     10 C                    -0.128214
     11 C                     0.009201
     12 C                    -0.078934
     13 C                    -0.078672
     14 C                     0.008824
     15 H                     0.092727
     16 H                     0.088360
     17 H                     0.079929
     18 H                     0.087877
     19 H                     0.089044
     20 H                     0.090587
     21 H                     0.090246
     22 H                     0.079384
     23 C                    -0.224400
     24 C                    -0.222286
     25 H                     0.083572
     26 H                     0.079866
     27 H                     0.091836
     28 H                     0.093148
     29 H                     0.084076
     30 H                     0.080515
  ----------------------------------------
  Sum of atomic charges =     0.000000

 -----------------------------------------------------------------
                    Cartesian Multipole Moments
 -----------------------------------------------------------------
    Charge (ESU x 10^10)
                -0.0000
    Dipole Moment (Debye)
         X       0.9996      Y      -0.4968      Z       1.2672
       Tot       1.6887
    Quadrupole Moments (Debye-Ang)
        XX     -77.7374     XY       2.8073     YY     -77.4178
        XZ      -2.1995     YZ       4.0437     ZZ     -90.1384
    Octopole Moments (Debye-Ang^2)
       XXX      29.2352    XXY       7.0662    XYY       3.7017
       YYY      32.0568    XXZ       4.5661    XYZ      -0.7518
       YYZ       8.8999    XZZ       6.5199    YZZ       8.5921
       ZZZ      -9.3321
    Hexadecapole Moments (Debye-Ang^3)
      XXXX   -2021.6891   XXXY      33.2294   XXYY    -672.2662
      XYYY     -30.7166   YYYY   -1837.7096   XXXZ      -8.8626
      XXYZ      14.0340   XYYZ     -10.4548   YYYZ      14.4566
      XXZZ    -397.3367   XYZZ     -10.4890   YYZZ    -381.2728
      XZZZ      -0.2069   YZZZ      -2.6069   ZZZZ    -218.0911
 -----------------------------------------------------------------
 Calculating analytic gradient of the SCF energy
 Gradient of SCF Energy
            1           2           3           4           5           6
    1  -0.0001575  -0.0002317   0.0002998   0.0007423  -0.0002856   0.0000724
    2  -0.0002288   0.0001040  -0.0002227  -0.0000043  -0.0000413   0.0000546
    3  -0.0009038   0.0019312  -0.0002131  -0.0012452   0.0003839  -0.0002419
            7           8           9          10          11          12
    1  -0.0007126   0.0000564   0.0001008   0.0004171  -0.0000824  -0.0001344
    2  -0.0002317   0.0000989   0.0005208   0.0002389  -0.0001469   0.0000405
    3   0.0007974  -0.0001606   0.0001070   0.0000493  -0.0006088   0.0002287
           13          14          15          16          17          18
    1   0.0001196   0.0000476  -0.0000977  -0.0000091  -0.0000069  -0.0000089
    2  -0.0000921  -0.0000645  -0.0000376   0.0000059  -0.0000035   0.0000029
    3  -0.0002337   0.0002646  -0.0000709  -0.0000420   0.0000164   0.0000473
           19          20          21          22          23          24
    1   0.0000208  -0.0000665  -0.0000443  -0.0000047  -0.0001888   0.0000899
    2  -0.0000478  -0.0000118   0.0000049  -0.0000075  -0.0000811  -0.0000795
    3  -0.0000816  -0.0000391  -0.0000494   0.0000508   0.0000705  -0.0000611
           25          26          27          28          29          30
    1   0.0000277   0.0000323  -0.0000282  -0.0000313   0.0000417   0.0000222
    2   0.0001238   0.0000729  -0.0001094  -0.0000847   0.0001212   0.0001058
    3   0.0001375  -0.0001044   0.0000534  -0.0000342  -0.0001539   0.0001057
 Max gradient component =       1.931E-03
 RMS gradient           =       3.318E-04
 Gradient time:  CPU 17.09 s  wall 0.73 s
 Geometry Optimization Parameters
   NAtoms,    NIC,     NZ,  NCons,   NDum,   NFix, NCnnct, MaxDiis
       30     194       0       2       0       0       0       0

 Cartesian Hessian Update
 Hessian Updated using BFGS Update


** CONSTRAINED OPTIMIZATION IN DELOCALIZED INTERNAL COORDINATES **
   Searching for a Minimum

   Optimization Cycle:   5

                       Coordinates (Angstroms)
     ATOM                X               Y               Z
      1  C         0.3760807335   -0.6940180532   -0.0843541381
      2  C        -0.9700330884   -0.2413092014   -0.0289967527
      3  C         1.4721165816    0.3632972600   -0.3295769304
      4  C        -1.2652892492    1.2659147305   -0.1873185792
      5  O         2.5704241175    0.1495411970    0.5639333116
      6  O         1.4288258598    1.2933884100   -1.1693260689
      7  O        -0.5400466826    1.9803204827    0.8246483639
      8  O        -2.0245478509    1.8098706212   -1.0202204715
      9  C        -0.7366769571    3.4381108102    0.6497387279
     10  C         3.6138771824    1.1751289475    0.3289557276
     11  C         0.6727013101   -2.0832552518    0.0093405722
     12  C        -0.4030543635   -2.9853617861    0.1731684374
     13  C        -1.7344365773   -2.5351446577    0.2301915765
     14  C        -2.0433681541   -1.1609584555    0.1230413876
     15  H        -0.3832766212    3.7760982989   -0.3458149801
     16  H         4.0204037042    1.1148615561   -0.7014091676
     17  H        -2.5488210855   -3.2619091019    0.3541888509
     18  H        -1.8028623642    3.7232268635    0.7617288389
     19  H        -0.1382856850    3.9239088251    1.4419982172
     20  H         4.4174197132    0.9640119742    1.0579212097
     21  H         3.2212812863    2.1994080493    0.4920964694
     22  H        -0.1926970923   -4.0609983868    0.2463842746
     23  C        -3.5044382962   -0.6794564344    0.1577570386
     24  C         2.1135758393   -2.6183945050   -0.0674086955
     25  H         2.6796816422   -2.1176228938   -0.8682337831
     26  H         2.1061801499   -3.7011750806   -0.2625029648
     27  H         2.6453572410   -2.4372220795    0.8818864090
     28  H        -3.8068790442   -0.2993162982   -0.8328014179
     29  H        -3.6324785606    0.1401995373    0.8829565464
     30  H        -4.1745399987   -1.5055642564    0.4371636133
   Point Group: c1    Number of degrees of freedom:    84


   Energy is   -756.808049917

              Constraints and their Current Values
                                        Value     Constraint
   Dihedral:        2   1   3   5      135.200      135.200
   Dihedral:        1   2   4   7      -57.300      -57.300
 Hessian Updated using BFGS Update

 72 Hessian modes will be used to form the next step
  Hessian Eigenvalues:
     0.022311    0.043662    0.045000    0.045000    0.045000    0.045000
     0.045001    0.045003    0.045004    0.045005    0.045056    0.045060
     0.045295    0.047200    0.092276    0.093879    0.094237    0.094408
     0.113851    0.114523    0.116859    0.116878    0.159378    0.159828
     0.159981    0.159999    0.160698    0.163211    0.164839    0.224479
     0.239582    0.244312    0.246811    0.249553    0.249635    0.249742
[...]
 H         -0.004  0.004  0.000   -0.003 -0.006  0.006    0.003 -0.096  0.022
 H         -0.005 -0.002  0.006   -0.002 -0.009  0.000    0.181  0.103 -0.076
 H         -0.011  0.002  0.005   -0.012 -0.001 -0.004    0.127 -0.021  0.057
 H         -0.325  0.181  0.023   -0.490 -0.047  0.057    0.007 -0.001  0.000
 C         -0.002 -0.027  0.002   -0.030  0.008  0.004   -0.000 -0.005  0.001
 C          0.022  0.014 -0.003    0.023 -0.022 -0.003   -0.003 -0.001  0.001
 H          0.192 -0.056  0.099    0.052 -0.000  0.028    0.017 -0.013  0.008
 H         -0.238  0.096 -0.027   -0.001 -0.014  0.015   -0.006  0.008 -0.025
 H          0.150  0.058 -0.093    0.055 -0.017 -0.031    0.008  0.037 -0.005
 H          0.011 -0.180 -0.071   -0.012  0.048  0.023    0.028  0.019  0.003
 H          0.117 -0.146  0.121    0.000  0.041 -0.039    0.010  0.013 -0.019
 H         -0.180  0.190 -0.030   -0.020 -0.004 -0.012    0.012 -0.013  0.007
 TransDip  -0.063  0.096 -0.011   -0.047  0.004 -0.017   -0.194 -0.128  0.267

 Mode:                70                     71                     72
 Frequency:      1778.85                3035.96                3041.00
 Force Cnst:     21.8150                 5.6259                 5.6424
 Red. Mass:      11.7011                 1.0360                 1.0356
 IR Active:          YES                    YES                    YES
 IR Intens:      395.592                 24.774                 22.937
 Raman Active:       YES                    YES                    YES
               X      Y      Z        X      Y      Z        X      Y      Z
 C         -0.041 -0.030  0.017   -0.000  0.001 -0.000   -0.000  0.000 -0.000
 C          0.047 -0.072  0.013    0.000 -0.000  0.000    0.001  0.000 -0.000
 C          0.091  0.169 -0.240    0.000 -0.000  0.000    0.000  0.000  0.000
 C         -0.403  0.463 -0.377    0.000  0.000  0.000   -0.000  0.000 -0.000
 O         -0.001 -0.010  0.017   -0.000  0.000 -0.000   -0.000 -0.000 -0.000
 O         -0.045 -0.107  0.160   -0.000 -0.000  0.000   -0.000 -0.000  0.000
 O          0.030 -0.020  0.027   -0.000 -0.000 -0.000   -0.000 -0.000  0.000
 O          0.267 -0.276  0.256    0.000 -0.000  0.000    0.000 -0.000  0.000
 C         -0.001  0.028 -0.007   -0.000 -0.000  0.000    0.000 -0.000  0.000
 C          0.011  0.006 -0.005   -0.000  0.000  0.000   -0.000 -0.000  0.000
 C          0.009  0.015 -0.003   -0.001  0.000 -0.000    0.000 -0.000 -0.000
 C         -0.013  0.004  0.001   -0.001  0.001 -0.000   -0.000  0.000 -0.000
 C          0.016 -0.013 -0.002    0.000  0.000  0.000    0.002  0.000 -0.000
 C         -0.030  0.019 -0.003   -0.000  0.000  0.000    0.000 -0.001  0.000
 H         -0.061 -0.098 -0.070    0.001  0.001 -0.003    0.002  0.001 -0.006
 H         -0.047 -0.006 -0.037    0.000 -0.000 -0.000    0.002 -0.002 -0.005
 H         -0.015  0.042  0.000    0.000 -0.000 -0.000   -0.016 -0.006  0.003
 H         -0.105 -0.081 -0.039   -0.003  0.002  0.001   -0.006  0.004  0.001
 H         -0.001 -0.206  0.051    0.002  0.000  0.002    0.003  0.001  0.003
 H         -0.076 -0.042  0.034   -0.000  0.000 -0.001    0.002 -0.001  0.003
 H         -0.050  0.009 -0.025    0.000 -0.002  0.000   -0.000  0.006 -0.000
 H          0.012  0.002  0.000   -0.000 -0.012  0.000   -0.000  0.000  0.000
 C         -0.005 -0.008  0.003    0.000 -0.000 -0.000   -0.041  0.028  0.009
 C          0.001 -0.001 -0.000    0.044 -0.023 -0.009    0.000 -0.000 -0.000
 H         -0.016  0.008 -0.010   -0.368 -0.175  0.511   -0.003 -0.001  0.004
 H          0.011 -0.008  0.010    0.157  0.479  0.062    0.001  0.003  0.000
 H         -0.011 -0.017  0.008   -0.306 -0.036 -0.467   -0.003 -0.000 -0.004
 H          0.082  0.049 -0.000   -0.001  0.001 -0.003    0.101 -0.207  0.469
 H          0.030  0.039 -0.045    0.001  0.004  0.003   -0.062 -0.464 -0.411
 H          0.044 -0.051  0.021   -0.004 -0.003  0.002    0.437  0.346 -0.159
 TransDip  -0.290  0.366 -0.434    0.114 -0.109 -0.026   -0.142  0.037  0.044

 Mode:                73                     74                     75
 Frequency:      3050.36                3050.66                3091.94
 Force Cnst:      5.6430                 5.6447                 6.1971
 Red. Mass:       1.0293                 1.0294                 1.1002
 IR Active:          YES                    YES                    YES
 IR Intens:       15.429                 52.697                 11.238
 Raman Active:       YES                    YES                    YES
               X      Y      Z        X      Y      Z        X      Y      Z
 C         -0.000  0.000 -0.000    0.000 -0.000  0.000   -0.000 -0.000  0.000
 C          0.000  0.000  0.000    0.000  0.000  0.000    0.000 -0.000 -0.000
 C          0.001 -0.001  0.002   -0.001  0.001 -0.002   -0.000 -0.000 -0.000
 C         -0.002 -0.000 -0.001   -0.002 -0.000 -0.001    0.000  0.000 -0.000
 O         -0.002 -0.000 -0.000    0.002  0.000  0.000   -0.000 -0.000  0.000
 O          0.000  0.000 -0.001   -0.000 -0.000  0.001   -0.000 -0.000  0.000
 O          0.001  0.002  0.000    0.001  0.002  0.000   -0.000  0.000  0.000
 O          0.000 -0.000  0.000    0.000 -0.000  0.000   -0.000 -0.000  0.000
 C          0.002  0.028 -0.010    0.002  0.030 -0.011   -0.000 -0.000  0.000
 C         -0.026 -0.015  0.013    0.024  0.014 -0.012    0.000  0.000  0.000
 C          0.000  0.000 -0.000   -0.000 -0.000  0.000   -0.000  0.000 -0.001
 C          0.000  0.000 -0.000   -0.000  0.000 -0.000    0.000 -0.001 -0.000
 C          0.000  0.000 -0.000    0.000  0.000 -0.000   -0.000  0.000 -0.000
 C         -0.000  0.000  0.000   -0.000  0.000 -0.000   -0.000 -0.000  0.000
 H         -0.139 -0.071  0.412   -0.150 -0.076  0.444    0.000  0.000 -0.001
 H          0.183 -0.174 -0.395   -0.171  0.162  0.368   -0.000  0.000  0.000
 H         -0.000 -0.000  0.000   -0.001 -0.000  0.000   -0.001 -0.001  0.000
 H          0.339 -0.226 -0.086    0.365 -0.243 -0.092    0.000 -0.000 -0.000
 H         -0.224 -0.056 -0.204   -0.241 -0.060 -0.219    0.000  0.000  0.000
 H          0.170 -0.095  0.259   -0.158  0.088 -0.241   -0.001  0.000 -0.001
 H         -0.030  0.457 -0.019    0.028 -0.424  0.017    0.000 -0.003  0.000
 H         -0.000 -0.000  0.000   -0.000 -0.001  0.000   -0.000  0.008 -0.001
 C          0.000  0.000  0.000   -0.000  0.000  0.000    0.000  0.000  0.001
 C          0.000 -0.000 -0.000    0.000  0.000  0.000    0.005  0.024 -0.088
 H         -0.002 -0.001  0.003   -0.001 -0.001  0.002   -0.411 -0.185  0.538
 H          0.002  0.005  0.001   -0.000 -0.002 -0.000   -0.046 -0.146 -0.039
 H          0.000  0.000  0.000   -0.003 -0.001 -0.004    0.398  0.049  0.560
 H          0.000 -0.000  0.000    0.001 -0.003  0.007   -0.001  0.002 -0.005
 H         -0.000 -0.001 -0.001   -0.001 -0.007 -0.006   -0.000 -0.004 -0.003
 H         -0.000 -0.000  0.000    0.005  0.004 -0.002   -0.001 -0.000  0.000
 TransDip  -0.096  0.080  0.008    0.163  0.166  0.011    0.012  0.045 -0.096

 Mode:                76                     77                     78
 Frequency:      3099.32                3108.35                3111.29
 Force Cnst:      6.2263                 6.2748                 6.2904
 Red. Mass:       1.1001                 1.1023                 1.1029
 IR Active:          YES                    YES                    YES
 IR Intens:       11.530                 17.197                 14.063
 Raman Active:       YES                    YES                    YES
               X      Y      Z        X      Y      Z        X      Y      Z
 C          0.000 -0.000 -0.000   -0.000 -0.000 -0.000    0.000 -0.000  0.000
 C          0.000 -0.000  0.000   -0.000  0.000 -0.000    0.000 -0.000 -0.000
 C         -0.000 -0.000  0.000   -0.000  0.000 -0.000   -0.000 -0.000  0.000
 C          0.000  0.000  0.000   -0.000 -0.000 -0.000    0.001 -0.000  0.000
 O          0.000  0.000  0.000    0.000 -0.000  0.000   -0.000  0.000 -0.000
 O          0.000  0.000 -0.000    0.000 -0.000  0.000   -0.000  0.000 -0.000
 O          0.000 -0.000 -0.000    0.000  0.000  0.000   -0.000 -0.000 -0.000
 O          0.000  0.000  0.000    0.000 -0.000  0.000   -0.000  0.000 -0.000
 C         -0.000  0.000  0.000    0.000 -0.000 -0.000   -0.000  0.000 -0.000
 C         -0.000  0.000  0.000    0.001 -0.001 -0.001   -0.000  0.000  0.000
 C          0.000  0.000 -0.000   -0.001 -0.000 -0.000    0.000  0.000 -0.000
 C         -0.000 -0.000  0.000    0.000  0.004 -0.000   -0.000 -0.001  0.000
 C          0.001  0.001 -0.000   -0.000 -0.000  0.000    0.004  0.002 -0.001
 C         -0.001 -0.000 -0.000    0.000  0.000 -0.000    0.000 -0.001  0.000
 H          0.001  0.000 -0.002   -0.001 -0.000  0.002   -0.000 -0.000  0.002
 H          0.000 -0.000 -0.001   -0.005  0.005  0.011    0.000 -0.000 -0.001
 H         -0.015 -0.006  0.002    0.007  0.003 -0.001   -0.044 -0.019  0.007
 H          0.004 -0.002 -0.001   -0.002  0.001  0.000    0.002 -0.001 -0.000
 H          0.000  0.000  0.000   -0.001 -0.000 -0.000    0.001  0.000  0.001
 H          0.000  0.000  0.000   -0.001  0.000 -0.002    0.000 -0.000  0.000
 H          0.000 -0.001  0.000   -0.001  0.005 -0.000    0.000 -0.002  0.000
 H          0.000  0.004 -0.000   -0.001 -0.038  0.001    0.001  0.009 -0.000
 C         -0.033 -0.040 -0.076   -0.000  0.000 -0.000   -0.038 -0.067  0.051
 C          0.000  0.000 -0.001   -0.052 -0.073 -0.023   -0.000 -0.000  0.000
 H         -0.003 -0.002  0.005    0.139  0.054 -0.213    0.001  0.000 -0.001
 H         -0.001 -0.004 -0.001    0.247  0.801  0.104    0.001  0.003  0.000
 H          0.002  0.000  0.003    0.250  0.011  0.382   -0.000 -0.000 -0.001
 H          0.115 -0.258  0.515    0.001 -0.002  0.004   -0.139  0.242 -0.550
 H          0.062  0.569  0.487    0.000  0.001  0.001    0.010  0.130  0.141
 H          0.215  0.164 -0.096    0.000 -0.000 -0.000    0.577  0.444 -0.205
 TransDip  -0.048 -0.066 -0.071   -0.057 -0.117 -0.025   -0.087 -0.071  0.042

 Mode:                79                     80                     81
 Frequency:      3122.78                3126.00                3156.46
 Force Cnst:      6.3595                 6.3748                 6.4951
 Red. Mass:       1.1068                 1.1072                 1.1065
 IR Active:          YES                    YES                    YES
 IR Intens:       17.871                 13.651                 13.152
 Raman Active:       YES                    YES                    YES
               X      Y      Z        X      Y      Z        X      Y      Z
 C          0.000 -0.000 -0.000   -0.000 -0.000  0.000    0.000 -0.000 -0.000
 C          0.000  0.000  0.000    0.000 -0.000 -0.000    0.000 -0.000  0.000
 C         -0.000  0.000  0.000    0.000  0.000 -0.000   -0.000  0.000 -0.000
 C         -0.000 -0.000 -0.000    0.000 -0.000  0.000   -0.000  0.001 -0.000
 O         -0.000  0.000  0.000   -0.000 -0.000  0.000    0.000  0.000  0.000
 O         -0.000  0.000  0.000   -0.000 -0.000  0.000    0.000 -0.000  0.000
 O          0.000  0.000  0.000   -0.000 -0.000  0.000    0.000 -0.000  0.000
 O          0.000  0.000  0.000   -0.000  0.000  0.000    0.000 -0.000  0.000
 C          0.002 -0.001 -0.002    0.063 -0.023 -0.067   -0.068  0.005 -0.066
 C          0.026 -0.079 -0.046   -0.001  0.002  0.002   -0.000 -0.000 -0.001
 C         -0.000 -0.000  0.000    0.000  0.000  0.000   -0.000 -0.000  0.000
 C          0.000 -0.000  0.000   -0.000 -0.000  0.000    0.000  0.000 -0.000
 C         -0.000  0.000 -0.000    0.000 -0.000  0.000   -0.000 -0.000  0.000
 C         -0.000 -0.000  0.000   -0.000  0.000  0.000   -0.000  0.000  0.000
 H         -0.005 -0.003  0.017   -0.203 -0.117  0.652   -0.108 -0.045  0.272
 H         -0.268  0.243  0.596    0.008 -0.008 -0.018   -0.002  0.002  0.005
 H          0.000  0.000 -0.000   -0.000 -0.000  0.000    0.002  0.001 -0.000
 H         -0.019  0.013  0.004   -0.584  0.389  0.130    0.262 -0.179 -0.082
 H         -0.002 -0.001 -0.003    0.036  0.002  0.010    0.649  0.160  0.590
 H          0.010 -0.018 -0.001   -0.002  0.001 -0.002    0.004 -0.002  0.006
 H         -0.045  0.706 -0.048    0.001 -0.019  0.001    0.000  0.002 -0.000
 H          0.000  0.001 -0.000    0.000  0.001 -0.000   -0.000 -0.001  0.000
 C         -0.000 -0.000  0.000   -0.000 -0.000 -0.000    0.000  0.000 -0.000
 C          0.001  0.001  0.000    0.000  0.000  0.000   -0.000 -0.000 -0.000
 H         -0.003 -0.001  0.005   -0.001 -0.000  0.001    0.000  0.000 -0.000
 H         -0.003 -0.009 -0.001   -0.001 -0.002 -0.000    0.000  0.000  0.000
 H         -0.003  0.000 -0.005   -0.000  0.000 -0.001    0.000 -0.000  0.000
 H         -0.000  0.000 -0.001    0.000 -0.001  0.002    0.000 -0.000  0.001
 H          0.000  0.001  0.001    0.000  0.003  0.003   -0.000 -0.001 -0.001
 H          0.001  0.001 -0.001    0.001  0.001 -0.000   -0.001 -0.001  0.001
 TransDip   0.038 -0.111 -0.067    0.071 -0.041 -0.085   -0.087 -0.017 -0.075

 Mode:                82                     83                     84
 Frequency:      3158.25                3160.81                3177.87
 Force Cnst:      6.5017                 6.3992                 6.5128
 Red. Mass:       1.1063                 1.0871                 1.0946
 IR Active:          YES                    YES                    YES
 IR Intens:       12.606                  8.189                 20.370
 Raman Active:       YES                    YES                    YES
               X      Y      Z        X      Y      Z        X      Y      Z
 C         -0.000 -0.000  0.000   -0.000  0.000 -0.000   -0.000  0.001 -0.000
 C         -0.000 -0.000  0.000   -0.001  0.000  0.000    0.001  0.000 -0.000
 C          0.001  0.001 -0.001    0.000  0.000  0.000    0.000  0.000 -0.000
 C          0.000 -0.000  0.000    0.000 -0.000  0.000   -0.000  0.000 -0.000
 O          0.000 -0.000  0.000   -0.000  0.000 -0.000   -0.000 -0.000 -0.000
 O         -0.000 -0.000  0.000   -0.000 -0.000  0.000   -0.000 -0.000  0.000
 O         -0.000  0.000  0.000    0.000  0.000  0.000   -0.000 -0.000 -0.000
 O         -0.000  0.000 -0.000   -0.000  0.000 -0.000    0.000 -0.000  0.000
 C          0.001 -0.000  0.000   -0.000 -0.000 -0.000    0.000  0.000  0.000
 C         -0.031  0.038 -0.081    0.000 -0.000  0.001    0.000 -0.000  0.000
 C         -0.000  0.000  0.000    0.002 -0.000 -0.000    0.003  0.000 -0.000
 C         -0.000 -0.001  0.000   -0.007 -0.058  0.003   -0.004 -0.064  0.003
 C          0.000  0.000 -0.000    0.054  0.028 -0.008   -0.056 -0.025  0.008
 C          0.000 -0.000 -0.000    0.001 -0.002  0.000   -0.001  0.003 -0.000
 H          0.000 -0.000  0.000   -0.000  0.000  0.000   -0.000 -0.000  0.000
 H         -0.123  0.122  0.245    0.001 -0.001 -0.002    0.000 -0.000 -0.000
 H         -0.005 -0.002  0.001   -0.640 -0.310  0.088    0.618  0.294 -0.084
 H         -0.004  0.003  0.001    0.001 -0.000 -0.000    0.000 -0.000 -0.000
 H         -0.005 -0.001 -0.005    0.002  0.000  0.001   -0.001 -0.000 -0.001
 H          0.471 -0.262  0.717   -0.005  0.003 -0.007   -0.001  0.001 -0.002
 H          0.018 -0.307 -0.002   -0.000  0.003  0.000   -0.000 -0.000  0.000
 H          0.001  0.008 -0.000    0.066  0.685 -0.037    0.063  0.714 -0.038
 C          0.000  0.000 -0.000    0.003  0.003 -0.001   -0.002 -0.002  0.001
 C          0.000  0.000  0.000   -0.001 -0.003 -0.000   -0.001 -0.002 -0.000
 H          0.000  0.000 -0.000    0.004  0.003 -0.006    0.001  0.002 -0.002
 H         -0.000 -0.000  0.000    0.008  0.031  0.004    0.005  0.023  0.003
 H         -0.000 -0.000 -0.000    0.003  0.000  0.005    0.000  0.001  0.002
 H          0.000 -0.000  0.000    0.002 -0.003  0.009   -0.000  0.001 -0.005
 H         -0.000 -0.000 -0.000   -0.001 -0.007 -0.007    0.002  0.002  0.003
 H         -0.001 -0.000  0.000   -0.034 -0.023  0.012    0.024  0.016 -0.008
 TransDip  -0.058  0.036 -0.091    0.078 -0.049 -0.006   -0.081 -0.119  0.015

 STANDARD THERMODYNAMIC QUANTITIES AT   298.15 K  AND     1.00 ATM

   This Molecule has  0 Imaginary Frequencies
   Zero point vibrational energy:      150.458 kcal/mol

   Atom    1 Element C  Has Mass   12.00000
   Atom    2 Element C  Has Mass   12.00000
   Atom    3 Element C  Has Mass   12.00000
   Atom    4 Element C  Has Mass   12.00000
   Atom    5 Element O  Has Mass   15.99491
   Atom    6 Element O  Has Mass   15.99491
   Atom    7 Element O  Has Mass   15.99491
   Atom    8 Element O  Has Mass   15.99491
   Atom    9 Element C  Has Mass   12.00000
   Atom   10 Element C  Has Mass   12.00000
   Atom   11 Element C  Has Mass   12.00000
   Atom   12 Element C  Has Mass   12.00000
   Atom   13 Element C  Has Mass   12.00000
   Atom   14 Element C  Has Mass   12.00000
   Atom   15 Element H  Has Mass    1.00783
   Atom   16 Element H  Has Mass    1.00783
   Atom   17 Element H  Has Mass    1.00783
   Atom   18 Element H  Has Mass    1.00783
   Atom   19 Element H  Has Mass    1.00783
   Atom   20 Element H  Has Mass    1.00783
   Atom   21 Element H  Has Mass    1.00783
   Atom   22 Element H  Has Mass    1.00783
   Atom   23 Element C  Has Mass   12.00000
   Atom   24 Element C  Has Mass   12.00000
   Atom   25 Element H  Has Mass    1.00783
   Atom   26 Element H  Has Mass    1.00783
   Atom   27 Element H  Has Mass    1.00783
   Atom   28 Element H  Has Mass    1.00783
   Atom   29 Element H  Has Mass    1.00783
   Atom   30 Element H  Has Mass    1.00783
   Molecular Mass:   222.089260 amu
   Principal axes and moments of inertia in amu*Bohr^2:
                             1           2           3
    Eigenvalues --     2857.89709  3195.19305  5565.89787
          X               0.99994     0.01114     0.00074
          Y              -0.01115     0.99990     0.00826
          Z              -0.00065    -0.00827     0.99997
   Rotational Symmetry Number is   1
   The Molecule is an Asymmetric Top
   Translational Enthalpy:        0.889 kcal/mol
   Rotational Enthalpy:           0.889 kcal/mol
   Vibrational Enthalpy:        159.308 kcal/mol
   gas constant (RT):             0.592 kcal/mol
   Translational Entropy:        42.096  cal/mol.K
   Rotational Entropy:           32.297  cal/mol.K
   Vibrational Entropy:          58.929  cal/mol.K

   Total Enthalpy:              161.678 kcal/mol
   Total Entropy:               133.322  cal/mol.K
Archival summary:
1\1\nid03065\FREQ\ProcedureUnspecified\BasisUnspecified\41214\junteng\WedOct421:27:292017WedOct421:27:292017\0\\#,FREQ,ProcedureUnspecified,BasisUnspecified,\\0,1\O\C,1,1.35007\O,2,1.20695,1,123.52\C,1,1.43889,2,115.883,3,-8.15362,0\H,4,1.08774,1,105.412,2,178.177,0\H,4,1.09058,1,110.601,2,58.4706,0\H,4,1.0912,1,109.831,2,-62.5192,0\C,2,1.49634,1,111.427,3,-178.89,0\C,8,1.40682,2,120.132,1,-45.9025,0\C,9,1.40445,8,120.96,2,-178.76,0\C,10,1.39574,9,117.594,8,-0.928651,0\H,11,1.08504,10,119.113,9,179.685,0\C,11,1.38885,10,121.521,9,0.148033,0\H,13,1.08491,11,119.397,10,-179.615,0\C,13,1.39588,11,121.586,10,0.880336,0\C,9,1.50057,8,119.308,2,-4.46391,0\O,16,1.20767,9,124.341,8,-57.9644,0\O,16,1.34536,9,111.873,8,123.609,0\C,18,1.43981,16,115.727,9,178.793,0\H,19,1.08758,18,105.443,16,179.82,0\H,19,1.09085,18,110.208,16,60.3266,0\H,19,1.09112,18,110.492,16,-60.4364,0\C,15,1.51022,13,119.457,11,179.236,0\H,23,1.09161,15,110.128,13,9.84906,0\H,23,1.09186,15,111.049,13,-110.575,0\H,23,1.0926,15,112.004,13,130.259,0\C,10,1.5107,9,122.506,8,177.863,0\H,27,1.09147,10,110.385,9,-167.27,0\H,27,1.09259,10,111.209,9,72.4438,0\H,27,1.09318,10,111.675,9,-47.3793,0\\\@

 Total job time:  8381.67s(wall), 47268.50s(cpu) 
 Wed Oct  4 21:27:29 2017

        *************************************************************
        *                                                           *
        *  Thank you very much for using Q-Chem.  Have a nice day.  *
        *                                                           *
        *************************************************************


