nid05745 10.128.22
Q-Chem Developer Version! Running on 10.128.22.*
                  Welcome to Q-Chem
     A Quantum Leap Into The Future Of Chemistry


 Q-Chem 5.0, Q-Chem, Inc., Pleasanton, CA (2017)

 Yihan Shao,  Zhengting Gan,  E. Epifanovsky,  A. T. B. Gilbert,  M. Wormit,  
 J. Kussmann,  A. W. Lange,  A. Behn,  Jia Deng,  Xintian Feng,  D. Ghosh,  
 M. Goldey,  P. R. Horn,  L. D. Jacobson,  I. Kaliman,  T. Kus,  A. Landau,  
 Jie Liu,  E. I. Proynov,  R. M. Richard,  R. P. Steele,  E. J. Sundstrom,  
 H. L. Woodcock III,  P. M. Zimmerman,  D. Zuev,  B. Albrecht,  E. Alguire,  
 S. A. Baeppler,  Z. Benda,  Y. A. Bernard,  E. J. Berquist,  K. B. Bravaya,  
 D. Casanova,  Chun-Min Chang,  Yunqing Chen,  A. Chien,  K. D. Closser,  
 M. P. Coons,  S. Dasgupta,  M. Diedenhofen,  Hainam Do,  R. G. Edgar,  
 Po-Tung Fang,  S. Fatehi,  Qingguo Feng,  Qinghui Ge,  A. Ghysels,  
 J. Gomes,  J. Gonthier,  A. Gunina,  M. W. D. Hanson-Heine,  
 P. H. P. Harbach,  A. W. Hauser,  J. E. Herr,  E. G. Hohenstein,  
 Z. C. Holden,  Kerwin Hui,  T.-C. Jagau,  Hyunjun Ji,  B. Kaduk,  
 K. Khistyaev,  Jaehoon Kim,  P. Klunzinger,  K. Koh,  D. Kosenkov,  
 T. Kowalczyk,  C. M. Krauter,  A. Kunitsa,  Ka Un Lao,  A. Laurent,  
 K. V. Lawler,  Joonho Lee,  D. Lefrancois,  S. Lehtola,  D. S. Levine,  
 Yi-Pei Li,  You-Sheng Lin,  Fenglai Liu,  E. Livshits,  A. Luenser,  
 P. Manohar,  E. Mansoor,  S. F. Manzer,  Shan-Ping Mao,  Yuezhi Mao,  
 N. Mardirossian,  A. V. Marenich,  L. A. Martinez-Martinez,  S. A. Maurer,  
 N. J. Mayhall,  S. C. McKenzie,  J.-M. Mewes,  A. F. Morrison,  K. Nanda,  
 T. S. Nguyen-Beck,  R. Olivares-Amaya,  J. A. Parkhill,  T. M. Perrine,  
 F. Plasser,  S. Prager,  A. Prociuk,  D. R. Rehn,  F. Rob,  M. Schneider,  
 N. Sergueev,  S. M. Sharada,  S. Sharma,  D. W. Small,  T. Stauch,  
 T. Stein,  Yu-Chuan Su,  A. J. W. Thom,  T. Tsuchimochi,  L. Vogt,  
 O. Vydrov,  M. A. Watson,  J. Wenzel,  M. de Wergifosse,  T. A. Wesolowski,  
 A. White,  J. Witte,  A. Yamada,  Jun Yang,  K. Yao,  S. Yeganeh,  
 S. R. Yost,  Zhi-Qiang You,  A. Zech,  Igor Ying Zhang,  Xing Zhang,  
 Yan Zhao,  Ying Zhu,  B. R. Brooks,  G. K. L. Chan,  C. J. Cramer,  
 M. S. Gordon,  W. J. Hehre,  A. Klamt,  M. W. Schmidt,  C. D. Sherrill,  
 D. G. Truhlar,  A. Aspuru-Guzik,  R. Baer,  A. T. Bell,  N. A. Besley,  
 Jeng-Da Chai,  A. Dreuw,  B. D. Dunietz,  T. R. Furlani,  Chao-Ping Hsu,  
 Yousung Jung,  Jing Kong,  D. S. Lambrecht,  WanZhen Liang,  C. Ochsenfeld,  
 V. A. Rassolov,  L. V. Slipchenko,  J. E. Subotnik,  T. Van Voorhis,  
 J. M. Herbert,  A. I. Krylov,  P. M. W. Gill,  M. Head-Gordon

 Contributors to earlier versions of Q-Chem not listed above: 
 R. D. Adamson,  B. Austin,  J. Baker,  G. J. O. Beran,  K. Brandhorst,  
 S. T. Brown,  E. F. C. Byrd,  A. K. Chakraborty,  C.-L. Cheng,  
 Siu Hung Chien,  D. M. Chipman,  D. L. Crittenden,  H. Dachsel,  
 R. A. DiStasio Jr.,  R. J. Doerksen,  A. D. Dutoi,  L. Fusti-Molnar,  
 W. A. Goddard III,  A. Golubeva-Zadorozhnaya,  S. R. Gwaltney,  G. Hawkins,  
 A. Heyden,  S. Hirata,  G. Kedziora,  F. J. Keil,  C. Kelley,  Jihan Kim,  
 R. A. King,  R. Z. Khaliullin,  P. P. Korambath,  W. Kurlancheek,  
 A. M. Lee,  M. S. Lee,  S. V. Levchenko,  Ching Yeh Lin,  D. Liotard,  
 R. C. Lochan,  I. Lotan,  P. E. Maslen,  N. Nair,  D. P. O'Neill,  
 D. Neuhauser,  E. Neuscamman,  C. M. Oana,  R. Olson,  B. Peters,  
 R. Peverati,  P. A. Pieniazek,  Y. M. Rhee,  J. Ritchie,  M. A. Rohrdanz,  
 E. Rosta,  N. J. Russ,  H. F. Schaefer III,  N. E. Schultz,  N. Shenvi,  
 A. C. Simmonett,  A. Sodt,  D. Stuck,  K. S. Thanthiriwatte,  V. Vanovschi,  
 Tao Wang,  A. Warshel,  C. F. Williams,  Q. Wu,  X. Xu,  W. Zhang

 Please cite Q-Chem as follows:
 Y. Shao et al., Mol. Phys. 113, 184-215 (2015)
 DOI: 10.1080/00268976.2014.952696

 Q-Chem 5.0.0 for Intel X86 EM64T Linux

 Parts of Q-Chem use Armadillo 5.200.1 (Boston Tea Smuggler).
 http://arma.sourceforge.net/

 Q-Chem begins on Wed Oct  4 17:37:16 2017  

Host: nid05745
0

     Scratch files written to /global/cscratch1/sd/junteng/scratch/14/opt_1101+o.save//

Checking the input file for inconsistencies... 	...done.

--------------------------------------------------------------
User input:
--------------------------------------------------------------
$molecule
0  1
C    0.711  -1.958   0.589
C   -0.299  -1.995   1.756
C    1.089  -0.603   0.022
C   -0.528  -0.668   2.454
O    2.255  -0.726  -0.682
O    0.458   0.435   0.138
O    0.672  -0.221   2.944
O   -1.603  -0.140   2.687
C    0.580   1.027   3.634
C    2.698   0.490  -1.286
C   -0.031  -2.720  -0.508
C   -0.144  -4.202  -0.153
C   -1.210  -4.188   0.944
C   -1.515  -2.680   1.086
O   -1.391  -2.278  -0.299
H    1.639  -2.461   0.888
H    0.068  -2.659   2.552
H   -0.050   0.928   4.523
H    1.951   0.864  -1.993
H   -0.511  -4.776  -1.011
H    0.804  -4.638   0.173
H   -2.087  -4.746   0.595
H   -0.869  -4.649   1.876
H    1.587   1.311   3.953
H    0.196   1.807   2.969
H    3.619   0.278  -1.837
H    2.918   1.240  -0.519
H    0.300  -2.531  -1.532
C   -2.908  -2.427   1.624
H   -3.642  -3.061   1.114
H   -2.968  -2.632   2.696
H   -3.235  -1.402   1.426
$end


$opt
CONSTRAINT
tors    2    1    3    5    167.3
tors    1    2    4    7    -60.0
ENDCONSTRAINT
$end

$rem
JOBTYPE                   OPT
METHOD                    B3LYP
DFT_D                     D3_OP
BASIS                     STO-3G
GEOM_OPT_MAX_CYCLES       500
SYMMETRY                  False
THRESH                    12
SCF_CONVERGENCE           8
MAX_SUB_FILE_NUM          128
MEM_STATIC                400
MEM_TOTAL                 4000
$end

--------------------------------------------------------------
 Adding empirical dispersion correction 
 ----------------------------------------------------------------
 Doing -D3(op) with
 s6 =   1.00000
 s8 =   0.78311
 a1 =   0.30000
 a2 =   4.25000
 n  =  10.00000
 -D3 energy without 3body term =     -0.0354339443 hartrees
 ----------------------------------------------------------------
             Standard Nuclear Orientation (Angstroms)
    I     Atom           X                Y                Z
 ----------------------------------------------------------------
    1      C      -0.1011848019     0.8054220658     0.6072204492
    2      C       0.6620154878    -0.5364971559     0.5955533906
    3      C      -1.4015644380     0.8875516009    -0.1690949129
    4      C      -0.1410572282    -1.7318799813     0.1194146361
    5      O      -2.1190916287     1.9620046977     0.2792423188
    6      O      -1.7586593461     0.1451011244    -1.0692679610
    7      O      -1.2361871469    -1.8724092621     0.9323420513
    8      O       0.1839039632    -2.5367797787    -0.7380435496
    9      C      -2.0705618232    -2.9788079980     0.5833882767
   10      C      -3.3601324547     2.1543130106    -0.4008725103
   11      C       0.8921947687     1.7507805700    -0.0666573788
   12      C       2.1006898551     1.9956119456     0.8359583888
   13      C       2.8581814059     0.6714609442     0.7228580976
   14      C       1.9353848860    -0.1568246325    -0.1989024928
   15      O       1.4677351984     0.8937269451    -1.0780214566
   16      H      -0.3158357451     1.0989107000     1.6422969653
   17      H       0.9675145382    -0.8059543627     1.6169564177
   18      H      -1.5277085504    -3.9211288805     0.7032368423
   19      H      -3.1925366947     2.3218430413    -1.4693196780
   20      H       2.7207990583     2.8058706669     0.4368664437
   21      H       1.8242280680     2.2474343817     1.8632024401
   22      H       3.8327460722     0.8578355890     0.2561866896
   23      H       3.0366664167     0.1979666648     1.6931015044
   24      H      -2.9267737949    -2.9833521908     1.2640838105
   25      H      -2.4439876414    -2.8714877839    -0.4398988433
   26      H      -3.8403685125     3.0440784321     0.0168317195
   27      H      -4.0212059080     1.2961810682    -0.2403095674
   28      H       0.4702491978     2.6594561976    -0.5026946926
   29      C       2.6945415386    -1.2278384490    -0.9542253256
   30      H       3.6222933193    -0.8229488311    -1.3739312116
   31      H       2.9531506788    -2.0694657777    -0.3064647586
   32      H       2.1281180017    -1.5881402477    -1.8179990175
 ----------------------------------------------------------------
 Molecular Point Group                 C1    NOp =  1
 Largest Abelian Subgroup              C1    NOp =  1
 Nuclear Repulsion Energy =  1248.6091517482 hartrees
 There are       61 alpha and       61 beta electrons
 Requested basis set is STO-3G
 There are 48 shells and 96 basis functions

 Total QAlloc Memory Limit   4000 MB
 Mega-Array Size       392 MB
 MEM_STATIC part       400 MB
 A cutoff of  1.0D-12 yielded   1028 shell pairs
 There are      4526 function pairs
 
 -------------------------------------------------------
 OpenMP Integral Computing Module                       
 Release: version 1.0, May 2013, Q-Chem Inc. Pittsburgh 
 -------------------------------------------------------
 Integral Job Info:
 Integral job number is                      11
 Integral operator is                         1
 short-range coefficients                     0
 long-range coefficients              100000000
 Omega coefficients                           0
 if combine SR and LR in K                    0
 Integral screening is                        0
 Integral computing path is                   2
 max size of driver memory is            800000
 size of driver memory is                 45569
 size of scratch memory is               945100
 max col of scratch BK array                289
 max len of scratch array in speh3           22
 max len of scratch index in speh4            8
 max int batch size is                      520
 min int batch size is                       52
 fixed nKL is                                52
 max L of basis functions is                  1
 order of int derivative is                   0
 number of shells is                         48
 number of basis is                          96
 number of cartesian basis is                96
 number of contracted shell pairs          1028
 number of primitive shell pairs           5665
 maxK2 (contraction) of shell pair            9
 max number of K2 of shell pair               1
 max number of CS2 of shell pair            150
 max number of PS2 of shell pair            666
 mem total for path MDJ                   31466
 -------------------------------------------------------
 Smallest overlap matrix eigenvalue = 1.94E-01

 Scale SEOQF with 1.000000e-01/1.000000e-01/1.000000e-01

 Standard Electronic Orientation quadrupole field applied
 Nucleus-field energy     =     0.0000000345 hartrees
 Guess from superposition of atomic densities
 Warning:  Energy on first SCF cycle will be non-variational
 A restricted hybrid HF-DFT SCF calculation will be
 performed using Pulay DIIS extrapolation
 Exchange:     0.2000 Hartree-Fock + 0.0800 Slater + 0.7200 B88
 Correlation:  0.1900 VWN1RPA + 0.8100 LYP
 Using SG-1 standard quadrature grid
 Dispersion:   Grimme D3
 SCF converges when DIIS error is below 1.0E-08
 -------------------------------------------------------
 OpenMP Integral computing Module                
 Release: version 1.0, May 2013, Q-Chem Inc. Pittsburgh 
 -------------------------------------------------------
 -------------------------------------------------------
 OpenMP BLAS3 based DFT computing Module                
 Release: version 1.0, May 2013, Q-Chem Inc. Pittsburgh 
 -------------------------------------------------------
 ---------------------------------------
  Cycle       Energy         DIIS Error
 ---------------------------------------
    1    -793.7951598601      1.10E-01
    2    -794.2843676763      1.34E-02
    3    -793.3333321269      3.22E-02
    4    -794.5216836078      4.73E-03
    5    -794.5484650511      1.51E-03
    6    -794.5513969032      2.61E-04
    7    -794.5514890854      3.74E-05
    8    -794.5514903283      2.22E-05
    9    -794.5514908913      7.66E-06
   10    -794.5514909686      1.53E-06
   11    -794.5514909718      3.16E-07
   12    -794.5514909719      9.25E-08
   13    -794.5514909719      1.78E-08
   14    -794.5514909720      6.56E-09 Convergence criterion met
 ---------------------------------------
 SCF time:  CPU 62.14 s  wall 2.64 s
 SCF   energy in the final basis set = -794.5514909720
 Total energy in the final basis set = -794.5514909720
 
 --------------------------------------------------------------
 
                    Orbital Energies (a.u.)
 --------------------------------------------------------------
 
 Alpha MOs
 -- Occupied --
-18.943 -18.932 -18.868 -18.867 -18.860 -10.109 -10.103 -10.074
-10.066 -10.062 -10.059 -10.033 -10.031 -10.012 -10.008 -10.003
 -1.043  -1.032  -0.988  -0.952  -0.944  -0.774  -0.743  -0.732
 -0.691  -0.670  -0.644  -0.600  -0.547  -0.535  -0.503  -0.481
 -0.469  -0.452  -0.439  -0.430  -0.426  -0.421  -0.414  -0.389
 -0.380  -0.373  -0.369  -0.361  -0.345  -0.338  -0.319  -0.311
 -0.307  -0.306  -0.290  -0.285  -0.273  -0.248  -0.240  -0.217
 -0.183  -0.173  -0.152  -0.141  -0.132
 -- Virtual --
  0.113   0.128   0.246   0.275   0.297   0.311   0.337   0.354
  0.375   0.382   0.400   0.402   0.409   0.414   0.433   0.434
  0.439   0.446   0.447   0.456   0.457   0.463   0.467   0.476
  0.483   0.487   0.501   0.503   0.508   0.531   0.544   0.578
  0.585   0.705   0.710
 --------------------------------------------------------------
 
          Ground-State Mulliken Net Atomic Charges

     Atom                 Charge (a.u.)
  ----------------------------------------
      1 C                    -0.083253
      2 C                    -0.085483
      3 C                     0.238543
      4 C                     0.240385
      5 O                    -0.189915
      6 O                    -0.229133
      7 O                    -0.193361
      8 O                    -0.227914
      9 C                    -0.126235
     10 C                    -0.125671
     11 C                     0.027112
     12 C                    -0.148912
     13 C                    -0.146349
     14 C                     0.112176
     15 O                    -0.212592
     16 H                     0.088932
     17 H                     0.086216
     18 H                     0.090756
     19 H                     0.094062
     20 H                     0.077409
     21 H                     0.072391
     22 H                     0.076456
     23 H                     0.069266
     24 H                     0.092224
     25 H                     0.097060
     26 H                     0.095371
     27 H                     0.092912
     28 H                     0.086999
     29 C                    -0.230002
     30 H                     0.079447
     31 H                     0.082736
     32 H                     0.098367
  ----------------------------------------
  Sum of atomic charges =    -0.000000

 -----------------------------------------------------------------
                    Cartesian Multipole Moments
 -----------------------------------------------------------------
    Charge (ESU x 10^10)
                 0.0000
    Dipole Moment (Debye)
         X      -0.9000      Y       1.0167      Z       2.2398
       Tot       2.6192
    Quadrupole Moments (Debye-Ang)
        XX     -78.1689     XY      -0.4924     YY     -83.5528
        XZ       1.8518     YZ      -3.7325     ZZ     -89.8619
    Octopole Moments (Debye-Ang^2)
       XXX     -39.6060    XXY       2.0281    XYY     -24.2189
       YYY      -4.1508    XXZ      -2.1840    XYZ       5.6095
       YYZ       2.6959    XZZ      -4.9119    YZZ      -1.2831
       ZZZ      -3.9507
    Hexadecapole Moments (Debye-Ang^3)
      XXXX   -1973.1049   XXXY     -37.3837   XXYY    -550.3213
      XYYY      13.0527   YYYY   -1542.9943   XXXZ     -20.5358
      XXYZ     -15.3485   XYYZ       3.7340   YYYZ     -48.0150
      XXZZ    -415.8538   XYZZ      -7.7171   YYZZ    -326.9796
      XZZZ      -2.4473   YZZZ       1.8990   ZZZZ    -354.7750
 -----------------------------------------------------------------
 Calculating analytic gradient of the SCF energy
 Gradient of SCF Energy
            1           2           3           4           5           6
    1   0.0105824  -0.0047585  -0.0132229  -0.0145618  -0.0080439   0.0193486
    2  -0.0094286   0.0006148   0.0177705  -0.0098726  -0.0439694   0.0387808
    3  -0.0409748  -0.0271339  -0.0065933   0.0069328  -0.0438092   0.0463905
            7           8           9          10          11          12
    1   0.0251284  -0.0101926   0.0105892   0.0172321  -0.0122285  -0.0111337
    2  -0.0315334   0.0398761   0.0145324  -0.0014748  -0.0114503  -0.0268783
    3  -0.0462533   0.0454110   0.0056542   0.0108542   0.0065478  -0.0228126
           13          14          15          16          17          18
    1  -0.0225272  -0.0132804   0.0045446   0.0009547   0.0009502  -0.0038117
    2   0.0054772  -0.0016595  -0.0046165  -0.0044751  -0.0029562   0.0135603
    3  -0.0246370   0.0052221   0.0629161  -0.0049379  -0.0071049   0.0038572
           19          20          21          22          23          24
    1   0.0029927   0.0007724   0.0019036  -0.0026177  -0.0008809   0.0067039
    2   0.0017931  -0.0059840  -0.0021286   0.0055801   0.0031867  -0.0023497
    3   0.0137962   0.0006951  -0.0064503   0.0039902  -0.0052610  -0.0078703
           25          26          27          28          29          30
    1   0.0031110   0.0020007   0.0092035   0.0069460  -0.0095853  -0.0048298
    2   0.0045157  -0.0084361   0.0092190  -0.0070614   0.0139670  -0.0048305
    3   0.0126380  -0.0059197   0.0042661   0.0054435   0.0229604  -0.0035494
           31          32
    1   0.0008812   0.0078296
    2   0.0043954   0.0058359
    3  -0.0032957  -0.0009721
 Max gradient component =       6.292E-02
 RMS gradient           =       1.745E-02
 Gradient time:  CPU 16.27 s  wall 0.69 s
 Geometry Optimization Parameters
   NAtoms,    NIC,     NZ,  NCons,   NDum,   NFix, NCnnct, MaxDiis
       32     251       0       2       0       0       0       0


** CONSTRAINED OPTIMIZATION IN DELOCALIZED INTERNAL COORDINATES **
   Searching for a Minimum

   Optimization Cycle:   1

                       Coordinates (Angstroms)
     ATOM                X               Y               Z
      1  C        -0.1011848019    0.8054220658    0.6072204492
      2  C         0.6620154878   -0.5364971559    0.5955533906
      3  C        -1.4015644380    0.8875516009   -0.1690949129
      4  C        -0.1410572282   -1.7318799813    0.1194146361
      5  O        -2.1190916287    1.9620046977    0.2792423188
      6  O        -1.7586593461    0.1451011244   -1.0692679610
      7  O        -1.2361871469   -1.8724092621    0.9323420513
      8  O         0.1839039632   -2.5367797787   -0.7380435496
      9  C        -2.0705618232   -2.9788079980    0.5833882767
     10  C        -3.3601324547    2.1543130106   -0.4008725103
     11  C         0.8921947687    1.7507805700   -0.0666573788
     12  C         2.1006898551    1.9956119456    0.8359583888
     13  C         2.8581814059    0.6714609442    0.7228580976
     14  C         1.9353848860   -0.1568246325   -0.1989024928
     15  O         1.4677351984    0.8937269451   -1.0780214566
     16  H        -0.3158357451    1.0989107000    1.6422969653
     17  H         0.9675145382   -0.8059543627    1.6169564177
     18  H        -1.5277085504   -3.9211288805    0.7032368423
     19  H        -3.1925366947    2.3218430413   -1.4693196780
     20  H         2.7207990583    2.8058706669    0.4368664437
     21  H         1.8242280680    2.2474343817    1.8632024401
     22  H         3.8327460722    0.8578355890    0.2561866896
     23  H         3.0366664167    0.1979666648    1.6931015044
     24  H        -2.9267737949   -2.9833521908    1.2640838105
     25  H        -2.4439876414   -2.8714877839   -0.4398988433
     26  H        -3.8403685125    3.0440784321    0.0168317195
     27  H        -4.0212059080    1.2961810682   -0.2403095674
     28  H         0.4702491978    2.6594561976   -0.5026946926
     29  C         2.6945415386   -1.2278384490   -0.9542253256
     30  H         3.6222933193   -0.8229488311   -1.3739312116
     31  H         2.9531506788   -2.0694657777   -0.3064647586
     32  H         2.1281180017   -1.5881402477   -1.8179990175
   Point Group: c1    Number of degrees of freedom:    90


   Energy is   -794.551490972

              Constraints and their Current Values
                                        Value     Constraint
   Dihedral:        2   1   3   5      161.506      167.300
   Dihedral:        1   2   4   7      -58.727      -60.000

 Attempting to Generate Delocalized Internal Coordinates

   Using Lagrange Multiplier Algorithm


 92 Hessian modes will be used to form the next step
  Hessian Eigenvalues:
    -0.977753   -0.977753    0.045000    0.045000    0.045000    0.045000
     0.045000    0.045010    0.045298    0.045515    0.048619    0.059359
     0.061550    0.067521    0.068252    0.070602    0.073231    0.073438
     0.076637    0.079785    0.081436    0.082111    0.083599    0.083601
     0.084460    0.085259    0.090062    0.091363    0.091986    0.097105
     0.108323    0.112588    0.113785    0.113804    0.116926    0.116971
     0.122385    0.127205    0.139525    0.143598    0.160000    0.160000
     0.160000    0.160000    0.160000    0.160000    0.160000    0.160000
     0.160000    0.167195    0.181257    0.244222    0.248535    0.249951
     0.250000    0.250000    0.250000    0.250000    0.252783    0.262190
     0.267687    0.287879    0.290216    0.306804    0.306860    0.308963
     0.329030    0.337223    0.340066    0.340731    0.341491    0.341652
     0.341740    0.342327    0.342899    0.343079    0.343239    0.343448
     0.343570    0.343585    0.343737    0.344460    0.344599    0.345095
     0.411320    0.412508    0.507662    0.514426    0.952633    0.953292
     1.022753    1.022753

 Minimum Search - Taking P-RFO Step
 Searching for Lamda that Maximizes Along the Constraint modes Only
 Value Taken    Lamda =   0.00537252
 Searching for Lamda that Minimizes Along All other modes
 Value Taken    Lamda =  -0.07085744
 Calculated Step too Large.  Step scaled by  0.700776
 Step Taken.  Stepsize is  0.300000

                             Maximum     Tolerance    Cnvgd?
         Gradient            0.101118       0.000300      NO
         Displacement        0.091779       0.001200      NO
         Energy change     *********       0.000001      NO


 New Cartesian Coordinates Obtained by Inverse Iteration

 Displacement from previous Coordinates is:  0.714613
 Adding empirical dispersion correction 
 ----------------------------------------------------------------
 Doing -D3(op) with
 s6 =   1.00000
 s8 =   0.78311
 a1 =   0.30000
 a2 =   4.25000
 n  =  10.00000
 -D3 energy without 3body term =     -0.0352388455 hartrees
 ----------------------------------------------------------------
             Standard Nuclear Orientation (Angstroms)
    I     Atom           X                Y                Z
 ----------------------------------------------------------------
    1      C      -0.0952642219     0.8257043504     0.6624238992
    2      C       0.6864752199    -0.5304284088     0.6217708237
    3      C      -1.4312300206     0.8599220478    -0.1235533597
    4      C      -0.1511946793    -1.7365723499     0.1132082728
    5      O      -2.1551910442     1.9907474200     0.2763493503
    6      O      -1.7901014260     0.0726792522    -1.0164067779
    7      O      -1.2499101829    -1.8849352197     0.9754841239
    8      O       0.1345004812    -2.5389920779    -0.7909615771
    9      C      -2.1105781046    -2.9967846639     0.5929761693
   10      C      -3.4080722864     2.1385823607    -0.4534370153
   11      C       0.9280630733     1.7831333549    -0.0490329900
   12      C       2.1588168507     2.0335665285     0.8796903072
   13      C       2.9197519053     0.6791054419     0.7466093922
   14      C       1.9703061633    -0.1409774992    -0.2105312664
   15      O       1.4920464777     0.9264729804    -1.1025100689
   16      H      -0.3004094499     1.1413124889     1.6987116126
   17      H       1.0117165546    -0.8086749880     1.6402209967
   18      H      -1.5787279617    -3.9641214819     0.6587354809
   19      H      -3.2370904748     2.2407753865    -1.5411717121
   20      H       2.7758699210     2.8541900797     0.4865848374
   21      H       1.8790935085     2.2817425546     1.9136143496
   22      H       3.8967492655     0.8480302957     0.2719253228
   23      H       3.0968308091     0.1857121493     1.7134464622
   24      H      -2.9548854824    -3.0104614314     1.3024421505
   25      H      -2.5111257279    -2.8655161312    -0.4292276744
   26      H      -3.8900539855     3.0596792076    -0.0850608074
   27      H      -4.0877805548     1.2861541041    -0.2674666339
   28      H       0.4918385451     2.6946788618    -0.4890926984
   29      C       2.7056856627    -1.2337940047    -1.0046940329
   30      H       3.6355996977    -0.8284110765    -1.4297291052
   31      H       2.9592579963    -2.0882272415    -0.3640037219
   32      H       2.1025702111    -1.5822579766    -1.8542770240
 ----------------------------------------------------------------
 Molecular Point Group                 C1    NOp =  1
 Largest Abelian Subgroup              C1    NOp =  1
 Nuclear Repulsion Energy =  1230.0059655430 hartrees
 There are       61 alpha and       61 beta electrons
 Applying Cartesian multipole field
    Component          Value
    ---------          -----
     (2,0,0)        1.00000E-11
     (0,2,0)        2.00000E-11
     (0,0,2)       -3.00000E-11
 Nucleus-field energy     =     0.0000000349 hartrees
 Requested basis set is STO-3G
 There are 48 shells and 96 basis functions
 A cutoff of  1.0D-12 yielded   1024 shell pairs
 There are      4516 function pairs
 Smallest overlap matrix eigenvalue = 2.08E-01
 Guess MOs from SCF MO coefficient file
 Reading MOs from coefficient file
 Reading MOs from coefficient file
 A restricted hybrid HF-DFT SCF calculation will be
 performed using Pulay DIIS extrapolation
 Exchange:     0.2000 Hartree-Fock + 0.0800 Slater + 0.7200 B88
 Correlation:  0.1900 VWN1RPA + 0.8100 LYP
 Using SG-1 standard quadrature grid
 Dispersion:   Grimme D3
 SCF converges when DIIS error is below 1.0E-08
 Geometry optimization detected.  Setting ReadMinima to 0
 Setting SaveMinima to 0
 -------------------------------------------------------
 OpenMP Integral computing Module                
 Release: version 1.0, May 2013, Q-Chem Inc. Pittsburgh 
 -------------------------------------------------------
 -------------------------------------------------------
 OpenMP BLAS3 based DFT computing Module                
 Release: version 1.0, May 2013, Q-Chem Inc. Pittsburgh 
 -------------------------------------------------------
 ---------------------------------------
  Cycle       Energy         DIIS Error
 ---------------------------------------
    1    -794.4229160654      5.43E-03
    2    -794.5776250462      1.86E-03
    3    -794.5719822712      2.83E-03
    4    -794.5817593206      6.18E-04
    5    -794.5822781189      1.04E-04
    6    -794.5822934091      2.15E-05
    7    -794.5822936807      1.79E-05
    8    -794.5822940819      4.60E-06
    9    -794.5822941123      7.39E-07
   10    -794.5822941130      3.00E-07
   11    -794.5822941131      4.97E-08
   12    -794.5822941131      1.70E-08
   13    -794.5822941131      3.17E-09 Convergence criterion met
 ---------------------------------------
 SCF time:  CPU 58.71 s  wall 2.47 s
 SCF   energy in the final basis set = -794.5822941131
 Total energy in the final basis set = -794.5822941131
 
 --------------------------------------------------------------
 
                    Orbital Energies (a.u.)
 --------------------------------------------------------------
 
 Alpha MOs
 -- Occupied --
-18.940 -18.927 -18.874 -18.871 -18.861 -10.103 -10.096 -10.070
-10.061 -10.061 -10.057 -10.035 -10.031 -10.014 -10.010 -10.005
 -1.024  -1.012  -0.972  -0.941  -0.931  -0.764  -0.731  -0.721
 -0.680  -0.661  -0.638  -0.594  -0.542  -0.529  -0.496  -0.474
 -0.457  -0.443  -0.431  -0.420  -0.417  -0.410  -0.406  -0.382
 -0.379  -0.367  -0.364  -0.351  -0.342  -0.336  -0.311  -0.307
 -0.305  -0.302  -0.289  -0.280  -0.269  -0.251  -0.242  -0.223
 -0.181  -0.169  -0.152  -0.140  -0.136
 -- Virtual --
  0.103   0.120   0.240   0.258   0.280   0.296   0.319   0.339
  0.358   0.360   0.373   0.382   0.394   0.400   0.413   0.423
  0.427   0.429   0.434   0.439   0.440   0.443   0.448   0.452
  0.456   0.472   0.484   0.486   0.492   0.515   0.522   0.556
  0.562   0.666   0.673
 --------------------------------------------------------------
 
          Ground-State Mulliken Net Atomic Charges

     Atom                 Charge (a.u.)
  ----------------------------------------
      1 C                    -0.079099
      2 C                    -0.082148
      3 C                     0.222450
      4 C                     0.224636
      5 O                    -0.178759
      6 O                    -0.217568
      7 O                    -0.184181
      8 O                    -0.218832
      9 C                    -0.124993
     10 C                    -0.124868
     11 C                     0.025423
     12 C                    -0.146394
     13 C                    -0.145064
     14 C                     0.108027
     15 O                    -0.201176
     16 H                     0.087449
     17 H                     0.083969
     18 H                     0.087330
     19 H                     0.091425
     20 H                     0.076760
     21 H                     0.072328
     22 H                     0.075001
     23 H                     0.069155
     24 H                     0.088635
     25 H                     0.093773
     26 H                     0.092394
     27 H                     0.090099
     28 H                     0.083641
     29 C                    -0.227345
     30 H                     0.078683
     31 H                     0.081357
     32 H                     0.097895
  ----------------------------------------
  Sum of atomic charges =     0.000000

 -----------------------------------------------------------------
                    Cartesian Multipole Moments
 -----------------------------------------------------------------
    Charge (ESU x 10^10)
                 0.0000
    Dipole Moment (Debye)
         X      -0.7519      Y       1.0421      Z       2.1492
       Tot       2.5041
    Quadrupole Moments (Debye-Ang)
        XX     -77.7918     XY      -0.5513     YY     -83.7558
        XZ       2.2434     YZ      -3.4590     ZZ     -89.6035
    Octopole Moments (Debye-Ang^2)
       XXX     -40.1485    XXY       1.8062    XYY     -22.9337
       YYY      -5.6691    XXZ      -3.4527    XYZ       6.4877
       YYZ       2.2774    XZZ      -5.1512    YZZ      -0.5375
       ZZZ      -5.6355
    Hexadecapole Moments (Debye-Ang^3)
      XXXX   -2030.3584   XXXY     -50.4980   XXYY    -563.5195
      XYYY       3.7687   YYYY   -1557.6325   XXXZ     -19.1116
      XXYZ     -18.2355   XYYZ       3.8217   YYYZ     -49.8876
      XXZZ    -427.8973   XYZZ     -12.1231   YYZZ    -334.5082
      XZZZ      -3.7691   YZZZ      -1.8597   ZZZZ    -371.2563
 -----------------------------------------------------------------
 Calculating analytic gradient of the SCF energy
 Gradient of SCF Energy
            1           2           3           4           5           6
    1   0.0017346  -0.0011846  -0.0074615  -0.0120580  -0.0030756   0.0062130
    2  -0.0086439   0.0037856   0.0139465   0.0026185  -0.0199093   0.0114869
    3  -0.0141698  -0.0126191   0.0060996   0.0107716  -0.0190537   0.0105181
            7           8           9          10          11          12
    1   0.0117209   0.0000608   0.0052789   0.0096681  -0.0066591  -0.0039920
    2  -0.0136303   0.0083643   0.0080738   0.0002384  -0.0027133  -0.0071890
    3  -0.0221020   0.0130606   0.0041085   0.0067565   0.0042452  -0.0071947
           13          14          15          16          17          18
    1  -0.0065921  -0.0086176   0.0058185  -0.0005538   0.0021998  -0.0013512
    2   0.0013576  -0.0041920  -0.0031946  -0.0014923  -0.0016214   0.0031981
    3  -0.0108162   0.0020369   0.0204664  -0.0013512  -0.0025045   0.0022507
           19          20          21          22          23          24
    1   0.0004510   0.0010739   0.0016923  -0.0010210   0.0014062   0.0010420
    2   0.0018925  -0.0025526   0.0009260   0.0029458   0.0015520  -0.0016671
    3   0.0034976   0.0008473  -0.0018684   0.0026112  -0.0013922  -0.0028620
           25          26          27          28          29          30
    1  -0.0002324  -0.0006575   0.0016730   0.0034685  -0.0040754  -0.0018221
    2   0.0013370  -0.0024035   0.0029792  -0.0025486   0.0047850  -0.0021077
    3   0.0037125  -0.0023950   0.0018276   0.0009183   0.0118406  -0.0028806
           31          32
    1   0.0009465   0.0049056
    2   0.0014579   0.0029206
    3  -0.0014535  -0.0029063
 Max gradient component =       2.210E-02
 RMS gradient           =       6.980E-03
 Gradient time:  CPU 15.92 s  wall 0.67 s
 Geometry Optimization Parameters
   NAtoms,    NIC,     NZ,  NCons,   NDum,   NFix, NCnnct, MaxDiis
       32     251       0       2       0       0       0       0

 Cartesian Hessian Update
 Hessian Updated using BFGS Update


** CONSTRAINED OPTIMIZATION IN DELOCALIZED INTERNAL COORDINATES **
   Searching for a Minimum

   Optimization Cycle:   2

                       Coordinates (Angstroms)
     ATOM                X               Y               Z
      1  C        -0.0952642219    0.8257043504    0.6624238992
      2  C         0.6864752199   -0.5304284088    0.6217708237
      3  C        -1.4312300206    0.8599220478   -0.1235533597
      4  C        -0.1511946793   -1.7365723499    0.1132082728
      5  O        -2.1551910442    1.9907474200    0.2763493503
      6  O        -1.7901014260    0.0726792522   -1.0164067779
      7  O        -1.2499101829   -1.8849352197    0.9754841239
      8  O         0.1345004812   -2.5389920779   -0.7909615771
      9  C        -2.1105781046   -2.9967846639    0.5929761693
     10  C        -3.4080722864    2.1385823607   -0.4534370153
     11  C         0.9280630733    1.7831333549   -0.0490329900
     12  C         2.1588168507    2.0335665285    0.8796903072
     13  C         2.9197519053    0.6791054419    0.7466093922
     14  C         1.9703061633   -0.1409774992   -0.2105312664
     15  O         1.4920464777    0.9264729804   -1.1025100689
     16  H        -0.3004094499    1.1413124889    1.6987116126
     17  H         1.0117165546   -0.8086749880    1.6402209967
     18  H        -1.5787279617   -3.9641214819    0.6587354809
     19  H        -3.2370904748    2.2407753865   -1.5411717121
     20  H         2.7758699210    2.8541900797    0.4865848374
     21  H         1.8790935085    2.2817425546    1.9136143496
     22  H         3.8967492655    0.8480302957    0.2719253228
     23  H         3.0968308091    0.1857121493    1.7134464622
     24  H        -2.9548854824   -3.0104614314    1.3024421505
     25  H        -2.5111257279   -2.8655161312   -0.4292276744
     26  H        -3.8900539855    3.0596792076   -0.0850608074
     27  H        -4.0877805548    1.2861541041   -0.2674666339
     28  H         0.4918385451    2.6946788618   -0.4890926984
     29  C         2.7056856627   -1.2337940047   -1.0046940329
     30  H         3.6355996977   -0.8284110765   -1.4297291052
     31  H         2.9592579963   -2.0882272415   -0.3640037219
     32  H         2.1025702111   -1.5822579766   -1.8542770240
   Point Group: c1    Number of degrees of freedom:    90


   Energy is   -794.582294113

              Constraints and their Current Values
                                        Value     Constraint
   Dihedral:        2   1   3   5      165.422      167.300
   Dihedral:        1   2   4   7      -59.596      -60.000
 Hessian Updated using BFGS Update

   Using Lagrange Multiplier Algorithm


 80 Hessian modes will be used to form the next step
  Hessian Eigenvalues:
    -0.977912   -0.977032    0.044935    0.045001    0.045010    0.045267
     0.045515    0.048618    0.059347    0.061277    0.067513    0.068218
     0.070553    0.073238    0.073454    0.076595    0.079781    0.081330
     0.082130    0.083380    0.083600    0.084428    0.085316    0.090057
     0.091286    0.091966    0.096958    0.108094    0.112734    0.113726
     0.113796    0.116927    0.116971    0.122394    0.128343    0.139712
     0.143662    0.158786    0.161574    0.167169    0.180864    0.242924
     0.244692    0.248697    0.249951    0.250118    0.253124    0.262481
     0.268879    0.289333    0.295493    0.306761    0.308569    0.318327
     0.328629    0.337250    0.340075    0.340677    0.341488    0.341726
     0.342187    0.342715    0.342998    0.343221    0.343340    0.343534
     0.343583    0.343706    0.344435    0.344583    0.345017    0.374995
     0.411903    0.416447    0.497009    0.512641    0.952782    0.971709
     1.022699    1.026185

 Minimum Search - Taking P-RFO Step
 Searching for Lamda that Maximizes Along the Constraint modes Only
 Value Taken    Lamda =   0.00051069
 Searching for Lamda that Minimizes Along All other modes
 Value Taken    Lamda =  -0.01276768
 Step Taken.  Stepsize is  0.268708

                             Maximum     Tolerance    Cnvgd?
         Gradient            0.032776       0.000300      NO
         Displacement        0.088647       0.001200      NO
         Energy change     -0.030803       0.000001      NO


 New Cartesian Coordinates Obtained by Inverse Iteration

 Displacement from previous Coordinates is:  1.018859
 Adding empirical dispersion correction 
 ----------------------------------------------------------------
 Doing -D3(op) with
 s6 =   1.00000
 s8 =   0.78311
 a1 =   0.30000
 a2 =   4.25000
 n  =  10.00000
 -D3 energy without 3body term =     -0.0355249640 hartrees
 ----------------------------------------------------------------
             Standard Nuclear Orientation (Angstroms)
    I     Atom           X                Y                Z
 ----------------------------------------------------------------
    1      C      -0.0582798366     0.8598637304     0.7190123951
    2      C       0.7158125880    -0.5090914467     0.6621820526
    3      C      -1.4097461248     0.8251337384    -0.0661978849
    4      C      -0.1603110499    -1.6986554873     0.1256813849
    5      O      -2.1618463698     1.9820553646     0.2852230851
    6      O      -1.7689977980    -0.0227055873    -0.9148449449
    7      O      -1.2700373462    -1.8292363963     1.0171820038
    8      O       0.0647161877    -2.4760834625    -0.8268035140
    9      C      -2.1560382236    -2.9098031960     0.5481802072
   10      C      -3.4220518255     2.0074905423    -0.4828917217
   11      C       0.9624958337     1.8153476898    -0.0327669842
   12      C       2.2090362833     2.0567319859     0.8995075443
   13      C       2.9638048001     0.6837455509     0.7539330678
   14      C       1.9906666783    -0.1207936824    -0.2117916905
   15      O       1.4928231736     0.9539628883    -1.1106149224
   16      H      -0.2449718809     1.1983758669     1.7536734449
   17      H       1.0503745415    -0.7937002755     1.6773071789
   18      H      -1.6422594487    -3.8935410823     0.5484590093
   19      H      -3.2356321094     2.0280477526    -1.5765624428
   20      H       2.8184485676     2.8865283807     0.5067540915
   21      H       1.9263298357     2.2925253128     1.9382374887
   22      H       3.9408119374     0.8258521298     0.2643414858
   23      H       3.1309673660     0.1728350962     1.7158759060
   24      H      -3.0043535397    -2.9381362864     1.2573940477
   25      H      -2.5352737125    -2.7092950167    -0.4750807717
   26      H      -3.9448938376     2.9336898640    -0.1798849325
   27      H      -4.0607113984     1.1302943739    -0.2509886542
   28      H       0.5059223914     2.7261573202    -0.4681724627
   29      C       2.6732778285    -1.2437982303    -1.0320195110
   30      H       3.6028592146    -0.8582268887    -1.4795418760
   31      H       2.9161226080    -2.0997971169    -0.3848437377
   32      H       2.0044914064    -1.5837391185    -1.8369012562
 ----------------------------------------------------------------
 Molecular Point Group                 C1    NOp =  1
 Largest Abelian Subgroup              C1    NOp =  1
 Nuclear Repulsion Energy =  1229.4005316951 hartrees
 There are       61 alpha and       61 beta electrons
 Applying Cartesian multipole field
    Component          Value
    ---------          -----
     (2,0,0)        1.00000E-11
     (0,2,0)        2.00000E-11
     (0,0,2)       -3.00000E-11
 Nucleus-field energy     =     0.0000000340 hartrees
 Requested basis set is STO-3G
 There are 48 shells and 96 basis functions
 A cutoff of  1.0D-12 yielded   1023 shell pairs
 There are      4512 function pairs
 Smallest overlap matrix eigenvalue = 2.13E-01
 Guess MOs from SCF MO coefficient file
 Reading MOs from coefficient file
 Reading MOs from coefficient file
 A restricted hybrid HF-DFT SCF calculation will be
 performed using Pulay DIIS extrapolation
 Exchange:     0.2000 Hartree-Fock + 0.0800 Slater + 0.7200 B88
 Correlation:  0.1900 VWN1RPA + 0.8100 LYP
 Using SG-1 standard quadrature grid
 Dispersion:   Grimme D3
 SCF converges when DIIS error is below 1.0E-08
 Geometry optimization detected.  Setting ReadMinima to 0
 Setting SaveMinima to 0
 -------------------------------------------------------
 OpenMP Integral computing Module                
 Release: version 1.0, May 2013, Q-Chem Inc. Pittsburgh 
 -------------------------------------------------------
 -------------------------------------------------------
 OpenMP BLAS3 based DFT computing Module                
 Release: version 1.0, May 2013, Q-Chem Inc. Pittsburgh 
 -------------------------------------------------------
 ---------------------------------------
  Cycle       Energy         DIIS Error
 ---------------------------------------
    1    -794.4911264245      4.84E-03
    2    -794.5867542936      1.24E-03
    3    -794.5826290404      2.21E-03
    4    -794.5886828765      4.02E-04
    5    -794.5888991474      9.55E-05
    6    -794.5889115759      2.35E-05
    7    -794.5889119127      1.91E-05
    8    -794.5889123795      4.61E-06
    9    -794.5889124103      6.68E-07
   10    -794.5889124108      2.92E-07
   11    -794.5889124109      5.43E-08
   12    -794.5889124110      2.02E-08
   13    -794.5889124110      3.73E-09 Convergence criterion met
 ---------------------------------------
 SCF time:  CPU 56.36 s  wall 2.37 s
 SCF   energy in the final basis set = -794.5889124110
 Total energy in the final basis set = -794.5889124110
 
 --------------------------------------------------------------
 
                    Orbital Energies (a.u.)
 --------------------------------------------------------------
 
 Alpha MOs
 -- Occupied --
-18.940 -18.920 -18.877 -18.877 -18.862 -10.101 -10.091 -10.067
-10.059 -10.057 -10.055 -10.036 -10.030 -10.017 -10.012 -10.005
 -1.017  -1.000  -0.965  -0.939  -0.925  -0.761  -0.726  -0.717
 -0.673  -0.654  -0.635  -0.591  -0.540  -0.525  -0.492  -0.470
 -0.453  -0.439  -0.429  -0.415  -0.414  -0.404  -0.401  -0.380
 -0.377  -0.367  -0.357  -0.349  -0.339  -0.334  -0.311  -0.307
 -0.306  -0.296  -0.289  -0.276  -0.267  -0.255  -0.245  -0.227
 -0.182  -0.165  -0.155  -0.140  -0.138
 -- Virtual --
  0.097   0.118   0.239   0.253   0.275   0.288   0.310   0.328
  0.345   0.347   0.359   0.374   0.387   0.393   0.405   0.419
  0.423   0.424   0.428   0.431   0.433   0.437   0.440   0.442
  0.450   0.464   0.475   0.480   0.490   0.505   0.514   0.548
  0.554   0.648   0.660
 --------------------------------------------------------------
 
          Ground-State Mulliken Net Atomic Charges

     Atom                 Charge (a.u.)
  ----------------------------------------
      1 C                    -0.078054
      2 C                    -0.082094
      3 C                     0.216674
      4 C                     0.217338
      5 O                    -0.170088
      6 O                    -0.210673
      7 O                    -0.179297
      8 O                    -0.215449
      9 C                    -0.127202
     10 C                    -0.127218
     11 C                     0.024878
     12 C                    -0.144761
     13 C                    -0.144388
     14 C                     0.105012
     15 O                    -0.195889
     16 H                     0.086941
     17 H                     0.082271
     18 H                     0.085505
     19 H                     0.090762
     20 H                     0.076797
     21 H                     0.072700
     22 H                     0.074445
     23 H                     0.070068
     24 H                     0.085483
     25 H                     0.092779
     26 H                     0.090713
     27 H                     0.089427
     28 H                     0.082424
     29 C                    -0.226961
     30 H                     0.078193
     31 H                     0.080037
     32 H                     0.099627
  ----------------------------------------
  Sum of atomic charges =    -0.000000

 -----------------------------------------------------------------
                    Cartesian Multipole Moments
 -----------------------------------------------------------------
    Charge (ESU x 10^10)
                 0.0000
    Dipole Moment (Debye)
         X      -0.6071      Y       1.0931      Z       2.0063
       Tot       2.3640
    Quadrupole Moments (Debye-Ang)
        XX     -77.8965     XY      -0.5705     YY     -84.5451
        XZ       2.7245     YZ      -3.0347     ZZ     -89.3840
    Octopole Moments (Debye-Ang^2)
       XXX     -40.5710    XXY       0.5675    XYY     -19.5137
       YYY      -7.6426    XXZ      -5.1575    XYZ       6.3579
       YYZ       0.9260    XZZ      -5.7294    YZZ      -0.2845
       ZZZ      -8.4168
    Hexadecapole Moments (Debye-Ang^3)
      XXXX   -2057.1736   XXXY     -67.9778   XXYY    -567.0224
      XYYY     -16.4254   YYYY   -1508.1888   XXXZ     -19.6633
      XXYZ     -21.6844   XYYZ       3.1940   YYYZ     -53.7201
      XXZZ    -432.1426   XYZZ     -19.4233   YYZZ    -328.4960
      XZZZ      -4.4128   YZZZ     -11.0506   ZZZZ    -377.1916
 -----------------------------------------------------------------
 Calculating analytic gradient of the SCF energy
 Gradient of SCF Energy
            1           2           3           4           5           6
    1   0.0014082  -0.0020464  -0.0042377  -0.0049844   0.0002420   0.0008560
    2  -0.0032468   0.0031163   0.0026219   0.0000762  -0.0010723  -0.0013786
    3  -0.0011759  -0.0039169   0.0022234   0.0063953  -0.0016554  -0.0003176
            7           8           9          10          11          12
    1   0.0013325   0.0013718   0.0032767   0.0042699  -0.0014747  -0.0026357
    2   0.0012224  -0.0014800   0.0024469  -0.0018801   0.0005113  -0.0009576
    3  -0.0049644  -0.0006932  -0.0002987   0.0016055   0.0029260  -0.0000482
           13          14          15          16          17          18
    1  -0.0011505  -0.0032606   0.0023844   0.0004891   0.0015856   0.0001022
    2  -0.0010498  -0.0026240   0.0009537   0.0001073   0.0000894  -0.0001938
    3  -0.0009764   0.0008685   0.0007524   0.0003802  -0.0000486   0.0002742
           19          20          21          22          23          24
    1   0.0000430   0.0002219   0.0007924   0.0002250   0.0013832  -0.0000811
    2   0.0001571  -0.0001116   0.0010716   0.0005277   0.0000017   0.0002989
    3  -0.0002835  -0.0004173   0.0001492   0.0001255   0.0001293   0.0002284
           25          26          27          28          29          30
    1  -0.0002606   0.0001307  -0.0002549   0.0002919  -0.0012243   0.0001368
    2  -0.0001854   0.0002266  -0.0000203  -0.0003361  -0.0006804   0.0004162
    3  -0.0000800   0.0002181   0.0001576  -0.0018179   0.0025846  -0.0004153
           31          32
    1  -0.0000418   0.0011095
    2  -0.0000823   0.0014541
    3  -0.0000529  -0.0018559
 Max gradient component =       6.395E-03
 RMS gradient           =       1.750E-03
 Gradient time:  CPU 16.28 s  wall 0.68 s
 Geometry Optimization Parameters
   NAtoms,    NIC,     NZ,  NCons,   NDum,   NFix, NCnnct, MaxDiis
       32     251       0       2       0       0       0       0

 Cartesian Hessian Update
 Hessian Updated using BFGS Update


** CONSTRAINED OPTIMIZATION IN DELOCALIZED INTERNAL COORDINATES **
   Searching for a Minimum

   Optimization Cycle:   3

                       Coordinates (Angstroms)
     ATOM                X               Y               Z
      1  C        -0.0582798366    0.8598637304    0.7190123951
      2  C         0.7158125880   -0.5090914467    0.6621820526
      3  C        -1.4097461248    0.8251337384   -0.0661978849
      4  C        -0.1603110499   -1.6986554873    0.1256813849
      5  O        -2.1618463698    1.9820553646    0.2852230851
      6  O        -1.7689977980   -0.0227055873   -0.9148449449
      7  O        -1.2700373462   -1.8292363963    1.0171820038
      8  O         0.0647161877   -2.4760834625   -0.8268035140
      9  C        -2.1560382236   -2.9098031960    0.5481802072
     10  C        -3.4220518255    2.0074905423   -0.4828917217
     11  C         0.9624958337    1.8153476898   -0.0327669842
     12  C         2.2090362833    2.0567319859    0.8995075443
     13  C         2.9638048001    0.6837455509    0.7539330678
     14  C         1.9906666783   -0.1207936824   -0.2117916905
     15  O         1.4928231736    0.9539628883   -1.1106149224
     16  H        -0.2449718809    1.1983758669    1.7536734449
     17  H         1.0503745415   -0.7937002755    1.6773071789
     18  H        -1.6422594487   -3.8935410823    0.5484590093
     19  H        -3.2356321094    2.0280477526   -1.5765624428
     20  H         2.8184485676    2.8865283807    0.5067540915
     21  H         1.9263298357    2.2925253128    1.9382374887
     22  H         3.9408119374    0.8258521298    0.2643414858
     23  H         3.1309673660    0.1728350962    1.7158759060
     24  H        -3.0043535397   -2.9381362864    1.2573940477
     25  H        -2.5352737125   -2.7092950167   -0.4750807717
     26  H        -3.9448938376    2.9336898640   -0.1798849325
     27  H        -4.0607113984    1.1302943739   -0.2509886542
     28  H         0.5059223914    2.7261573202   -0.4681724627
     29  C         2.6732778285   -1.2437982303   -1.0320195110
     30  H         3.6028592146   -0.8582268887   -1.4795418760
     31  H         2.9161226080   -2.0997971169   -0.3848437377
     32  H         2.0044914064   -1.5837391185   -1.8369012562
   Point Group: c1    Number of degrees of freedom:    90


   Energy is   -794.588912411

              Constraints and their Current Values
                                        Value     Constraint
   Dihedral:        2   1   3   5      167.288      167.300
   Dihedral:        1   2   4   7      -59.993      -60.000
 Hessian Updated using BFGS Update

   Using Lagrange Multiplier Algorithm


 83 Hessian modes will be used to form the next step
  Hessian Eigenvalues:
    -0.977679   -0.974978    0.044109    0.045000    0.045003    0.045155
     0.045305    0.045724    0.048660    0.059433    0.060362    0.067146
     0.068390    0.071193    0.073108    0.073547    0.076178    0.079192
     0.080735    0.082073    0.082973    0.083709    0.084403    0.085586
     0.090129    0.091206    0.092178    0.096606    0.107856    0.113222
     0.113705    0.113795    0.116927    0.116972    0.124074    0.129001
     0.140148    0.143725    0.159112    0.160476    0.161618    0.174309
     0.180079    0.242163    0.245884    0.248984    0.249987    0.250107
     0.251680    0.261916    0.267359    0.274101    0.289660    0.295587
     0.306509    0.308623    0.315264    0.328223    0.337053    0.339752
     0.340551    0.340993    0.341638    0.341790    0.342517    0.342968
     0.343207    0.343317    0.343525    0.343586    0.343700    0.344430
     0.344599    0.345192    0.372037    0.393390    0.412043    0.476549
     0.512749    0.952609    0.976755    1.022934    1.036864

 Minimum Search - Taking P-RFO Step
 Searching for Lamda that Maximizes Along the Constraint modes Only
 Value Taken    Lamda =   0.00002940
 Searching for Lamda that Minimizes Along All other modes
 Value Taken    Lamda =  -0.00113963
 Step Taken.  Stepsize is  0.106511

                             Maximum     Tolerance    Cnvgd?
         Gradient            0.006644       0.000300      NO
         Displacement        0.033835       0.001200      NO
         Energy change     -0.006618       0.000001      NO


 New Cartesian Coordinates Obtained by Inverse Iteration

 Displacement from previous Coordinates is:  0.204823
 Adding empirical dispersion correction 
 ----------------------------------------------------------------
 Doing -D3(op) with
 s6 =   1.00000
 s8 =   0.78311
 a1 =   0.30000
 a2 =   4.25000
 n  =  10.00000
 -D3 energy without 3body term =     -0.0354891726 hartrees
 ----------------------------------------------------------------
             Standard Nuclear Orientation (Angstroms)
    I     Atom           X                Y                Z
 ----------------------------------------------------------------
    1      C      -0.0570995929     0.8600408830     0.7282701782
    2      C       0.7266541361    -0.5137932264     0.6667659338
    3      C      -1.4062065834     0.8324512984    -0.0695191036
    4      C      -0.1450273477    -1.7141790927     0.1313246734
    5      O      -2.1711955489     1.9887761253     0.2836880891
    6      O      -1.7655872323    -0.0071827911    -0.9263113794
    7      O      -1.2592547019    -1.8557216527     1.0312707810
    8      O       0.0704054952    -2.4811181440    -0.8310937701
    9      C      -2.1606499048    -2.9292031326     0.5556095993
   10      C      -3.4332654503     2.0260950645    -0.4957981058
   11      C       0.9637765311     1.8173557354    -0.0280874976
   12      C       2.2161012223     2.0615435084     0.9002559308
   13      C       2.9737228278     0.6925857448     0.7483208472
   14      C       1.9990093824    -0.1145736641    -0.2152609266
   15      O       1.4818405021     0.9550770815    -1.1131725452
   16      H      -0.2458695201     1.1944833028     1.7634052807
   17      H       1.0570074609    -0.7989441488     1.6823728666
   18      H      -1.6516878039    -3.9149352320     0.5325844324
   19      H      -3.2383778948     2.0567817463    -1.5874224085
   20      H       2.8194872089     2.8980384933     0.5127847690
   21      H       1.9291513016     2.2852769186     1.9403242846
   22      H       3.9500402949     0.8327395204     0.2570669439
   23      H       3.1352007913     0.1778696552     1.7086892705
   24      H      -3.0024393838    -2.9652805834     1.2718860628
   25      H      -2.5455580676    -2.7087740296    -0.4613124949
   26      H      -3.9591244913     2.9482687926    -0.1866449475
   27      H      -4.0714614783     1.1447640025    -0.2797509316
   28      H       0.4985746924     2.7299728169    -0.4500821912
   29      C       2.6750418521    -1.2449549220    -1.0352591385
   30      H       3.5992091874    -0.8684157366    -1.4997402832
   31      H       2.9251208001    -2.0908582461    -0.3774010720
   32      H       1.9860180555    -1.6021517738    -1.8147260618
 ----------------------------------------------------------------
 Molecular Point Group                 C1    NOp =  1
 Largest Abelian Subgroup              C1    NOp =  1
 Nuclear Repulsion Energy =  1225.7091500641 hartrees
 There are       61 alpha and       61 beta electrons
 Applying Cartesian multipole field
    Component          Value
    ---------          -----
     (2,0,0)        1.00000E-11
     (0,2,0)        2.00000E-11
     (0,0,2)       -3.00000E-11
 Nucleus-field energy     =     0.0000000342 hartrees
 Requested basis set is STO-3G
 There are 48 shells and 96 basis functions
 A cutoff of  1.0D-12 yielded   1022 shell pairs
 There are      4508 function pairs
 Smallest overlap matrix eigenvalue = 2.14E-01
 Guess MOs from SCF MO coefficient file
 Reading MOs from coefficient file
 Reading MOs from coefficient file
 A restricted hybrid HF-DFT SCF calculation will be
 performed using Pulay DIIS extrapolation
 Exchange:     0.2000 Hartree-Fock + 0.0800 Slater + 0.7200 B88
 Correlation:  0.1900 VWN1RPA + 0.8100 LYP
 Using SG-1 standard quadrature grid
 Dispersion:   Grimme D3
 SCF converges when DIIS error is below 1.0E-08
 Geometry optimization detected.  Setting ReadMinima to 0
 Setting SaveMinima to 0
 -------------------------------------------------------
 OpenMP Integral computing Module                
 Release: version 1.0, May 2013, Q-Chem Inc. Pittsburgh 
 -------------------------------------------------------
 -------------------------------------------------------
 OpenMP BLAS3 based DFT computing Module                
 Release: version 1.0, May 2013, Q-Chem Inc. Pittsburgh 
 -------------------------------------------------------
 ---------------------------------------
  Cycle       Energy         DIIS Error
 ---------------------------------------
    1    -794.5727303646      1.19E-03
    2    -794.5892693017      3.70E-04
    3    -794.5887338559      7.43E-04
    4    -794.5894498847      6.56E-05
    5    -794.5894556420      1.93E-05
    6    -794.5894560546      8.83E-06
    7    -794.5894561284      4.71E-06
    8    -794.5894561581      9.42E-07
    9    -794.5894561594      1.34E-07
   10    -794.5894561595      7.33E-08
   11    -794.5894561595      1.22E-08
   12    -794.5894561594      5.12E-09 Convergence criterion met
 ---------------------------------------
 SCF time:  CPU 52.72 s  wall 2.22 s
 SCF   energy in the final basis set = -794.5894561594
 Total energy in the final basis set = -794.5894561594
 
 --------------------------------------------------------------
 
                    Orbital Energies (a.u.)
 --------------------------------------------------------------
 
 Alpha MOs
 -- Occupied --
-18.936 -18.918 -18.879 -18.876 -18.865 -10.099 -10.091 -10.066
-10.059 -10.057 -10.055 -10.036 -10.030 -10.017 -10.013 -10.005
 -1.012  -0.997  -0.964  -0.936  -0.924  -0.759  -0.725  -0.717
 -0.671  -0.653  -0.635  -0.591  -0.540  -0.525  -0.490  -0.469
 -0.451  -0.439  -0.429  -0.413  -0.413  -0.403  -0.400  -0.380
 -0.376  -0.367  -0.357  -0.348  -0.339  -0.335  -0.311  -0.307
 -0.306  -0.295  -0.289  -0.276  -0.267  -0.253  -0.244  -0.227
 -0.179  -0.165  -0.154  -0.141  -0.139
 -- Virtual --
  0.097   0.116   0.235   0.249   0.270   0.287   0.307   0.326
  0.342   0.344   0.355   0.373   0.384   0.391   0.403   0.418
  0.422   0.423   0.427   0.431   0.432   0.435   0.440   0.441
  0.450   0.463   0.474   0.479   0.491   0.502   0.512   0.546
  0.553   0.646   0.657
 --------------------------------------------------------------
 
          Ground-State Mulliken Net Atomic Charges

     Atom                 Charge (a.u.)
  ----------------------------------------
      1 C                    -0.077374
      2 C                    -0.081374
      3 C                     0.214358
      4 C                     0.215418
      5 O                    -0.170228
      6 O                    -0.210580
      7 O                    -0.178047
      8 O                    -0.213372
      9 C                    -0.128612
     10 C                    -0.128378
     11 C                     0.024633
     12 C                    -0.144748
     13 C                    -0.144590
     14 C                     0.104774
     15 O                    -0.194582
     16 H                     0.087063
     17 H                     0.082114
     18 H                     0.085497
     19 H                     0.090532
     20 H                     0.077134
     21 H                     0.073041
     22 H                     0.074919
     23 H                     0.070655
     24 H                     0.085980
     25 H                     0.092476
     26 H                     0.090844
     27 H                     0.089246
     28 H                     0.082407
     29 C                    -0.227877
     30 H                     0.078512
     31 H                     0.079596
     32 H                     0.100565
  ----------------------------------------
  Sum of atomic charges =    -0.000000

 -----------------------------------------------------------------
                    Cartesian Multipole Moments
 -----------------------------------------------------------------
    Charge (ESU x 10^10)
                -0.0000
    Dipole Moment (Debye)
         X      -0.5380      Y       1.0602      Z       2.0088
       Tot       2.3342
    Quadrupole Moments (Debye-Ang)
        XX     -77.8002     XY      -0.4878     YY     -84.4018
        XZ       2.7617     YZ      -2.9903     ZZ     -89.4494
    Octopole Moments (Debye-Ang^2)
       XXX     -41.1402    XXY       0.5809    XYY     -19.9236
       YYY      -7.9422    XXZ      -5.3581    XYZ       6.4797
       YYZ       0.7816    XZZ      -5.8661    YZZ      -0.1635
       ZZZ      -8.2298
    Hexadecapole Moments (Debye-Ang^3)
      XXXX   -2061.6178   XXXY     -66.9663   XXYY    -569.2314
      XYYY     -14.5399   YYYY   -1521.2957   XXXZ     -20.4557
      XXYZ     -21.8590   XYYZ       3.0377   YYYZ     -51.7697
      XXZZ    -433.7406   XYZZ     -19.0392   YYZZ    -331.8982
      XZZZ      -5.4599   YZZZ      -9.2766   ZZZZ    -380.5620
 -----------------------------------------------------------------
 Calculating analytic gradient of the SCF energy
 Gradient of SCF Energy
            1           2           3           4           5           6
    1  -0.0001971   0.0013495   0.0006713   0.0013072   0.0005070  -0.0006280
    2  -0.0005597   0.0011856   0.0012485  -0.0012528  -0.0004408  -0.0005410
    3   0.0024641  -0.0024506   0.0018058   0.0031366  -0.0006284  -0.0012307
            7           8           9          10          11          12
    1  -0.0012460   0.0007791  -0.0011224  -0.0012812  -0.0007006  -0.0006167
    2   0.0012596  -0.0013077  -0.0004426   0.0010555   0.0009665  -0.0000366
    3  -0.0014336  -0.0006238   0.0006821   0.0000049   0.0012192   0.0009660
           13          14          15          16          17          18
    1   0.0000043  -0.0007322   0.0005499   0.0005503   0.0004065  -0.0000150
    2   0.0001464  -0.0011131   0.0005096  -0.0000136  -0.0003157  -0.0001242
    3   0.0002190   0.0006351  -0.0018763   0.0000781  -0.0004718  -0.0000780
           19          20          21          22          23          24
    1  -0.0001305   0.0002101   0.0003173   0.0000450   0.0004593  -0.0003098
    2  -0.0001820  -0.0000823   0.0005186   0.0002429   0.0000181  -0.0001620
    3  -0.0001147  -0.0003684   0.0000721  -0.0001915  -0.0000120  -0.0000063
           25          26          27          28          29          30
    1   0.0001696  -0.0004107  -0.0001171  -0.0002168   0.0001658   0.0004142
    2  -0.0001533   0.0001060  -0.0000809  -0.0002506  -0.0009245   0.0000335
    3  -0.0001372  -0.0002071  -0.0001879  -0.0007893  -0.0000425   0.0004437
           31          32
    1  -0.0005888   0.0004064
    2  -0.0002150   0.0009076
    3  -0.0001712  -0.0007053
 Max gradient component =       3.137E-03
 RMS gradient           =       8.313E-04
 Gradient time:  CPU 15.98 s  wall 0.67 s
 Geometry Optimization Parameters
   NAtoms,    NIC,     NZ,  NCons,   NDum,   NFix, NCnnct, MaxDiis
       32     251       0       2       0       0       0       0

 Cartesian Hessian Update
 Hessian Updated using BFGS Update


** CONSTRAINED OPTIMIZATION IN DELOCALIZED INTERNAL COORDINATES **
   Searching for a Minimum

   Optimization Cycle:   4

                       Coordinates (Angstroms)
     ATOM                X               Y               Z
      1  C        -0.0570995929    0.8600408830    0.7282701782
      2  C         0.7266541361   -0.5137932264    0.6667659338
      3  C        -1.4062065834    0.8324512984   -0.0695191036
      4  C        -0.1450273477   -1.7141790927    0.1313246734
      5  O        -2.1711955489    1.9887761253    0.2836880891
      6  O        -1.7655872323   -0.0071827911   -0.9263113794
      7  O        -1.2592547019   -1.8557216527    1.0312707810
      8  O         0.0704054952   -2.4811181440   -0.8310937701
      9  C        -2.1606499048   -2.9292031326    0.5556095993
     10  C        -3.4332654503    2.0260950645   -0.4957981058
     11  C         0.9637765311    1.8173557354   -0.0280874976
     12  C         2.2161012223    2.0615435084    0.9002559308
     13  C         2.9737228278    0.6925857448    0.7483208472
     14  C         1.9990093824   -0.1145736641   -0.2152609266
     15  O         1.4818405021    0.9550770815   -1.1131725452
     16  H        -0.2458695201    1.1944833028    1.7634052807
     17  H         1.0570074609   -0.7989441488    1.6823728666
     18  H        -1.6516878039   -3.9149352320    0.5325844324
     19  H        -3.2383778948    2.0567817463   -1.5874224085
     20  H         2.8194872089    2.8980384933    0.5127847690
     21  H         1.9291513016    2.2852769186    1.9403242846
     22  H         3.9500402949    0.8327395204    0.2570669439
     23  H         3.1352007913    0.1778696552    1.7086892705
     24  H        -3.0024393838   -2.9652805834    1.2718860628
     25  H        -2.5455580676   -2.7087740296   -0.4613124949
     26  H        -3.9591244913    2.9482687926   -0.1866449475
     27  H        -4.0714614783    1.1447640025   -0.2797509316
     28  H         0.4985746924    2.7299728169   -0.4500821912
     29  C         2.6750418521   -1.2449549220   -1.0352591385
     30  H         3.5992091874   -0.8684157366   -1.4997402832
     31  H         2.9251208001   -2.0908582461   -0.3774010720
     32  H         1.9860180555   -1.6021517738   -1.8147260618
   Point Group: c1    Number of degrees of freedom:    90


   Energy is   -794.589456159

              Constraints and their Current Values
                                        Value     Constraint
   Dihedral:        2   1   3   5      167.300      167.300
   Dihedral:        1   2   4   7      -60.000      -60.000
 Hessian Updated using BFGS Update

   Using Lagrange Multiplier Algorithm


 86 Hessian modes will be used to form the next step
  Hessian Eigenvalues:
    -0.977675   -0.974432    0.032757    0.045000    0.045002    0.045020
     0.045193    0.045456    0.045742    0.048755    0.056223    0.059561
     0.066965    0.068435    0.071415    0.072837    0.073408    0.075094
     0.079549    0.080601    0.082037    0.082832    0.083768    0.084479
     0.085716    0.090409    0.091239    0.092227    0.096548    0.107341
     0.113573    0.113795    0.114310    0.116927    0.116971    0.124469
     0.128622    0.141366    0.143808    0.159367    0.160178    0.160662
     0.161594    0.175417    0.181960    0.242683    0.244835    0.249120
     0.249989    0.250000    0.250160    0.251572    0.262079    0.267861
     0.287070    0.292991    0.300925    0.306913    0.309309    0.323224
     0.329170    0.337673    0.340233    0.340735    0.341508    0.341745
     0.342453    0.342956    0.343179    0.343316    0.343508    0.343556
     0.343694    0.344363    0.344515    0.344961    0.349225    0.379118
     0.411979    0.450888    0.512425    0.517629    0.952731    0.974126
     1.022999    1.037840

 Minimum Search - Taking P-RFO Step
 Searching for Lamda that Maximizes Along the Constraint modes Only
 Value Taken    Lamda =   0.00000349
 Searching for Lamda that Minimizes Along All other modes
 Value Taken    Lamda =  -0.00027166
 Step Taken.  Stepsize is  0.071965

                             Maximum     Tolerance    Cnvgd?
         Gradient            0.003613       0.000300      NO
         Displacement        0.025844       0.001200      NO
         Energy change     -0.000544       0.000001      NO


 New Cartesian Coordinates Obtained by Inverse Iteration

 Displacement from previous Coordinates is:  0.222063
 Adding empirical dispersion correction 
 ----------------------------------------------------------------
 Doing -D3(op) with
 s6 =   1.00000
 s8 =   0.78311
 a1 =   0.30000
 a2 =   4.25000
 n  =  10.00000
 -D3 energy without 3body term =     -0.0355866048 hartrees
 ----------------------------------------------------------------
             Standard Nuclear Orientation (Angstroms)
    I     Atom           X                Y                Z
 ----------------------------------------------------------------
    1      C      -0.0540324924     0.8588867238     0.7351168266
    2      C       0.7332551434    -0.5123109775     0.6709715790
    3      C      -1.4008709183     0.8218764185    -0.0641562293
    4      C      -0.1433978788    -1.7068986356     0.1330110273
    5      O      -2.1729495133     1.9744961576     0.2890316519
    6      O      -1.7555096437    -0.0218116555    -0.9180386538
    7      O      -1.2561176578    -1.8450404644     1.0371841292
    8      O       0.0568806289    -2.4638510631    -0.8395163824
    9      C      -2.1696509300    -2.9011081376     0.5458108033
   10      C      -3.4311720050     1.9983337529    -0.4965520322
   11      C       0.9650898308     1.8166478068    -0.0254441500
   12      C       2.2210885915     2.0635371628     0.8977784592
   13      C       2.9800596160     0.6965698804     0.7437351177
   14      C       2.0030553050    -0.1116577052    -0.2153801045
   15      O       1.4760636178     0.9531505758    -1.1117260281
   16      H      -0.2457507973     1.1927516277     1.7698546205
   17      H       1.0621459930    -0.7974859572     1.6873007196
   18      H      -1.6705907154    -3.8911083727     0.5028379744
   19      H      -3.2310755757     2.0309777771    -1.5870842679
   20      H       2.8205752504     2.9035837938     0.5127872974
   21      H       1.9327551680     2.2814487062     1.9385498461
   22      H       3.9560931457     0.8344747013     0.2519402999
   23      H       3.1389665157     0.1814945897     1.7041590342
   24      H      -3.0074173201    -2.9408581521     1.2660885689
   25      H      -2.5575278344    -2.6574605634    -0.4646542288
   26      H      -3.9651902901     2.9158515987    -0.1887589743
   27      H      -4.0613354585     1.1110142450    -0.2818760155
   28      H       0.4963598480     2.7301637307    -0.4407960652
   29      C       2.6738610009    -1.2465215727    -1.0330396913
   30      H       3.5904929142    -0.8742037198    -1.5145853926
   31      H       2.9359279018    -2.0826336999    -0.3670966125
   32      H       1.9734752995    -1.6202742580    -1.7944160411
 ----------------------------------------------------------------
 Molecular Point Group                 C1    NOp =  1
 Largest Abelian Subgroup              C1    NOp =  1
 Nuclear Repulsion Energy =  1227.5695374185 hartrees
 There are       61 alpha and       61 beta electrons
 Applying Cartesian multipole field
    Component          Value
    ---------          -----
     (2,0,0)        1.00000E-11
     (0,2,0)        2.00000E-11
     (0,0,2)       -3.00000E-11
 Nucleus-field energy     =     0.0000000339 hartrees
 Requested basis set is STO-3G
 There are 48 shells and 96 basis functions
 A cutoff of  1.0D-12 yielded   1022 shell pairs
 There are      4508 function pairs
 Smallest overlap matrix eigenvalue = 2.13E-01
 Guess MOs from SCF MO coefficient file
 Reading MOs from coefficient file
 Reading MOs from coefficient file
 A restricted hybrid HF-DFT SCF calculation will be
 performed using Pulay DIIS extrapolation
 Exchange:     0.2000 Hartree-Fock + 0.0800 Slater + 0.7200 B88
 Correlation:  0.1900 VWN1RPA + 0.8100 LYP
 Using SG-1 standard quadrature grid
 Dispersion:   Grimme D3
 SCF converges when DIIS error is below 1.0E-08
 Geometry optimization detected.  Setting ReadMinima to 0
 Setting SaveMinima to 0
 -------------------------------------------------------
 OpenMP Integral computing Module                
 Release: version 1.0, May 2013, Q-Chem Inc. Pittsburgh 
 -------------------------------------------------------
 -------------------------------------------------------
 OpenMP BLAS3 based DFT computing Module                
 Release: version 1.0, May 2013, Q-Chem Inc. Pittsburgh 
 -------------------------------------------------------
 ---------------------------------------
  Cycle       Energy         DIIS Error
 ---------------------------------------
    1    -794.5902204848      8.39E-04
    2    -794.5896084089      7.61E-05
    3    -794.5895947057      1.39E-04
    4    -794.5896195330      2.85E-05
    5    -794.5896205093      9.27E-06
    6    -794.5896206219      2.86E-06
    7    -794.5896206322      1.14E-06
    8    -794.5896206336      5.14E-07
    9    -794.5896206340      6.80E-08
   10    -794.5896206340      2.82E-08
   11    -794.5896206340      7.17E-09 Convergence criterion met
 ---------------------------------------
 SCF time:  CPU 47.59 s  wall 2.00 s
 SCF   energy in the final basis set = -794.5896206340
 Total energy in the final basis set = -794.5896206340
 
 --------------------------------------------------------------
 
                    Orbital Energies (a.u.)
 --------------------------------------------------------------
 
 Alpha MOs
 -- Occupied --
-18.936 -18.918 -18.879 -18.877 -18.865 -10.100 -10.091 -10.065
-10.059 -10.057 -10.054 -10.036 -10.030 -10.018 -10.013 -10.005
 -1.013  -0.997  -0.965  -0.937  -0.924  -0.760  -0.725  -0.717
 -0.671  -0.653  -0.635  -0.591  -0.540  -0.525  -0.490  -0.469
 -0.452  -0.439  -0.429  -0.413  -0.413  -0.403  -0.400  -0.381
 -0.376  -0.367  -0.356  -0.348  -0.338  -0.335  -0.311  -0.307
 -0.306  -0.295  -0.289  -0.276  -0.267  -0.254  -0.245  -0.228
 -0.180  -0.164  -0.155  -0.141  -0.139
 -- Virtual --
  0.097   0.116   0.236   0.250   0.271   0.288   0.308   0.326
  0.341   0.344   0.354   0.373   0.384   0.391   0.403   0.419
  0.422   0.424   0.428   0.431   0.433   0.435   0.440   0.441
  0.450   0.463   0.474   0.479   0.492   0.502   0.513   0.545
  0.553   0.646   0.659
 --------------------------------------------------------------
 
          Ground-State Mulliken Net Atomic Charges

     Atom                 Charge (a.u.)
  ----------------------------------------
      1 C                    -0.077562
      2 C                    -0.081526
      3 C                     0.214866
      4 C                     0.215722
      5 O                    -0.169786
      6 O                    -0.210359
      7 O                    -0.178320
      8 O                    -0.213418
      9 C                    -0.128999
     10 C                    -0.128629
     11 C                     0.024804
     12 C                    -0.144810
     13 C                    -0.144726
     14 C                     0.105027
     15 O                    -0.194683
     16 H                     0.087084
     17 H                     0.081828
     18 H                     0.085526
     19 H                     0.090581
     20 H                     0.077334
     21 H                     0.073129
     22 H                     0.075147
     23 H                     0.070867
     24 H                     0.085623
     25 H                     0.092528
     26 H                     0.090767
     27 H                     0.089315
     28 H                     0.082298
     29 C                    -0.228543
     30 H                     0.078626
     31 H                     0.079170
     32 H                     0.101118
  ----------------------------------------
  Sum of atomic charges =    -0.000000

 -----------------------------------------------------------------
                    Cartesian Multipole Moments
 -----------------------------------------------------------------
    Charge (ESU x 10^10)
                -0.0000
    Dipole Moment (Debye)
         X      -0.5255      Y       1.0753      Z       1.9980
       Tot       2.3291
    Quadrupole Moments (Debye-Ang)
        XX     -77.7772     XY      -0.4938     YY     -84.5159
        XZ       2.7886     YZ      -2.9403     ZZ     -89.4954
    Octopole Moments (Debye-Ang^2)
       XXX     -41.1832    XXY       0.4262    XYY     -19.3323
       YYY      -7.8391    XXZ      -5.5614    XYZ       6.4257
       YYZ       0.5702    XZZ      -5.9171    YZZ      -0.0425
       ZZZ      -8.3906
    Hexadecapole Moments (Debye-Ang^3)
      XXXX   -2064.0632   XXXY     -68.9502   XXYY    -568.1819
      XYYY     -17.8765   YYYY   -1504.8159   XXXZ     -20.7201
      XXYZ     -22.3030   XYYZ       2.8279   YYYZ     -52.3449
      XXZZ    -433.8694   XYZZ     -20.2053   YYZZ    -329.3167
      XZZZ      -5.6064   YZZZ     -11.1683   ZZZZ    -380.3785
 -----------------------------------------------------------------
 Calculating analytic gradient of the SCF energy
 Gradient of SCF Energy
            1           2           3           4           5           6
    1  -0.0014330   0.0009777   0.0003829   0.0022838   0.0002210  -0.0002025
    2  -0.0003067   0.0014079  -0.0005899  -0.0025862   0.0009016  -0.0006432
    3   0.0031912  -0.0033344   0.0001238   0.0022655   0.0004549  -0.0002730
            7           8           9          10          11          12
    1  -0.0019387  -0.0000732  -0.0007882  -0.0009675   0.0001193   0.0002578
    2   0.0023262  -0.0001836  -0.0005576   0.0002495   0.0003612   0.0003960
    3  -0.0006993  -0.0000366  -0.0000557  -0.0004831   0.0003861   0.0005447
           13          14          15          16          17          18
    1   0.0003435   0.0002128  -0.0001585   0.0003348   0.0000970   0.0000178
    2   0.0005039  -0.0000759  -0.0002553  -0.0000869  -0.0000785  -0.0001086
    3   0.0000648   0.0002571  -0.0010923   0.0000986  -0.0000639   0.0000104
           19          20          21          22          23          24
    1  -0.0000035   0.0001401  -0.0000039  -0.0001202   0.0000139   0.0000280
    2  -0.0001289  -0.0001482   0.0001811   0.0000519   0.0000064   0.0000647
    3  -0.0000850  -0.0001501  -0.0000655  -0.0001299  -0.0000467  -0.0000525
           25          26          27          28          29          30
    1   0.0001061   0.0000885   0.0000023  -0.0002569   0.0003641   0.0004218
    2  -0.0000493  -0.0000339  -0.0001089  -0.0002542  -0.0001503  -0.0002652
    3  -0.0001284  -0.0000041  -0.0000399  -0.0001090  -0.0006306   0.0006977
           31          32
    1  -0.0008112   0.0003442
    2  -0.0003401   0.0005011
    3  -0.0002065  -0.0004083
 Max gradient component =       3.334E-03
 RMS gradient           =       8.111E-04
 Gradient time:  CPU 16.43 s  wall 0.69 s
 Geometry Optimization Parameters
   NAtoms,    NIC,     NZ,  NCons,   NDum,   NFix, NCnnct, MaxDiis
       32     251       0       2       0       0       0       0

 Cartesian Hessian Update
 Hessian Updated using BFGS Update


** CONSTRAINED OPTIMIZATION IN DELOCALIZED INTERNAL COORDINATES **
   Searching for a Minimum

   Optimization Cycle:   5

                       Coordinates (Angstroms)
     ATOM                X               Y               Z
[...]
 TransDip   0.136  0.215  0.160   -0.141  0.408  0.417   -0.128  0.040  0.038

 Mode:                76                     77                     78
 Frequency:      3048.68                3049.60                3055.21
 Force Cnst:      5.6371                 5.6418                 5.8667
 Red. Mass:       1.0294                 1.0296                 1.0667
 IR Active:          YES                    YES                    YES
 IR Intens:       33.340                 37.697                 14.856
 Raman Active:       YES                    YES                    YES
               X      Y      Z        X      Y      Z        X      Y      Z
 C          0.000 -0.000 -0.001   -0.000  0.000  0.001   -0.001  0.002  0.007
 C          0.001 -0.001  0.004   -0.000  0.000 -0.000   -0.012  0.011 -0.044
 C         -0.000  0.000  0.000    0.001 -0.002 -0.001    0.000 -0.000  0.000
 C          0.002 -0.000 -0.002    0.000 -0.000 -0.000    0.000 -0.000 -0.002
 O          0.000 -0.000  0.000   -0.002  0.001 -0.001   -0.000  0.000 -0.000
 O         -0.000 -0.000 -0.000    0.000  0.001  0.001   -0.000 -0.000 -0.000
 O         -0.002 -0.001  0.000   -0.000 -0.000  0.000   -0.000 -0.000  0.000
 O         -0.000  0.001  0.001   -0.000  0.000  0.000   -0.000  0.000  0.000
 C         -0.023 -0.032 -0.019   -0.003 -0.004 -0.003   -0.001 -0.002 -0.001
 C          0.005  0.000  0.004   -0.034 -0.002 -0.028    0.000  0.000  0.000
 C          0.000 -0.000  0.000   -0.000  0.000 -0.000   -0.001  0.002 -0.001
 C          0.000  0.000  0.000   -0.000 -0.000 -0.000   -0.009 -0.027 -0.020
 C         -0.001  0.001 -0.001   -0.001  0.000 -0.000    0.033 -0.017  0.023
 C          0.000  0.000 -0.000    0.000  0.000  0.000   -0.000 -0.000 -0.000
 O         -0.000 -0.000  0.000   -0.000  0.000  0.000    0.000  0.000  0.000
 H         -0.001  0.002  0.006    0.002 -0.003 -0.009    0.015 -0.027 -0.083
 H         -0.013  0.012 -0.051    0.001 -0.001  0.004    0.144 -0.124  0.528
 H         -0.249  0.578 -0.014   -0.034  0.079 -0.002   -0.013  0.030 -0.001
 H          0.018  0.018 -0.081   -0.134 -0.134  0.592    0.002  0.002 -0.007
 H         -0.002 -0.002  0.001    0.004  0.005 -0.002    0.206  0.243 -0.122
 H          0.001 -0.001 -0.004   -0.002  0.001  0.005   -0.112  0.076  0.357
 H          0.015  0.002 -0.008    0.005  0.001 -0.003   -0.341 -0.037  0.173
 H          0.002 -0.011  0.020    0.000 -0.002  0.004   -0.037  0.237 -0.444
 H          0.322 -0.047 -0.312    0.044 -0.006 -0.042    0.017 -0.002 -0.016
 H          0.217 -0.135  0.558    0.030 -0.019  0.077    0.011 -0.007  0.029
 H         -0.025  0.048  0.028    0.180 -0.345 -0.203   -0.002  0.004  0.002
 H         -0.051 -0.070  0.006    0.375  0.507 -0.040   -0.004 -0.006  0.000
 H         -0.001  0.002 -0.001    0.001 -0.002  0.001    0.009 -0.024  0.010
 C          0.001 -0.001 -0.000    0.001 -0.001 -0.000    0.003 -0.002 -0.001
 H         -0.016 -0.007  0.009   -0.009 -0.004  0.005   -0.039 -0.018  0.021
 H         -0.005  0.016 -0.012   -0.003  0.009 -0.007   -0.011  0.035 -0.027
 H          0.006  0.003  0.007    0.004  0.002  0.004    0.013  0.008  0.016
 TransDip  -0.115 -0.144  0.015   -0.182  0.043 -0.061    0.069 -0.096 -0.035

 Mode:                79                     80                     81
 Frequency:      3060.10                3067.28                3093.60
 Force Cnst:      5.9169                 5.8892                 6.2441
 Red. Mass:       1.0724                 1.0624                 1.1074
 IR Active:          YES                    YES                    YES
 IR Intens:       20.699                 37.866                  0.581
 Raman Active:       YES                    YES                    YES
               X      Y      Z        X      Y      Z        X      Y      Z
 C         -0.001  0.001  0.004   -0.001  0.002  0.007   -0.002  0.003  0.009
 C         -0.015  0.014 -0.058   -0.006  0.006 -0.024    0.002 -0.002  0.007
 C          0.000 -0.000  0.000    0.000  0.000  0.000   -0.000  0.000  0.000
 C          0.000 -0.000 -0.002    0.000  0.000 -0.001   -0.000  0.000  0.000
 O         -0.000  0.000 -0.000   -0.000  0.000 -0.000    0.000 -0.000 -0.000
 O         -0.000 -0.000 -0.000   -0.000 -0.000 -0.000    0.000 -0.000 -0.000
 O         -0.000 -0.000  0.000   -0.000 -0.000  0.000   -0.000 -0.000 -0.000
 O         -0.000  0.000  0.000   -0.000  0.000  0.000    0.000 -0.000 -0.000
 C         -0.001 -0.001 -0.001   -0.000 -0.000  0.000    0.000  0.000 -0.000
 C          0.000 -0.000  0.000    0.000  0.000  0.000    0.000 -0.000 -0.000
 C          0.001 -0.003  0.001   -0.001  0.004 -0.002    0.003 -0.006  0.002
 C          0.011  0.035  0.024   -0.008 -0.031 -0.023    0.038  0.024 -0.053
 C         -0.013  0.001  0.000   -0.044  0.018 -0.020   -0.032 -0.020  0.049
 C         -0.001 -0.000 -0.000   -0.000  0.001  0.000   -0.001 -0.000  0.000
 O          0.000 -0.000  0.000    0.000 -0.000  0.000   -0.000  0.000  0.000
 H          0.010 -0.015 -0.048    0.014 -0.027 -0.080    0.018 -0.036 -0.105
 H          0.188 -0.163  0.694    0.077 -0.068  0.288   -0.021  0.020 -0.084
 H         -0.009  0.022 -0.001   -0.000  0.001 -0.000    0.001 -0.001  0.000
 H          0.000  0.001 -0.002    0.002  0.002 -0.008   -0.000 -0.000  0.000
 H         -0.264 -0.313  0.157    0.224  0.266 -0.135   -0.325 -0.394  0.177
 H          0.137 -0.092 -0.433   -0.127  0.087  0.401   -0.132  0.109  0.451
 H          0.143  0.014 -0.068    0.469  0.049 -0.233    0.425  0.037 -0.195
 H          0.004 -0.032  0.066    0.038 -0.250  0.467   -0.045  0.205 -0.384
 H          0.012 -0.002 -0.012    0.000 -0.000 -0.001   -0.001  0.000  0.001
 H          0.008 -0.004  0.020    0.000  0.000 -0.000   -0.000 -0.000 -0.000
 H         -0.001  0.001  0.001   -0.002  0.004  0.002   -0.000  0.000  0.000
 H         -0.001 -0.001  0.000   -0.004 -0.006  0.000   -0.000 -0.000  0.000
 H         -0.011  0.031 -0.012    0.020 -0.052  0.023   -0.028  0.067 -0.033
 C         -0.003  0.003  0.001   -0.004  0.003  0.001    0.005  0.011 -0.009
 H          0.046  0.020 -0.025    0.050  0.022 -0.027   -0.090 -0.040  0.045
 H          0.013 -0.039  0.030    0.015 -0.044  0.033    0.035 -0.095  0.074
 H         -0.019 -0.010 -0.020   -0.020 -0.012 -0.024   -0.004 -0.000 -0.010
 TransDip  -0.017  0.144  0.012   -0.157 -0.005 -0.119    0.023  0.009 -0.001

 Mode:                82                     83                     84
 Frequency:      3102.41                3110.08                3116.36
 Force Cnst:      6.2492                 6.2486                 6.2702
 Red. Mass:       1.1020                 1.0965                 1.0958
 IR Active:          YES                    YES                    YES
 IR Intens:       12.448                 18.152                 37.217
 Raman Active:       YES                    YES                    YES
               X      Y      Z        X      Y      Z        X      Y      Z
 C         -0.001  0.002  0.007    0.010 -0.018 -0.054    0.010 -0.019 -0.055
 C          0.001 -0.000  0.000   -0.001  0.001 -0.002   -0.003  0.003 -0.009
 C         -0.000  0.000  0.000    0.001 -0.001 -0.001    0.001 -0.001 -0.001
 C          0.000 -0.000 -0.000    0.000  0.000 -0.000    0.000  0.000 -0.000
 O         -0.000 -0.000 -0.000   -0.000  0.000  0.000   -0.000  0.000  0.000
 O          0.000 -0.000 -0.000    0.000  0.000  0.000    0.000  0.000  0.000
 O         -0.000 -0.000  0.000   -0.000 -0.000  0.000   -0.000 -0.000  0.000
 O         -0.000  0.000  0.000   -0.000 -0.000 -0.000   -0.000  0.000  0.000
 C         -0.000  0.000  0.000   -0.000  0.000  0.000    0.000 -0.000  0.000
 C          0.000  0.000 -0.000   -0.000  0.000  0.000   -0.001 -0.001  0.001
 C          0.001 -0.002  0.001   -0.004  0.008 -0.004    0.001 -0.001 -0.001
 C          0.013  0.008 -0.018   -0.019 -0.013  0.024    0.026  0.014 -0.039
 C          0.003  0.002 -0.004   -0.030 -0.018  0.044    0.023  0.015 -0.035
 C         -0.001 -0.001  0.001   -0.001 -0.001  0.001    0.000  0.001 -0.001
 O         -0.000  0.000 -0.000    0.000  0.000 -0.000   -0.000  0.000  0.001
 H          0.016 -0.029 -0.087   -0.117  0.216  0.640   -0.121  0.218  0.651
 H         -0.002  0.002 -0.010    0.010 -0.008  0.027    0.031 -0.030  0.114
 H          0.001 -0.003 -0.000    0.001 -0.002  0.000   -0.002  0.004  0.000
 H         -0.000 -0.000  0.001   -0.000 -0.001  0.003    0.002  0.001 -0.005
 H         -0.110 -0.134  0.060    0.170  0.210 -0.094   -0.208 -0.255  0.114
 H         -0.045  0.037  0.151    0.059 -0.050 -0.197   -0.105  0.087  0.354
 H         -0.036 -0.002  0.019    0.400  0.034 -0.184   -0.308 -0.025  0.142
 H          0.004 -0.017  0.028   -0.041  0.182 -0.336    0.034 -0.152  0.280
 H          0.001 -0.000 -0.001    0.001 -0.000 -0.001    0.001 -0.000 -0.001
 H          0.000 -0.000  0.000   -0.000  0.000 -0.000   -0.001  0.001 -0.003
 H         -0.000  0.000  0.000    0.001 -0.003 -0.002    0.001 -0.003 -0.002
 H         -0.001 -0.002  0.000    0.002  0.003 -0.000    0.008  0.011 -0.001
 H         -0.013  0.029 -0.014    0.043 -0.099  0.048   -0.002  0.007 -0.003
 C         -0.028 -0.063  0.056   -0.005 -0.012  0.012    0.003  0.005 -0.006
 H          0.542  0.236 -0.276    0.114  0.049 -0.059   -0.053 -0.022  0.027
 H         -0.196  0.532 -0.414   -0.038  0.104 -0.080    0.018 -0.048  0.036
 H         -0.009 -0.017  0.011   -0.009 -0.007 -0.006    0.004  0.003  0.004
 TransDip  -0.047 -0.073  0.073   -0.092 -0.082  0.058    0.101  0.021 -0.166

 Mode:                85                     86                     87
 Frequency:      3122.23                3123.63                3128.48
 Force Cnst:      6.3583                 6.3654                 6.2860
 Red. Mass:       1.1070                 1.1073                 1.0901
 IR Active:          YES                    YES                    YES
 IR Intens:       19.049                 15.416                 23.538
 Raman Active:       YES                    YES                    YES
               X      Y      Z        X      Y      Z        X      Y      Z
 C          0.000 -0.000 -0.001   -0.000  0.000  0.000    0.001 -0.002 -0.007
 C         -0.000  0.000 -0.000    0.000 -0.000  0.000   -0.000  0.001 -0.002
 C         -0.000 -0.000  0.000    0.000  0.000  0.000    0.000 -0.001  0.000
 C          0.000  0.000 -0.000   -0.000 -0.000 -0.000    0.000  0.000  0.000
 O         -0.000 -0.000  0.000   -0.000 -0.000 -0.000   -0.000  0.000 -0.000
 O         -0.000 -0.000  0.000   -0.000 -0.000 -0.000   -0.000  0.000 -0.000
 O         -0.000 -0.000  0.000   -0.000  0.000 -0.000   -0.000 -0.000  0.000
 O         -0.000 -0.000  0.000    0.000  0.000 -0.000   -0.000 -0.000 -0.000
 C         -0.003  0.004 -0.003    0.045 -0.066  0.051    0.000 -0.000  0.000
 C          0.046  0.059 -0.058    0.003  0.003 -0.003   -0.001 -0.001  0.001
 C          0.001 -0.001  0.001   -0.000  0.000 -0.000    0.030 -0.071  0.036
 C          0.000  0.000 -0.000   -0.000 -0.000  0.000   -0.008 -0.008  0.005
 C          0.000  0.000 -0.000   -0.000 -0.000  0.000   -0.003  0.000  0.001
 C         -0.000  0.000 -0.000    0.000 -0.000  0.000   -0.001  0.001 -0.000
 O          0.000 -0.000  0.000   -0.000  0.000 -0.000    0.000 -0.000 -0.000
 H         -0.002  0.004  0.011    0.000 -0.001 -0.003   -0.015  0.024  0.077
 H          0.001 -0.001  0.003   -0.000  0.001 -0.001    0.005 -0.004  0.017
 H          0.016 -0.037  0.000   -0.281  0.648 -0.001   -0.000  0.000  0.000
 H         -0.147 -0.134  0.675   -0.008 -0.008  0.038    0.002  0.002 -0.010
 H         -0.001 -0.001  0.001    0.000  0.000 -0.000    0.083  0.098 -0.043
 H         -0.001  0.001  0.005    0.000 -0.000 -0.001    0.007 -0.006 -0.017
 H         -0.003 -0.000  0.001    0.002  0.000 -0.001    0.031  0.003 -0.015
 H          0.001 -0.002  0.004   -0.000  0.001 -0.003   -0.000  0.000  0.001
 H          0.003  0.000 -0.004   -0.020 -0.009  0.037    0.001 -0.000 -0.001
 H          0.012 -0.007  0.034   -0.235  0.140 -0.642   -0.001  0.001 -0.003
 H          0.016 -0.001 -0.019    0.000  0.001 -0.000    0.001 -0.002 -0.001
 H         -0.411 -0.568  0.027   -0.022 -0.030  0.001    0.008  0.011 -0.000
 H         -0.006  0.014 -0.007    0.001 -0.001  0.001   -0.344  0.823 -0.412
 C          0.000  0.000 -0.000   -0.000 -0.000  0.000   -0.000 -0.000  0.000
 H         -0.002 -0.001  0.001    0.002  0.001 -0.001    0.003  0.001 -0.002
 H          0.001 -0.002  0.001   -0.001  0.002 -0.002   -0.000  0.001 -0.001
 H          0.000  0.000 -0.000   -0.000 -0.000  0.000   -0.002 -0.001 -0.002
 TransDip   0.064  0.090 -0.086    0.055 -0.096  0.060    0.034 -0.147  0.037

 Mode:                88                     89                     90
 Frequency:      3152.63                3157.03                3164.32
 Force Cnst:      6.4789                 6.4967                 6.4728
 Red. Mass:       1.1064                 1.1063                 1.0972
 IR Active:          YES                    YES                    YES
 IR Intens:       14.469                 14.497                  2.789
 Raman Active:       YES                    YES                    YES
               X      Y      Z        X      Y      Z        X      Y      Z
 C         -0.000  0.000  0.000    0.000  0.000 -0.000    0.000 -0.000 -0.000
 C          0.000 -0.000 -0.000   -0.000  0.000 -0.000    0.000 -0.000 -0.000
 C         -0.000  0.000  0.000   -0.001 -0.000 -0.001    0.000 -0.000 -0.000
 C          0.000  0.001  0.001   -0.000  0.000 -0.000    0.000 -0.000 -0.000
 O          0.000 -0.000 -0.000   -0.000  0.000  0.000   -0.000  0.000 -0.000
 O          0.000 -0.000 -0.000    0.000  0.000  0.000    0.000  0.000  0.000
 O          0.000 -0.000 -0.000    0.000 -0.000  0.000   -0.000  0.000  0.000
 O         -0.000 -0.000 -0.000    0.000 -0.000  0.000   -0.001 -0.000  0.000
 C         -0.052  0.023  0.076    0.000  0.000 -0.000    0.000 -0.000 -0.000
 C         -0.000 -0.000 -0.000    0.022 -0.072 -0.057    0.000 -0.000 -0.000
 C         -0.000  0.000 -0.000    0.000 -0.000  0.000    0.000 -0.000  0.000
 C          0.000  0.000  0.000   -0.000 -0.000 -0.000   -0.000  0.000 -0.000
 C          0.000 -0.000  0.000   -0.000  0.000 -0.000   -0.001  0.000  0.001
 C          0.000  0.000  0.000   -0.000  0.000  0.000   -0.001  0.000 -0.001
 O          0.000 -0.000 -0.000    0.000  0.000  0.000    0.000 -0.000  0.000
 H          0.000 -0.001 -0.002    0.000  0.000  0.002   -0.000  0.000  0.001
 H         -0.000 -0.000 -0.001    0.000 -0.000  0.000    0.000 -0.001  0.003
 H          0.109 -0.265  0.022    0.000 -0.001 -0.000   -0.001  0.001 -0.000
 H          0.000  0.000 -0.001   -0.068 -0.082  0.296   -0.000 -0.000  0.000
 H         -0.000 -0.000  0.000    0.000  0.000 -0.000    0.001  0.000 -0.000
 H          0.000 -0.000 -0.001   -0.000  0.000  0.001    0.000  0.000  0.001
 H         -0.000 -0.000  0.000    0.000  0.000 -0.000    0.011  0.002 -0.004
 H         -0.000  0.000 -0.000    0.000 -0.000  0.000   -0.001  0.002 -0.005
 H          0.634 -0.092 -0.618   -0.002  0.000  0.002   -0.003  0.000  0.003
 H         -0.131  0.083 -0.304    0.001 -0.000  0.002    0.001 -0.000  0.001
 H         -0.001  0.002  0.001   -0.368  0.706  0.415   -0.001  0.001  0.001
 H          0.002  0.003 -0.000    0.181  0.230 -0.031    0.000  0.000 -0.000
 H          0.001 -0.002  0.001   -0.000  0.001 -0.000   -0.001  0.001 -0.001
 C         -0.000 -0.000 -0.000    0.000  0.000  0.000   -0.067 -0.022 -0.057
 H         -0.000 -0.000  0.000   -0.000 -0.000  0.000    0.180  0.085 -0.106
 H          0.001 -0.002  0.001   -0.000  0.000 -0.000    0.044 -0.164  0.116
 H          0.003  0.002  0.003   -0.001 -0.001 -0.001    0.588  0.339  0.662
 TransDip  -0.083  0.016  0.088    0.047 -0.095 -0.059   -0.033 -0.008 -0.041

 STANDARD THERMODYNAMIC QUANTITIES AT   298.15 K  AND     1.00 ATM

   This Molecule has  0 Imaginary Frequencies
   Zero point vibrational energy:      166.293 kcal/mol

   Atom    1 Element C  Has Mass   12.00000
   Atom    2 Element C  Has Mass   12.00000
   Atom    3 Element C  Has Mass   12.00000
   Atom    4 Element C  Has Mass   12.00000
   Atom    5 Element O  Has Mass   15.99491
   Atom    6 Element O  Has Mass   15.99491
   Atom    7 Element O  Has Mass   15.99491
   Atom    8 Element O  Has Mass   15.99491
   Atom    9 Element C  Has Mass   12.00000
   Atom   10 Element C  Has Mass   12.00000
   Atom   11 Element C  Has Mass   12.00000
   Atom   12 Element C  Has Mass   12.00000
   Atom   13 Element C  Has Mass   12.00000
   Atom   14 Element C  Has Mass   12.00000
   Atom   15 Element O  Has Mass   15.99491
   Atom   16 Element H  Has Mass    1.00783
   Atom   17 Element H  Has Mass    1.00783
   Atom   18 Element H  Has Mass    1.00783
   Atom   19 Element H  Has Mass    1.00783
   Atom   20 Element H  Has Mass    1.00783
   Atom   21 Element H  Has Mass    1.00783
   Atom   22 Element H  Has Mass    1.00783
   Atom   23 Element H  Has Mass    1.00783
   Atom   24 Element H  Has Mass    1.00783
   Atom   25 Element H  Has Mass    1.00783
   Atom   26 Element H  Has Mass    1.00783
   Atom   27 Element H  Has Mass    1.00783
   Atom   28 Element H  Has Mass    1.00783
   Atom   29 Element C  Has Mass   12.00000
   Atom   30 Element H  Has Mass    1.00783
   Atom   31 Element H  Has Mass    1.00783
   Atom   32 Element H  Has Mass    1.00783
   Molecular Mass:   228.099830 amu
   Principal axes and moments of inertia in amu*Bohr^2:
                             1           2           3
    Eigenvalues --     2651.33805  3419.87444  5128.77991
          X               0.99998    -0.00301     0.00564
          Y               0.00300     0.99999     0.00239
          Z              -0.00564    -0.00237     0.99998
   Rotational Symmetry Number is   1
   The Molecule is an Asymmetric Top
   Translational Enthalpy:        0.889 kcal/mol
   Rotational Enthalpy:           0.889 kcal/mol
   Vibrational Enthalpy:        174.466 kcal/mol
   gas constant (RT):             0.592 kcal/mol
   Translational Entropy:        42.176  cal/mol.K
   Rotational Entropy:           32.208  cal/mol.K
   Vibrational Entropy:          53.867  cal/mol.K

   Total Enthalpy:              176.836 kcal/mol
   Total Entropy:               128.251  cal/mol.K
Archival summary:
1\1\nid05745\FREQ\ProcedureUnspecified\BasisUnspecified\51116\junteng\WedOct421:04:072017WedOct421:04:072017\0\\#,FREQ,ProcedureUnspecified,BasisUnspecified,\\0,1\O\C,1,1.42439\H,2,1.08822,1,110.141\C,1,1.44698,2,98.2292,3,179.896,0\C,4,1.51231,1,110.497,2,-177.284,0\H,5,1.08671,4,111.32,1,-58.0149,0\H,5,1.09266,4,108.995,1,63.0384,0\H,5,1.09303,4,110.341,1,-177.955,0\C,2,1.54386,1,103.653,3,-124.371,0\H,9,1.09101,2,110.254,1,85.3444,0\H,9,1.09183,2,112.489,1,-153.963,0\C,9,1.55407,2,100.767,1,-32.5207,0\H,12,1.09103,9,111.212,2,114.984,0\H,12,1.09181,9,113.52,2,-122.967,0\C,2,1.56021,1,102.277,3,121.976,0\H,15,1.08897,2,111.426,1,157.372,0\C,15,1.51331,2,108.668,1,-83.6396,0\O,17,1.20488,15,126.708,2,87.9571,0\O,17,1.35328,15,109.921,2,-89.07,0\C,19,1.44022,17,115.815,15,176.558,0\H,20,1.08777,19,105.466,17,179.821,0\H,20,1.09104,19,110.496,17,-60.5138,0\H,20,1.09107,19,110.379,17,60.3205,0\C,15,1.56476,2,100.325,1,38.096,0\H,24,1.09357,15,107.994,2,110.502,0\C,24,1.52166,15,114.373,2,-134.137,0\O,26,1.20195,24,128.087,15,126.047,0\O,26,1.35632,24,108.535,15,-58.0389,0\C,28,1.43902,26,115.709,24,175.025,0\H,29,1.08805,28,105.476,26,-178.829,0\H,29,1.09102,28,110.703,26,61.526,0\H,29,1.09103,28,109.774,26,-59.4984,0\\\@

 Total job time:  10365.64s(wall), 58482.08s(cpu) 
 Wed Oct  4 21:04:07 2017

        *************************************************************
        *                                                           *
        *  Thank you very much for using Q-Chem.  Have a nice day.  *
        *                                                           *
        *************************************************************


