nid01132 10.128.4
Q-Chem Developer Version! Running on 10.128.4.*
                  Welcome to Q-Chem
     A Quantum Leap Into The Future Of Chemistry


 Q-Chem 5.0, Q-Chem, Inc., Pleasanton, CA (2017)

 Yihan Shao,  Zhengting Gan,  E. Epifanovsky,  A. T. B. Gilbert,  M. Wormit,  
 J. Kussmann,  A. W. Lange,  A. Behn,  Jia Deng,  Xintian Feng,  D. Ghosh,  
 M. Goldey,  P. R. Horn,  L. D. Jacobson,  I. Kaliman,  T. Kus,  A. Landau,  
 Jie Liu,  E. I. Proynov,  R. M. Richard,  R. P. Steele,  E. J. Sundstrom,  
 H. L. Woodcock III,  P. M. Zimmerman,  D. Zuev,  B. Albrecht,  E. Alguire,  
 S. A. Baeppler,  Z. Benda,  Y. A. Bernard,  E. J. Berquist,  K. B. Bravaya,  
 D. Casanova,  Chun-Min Chang,  Yunqing Chen,  A. Chien,  K. D. Closser,  
 M. P. Coons,  S. Dasgupta,  M. Diedenhofen,  Hainam Do,  R. G. Edgar,  
 Po-Tung Fang,  S. Fatehi,  Qingguo Feng,  Qinghui Ge,  A. Ghysels,  
 J. Gomes,  J. Gonthier,  A. Gunina,  M. W. D. Hanson-Heine,  
 P. H. P. Harbach,  A. W. Hauser,  J. E. Herr,  E. G. Hohenstein,  
 Z. C. Holden,  Kerwin Hui,  T.-C. Jagau,  Hyunjun Ji,  B. Kaduk,  
 K. Khistyaev,  Jaehoon Kim,  P. Klunzinger,  K. Koh,  D. Kosenkov,  
 T. Kowalczyk,  C. M. Krauter,  A. Kunitsa,  Ka Un Lao,  A. Laurent,  
 K. V. Lawler,  Joonho Lee,  D. Lefrancois,  S. Lehtola,  D. S. Levine,  
 Yi-Pei Li,  You-Sheng Lin,  Fenglai Liu,  E. Livshits,  A. Luenser,  
 P. Manohar,  E. Mansoor,  S. F. Manzer,  Shan-Ping Mao,  Yuezhi Mao,  
 N. Mardirossian,  A. V. Marenich,  L. A. Martinez-Martinez,  S. A. Maurer,  
 N. J. Mayhall,  S. C. McKenzie,  J.-M. Mewes,  A. F. Morrison,  K. Nanda,  
 T. S. Nguyen-Beck,  R. Olivares-Amaya,  J. A. Parkhill,  T. M. Perrine,  
 F. Plasser,  S. Prager,  A. Prociuk,  D. R. Rehn,  F. Rob,  M. Schneider,  
 N. Sergueev,  S. M. Sharada,  S. Sharma,  D. W. Small,  T. Stauch,  
 T. Stein,  Yu-Chuan Su,  A. J. W. Thom,  T. Tsuchimochi,  L. Vogt,  
 O. Vydrov,  M. A. Watson,  J. Wenzel,  M. de Wergifosse,  T. A. Wesolowski,  
 A. White,  J. Witte,  A. Yamada,  Jun Yang,  K. Yao,  S. Yeganeh,  
 S. R. Yost,  Zhi-Qiang You,  A. Zech,  Igor Ying Zhang,  Xing Zhang,  
 Yan Zhao,  Ying Zhu,  B. R. Brooks,  G. K. L. Chan,  C. J. Cramer,  
 M. S. Gordon,  W. J. Hehre,  A. Klamt,  M. W. Schmidt,  C. D. Sherrill,  
 D. G. Truhlar,  A. Aspuru-Guzik,  R. Baer,  A. T. Bell,  N. A. Besley,  
 Jeng-Da Chai,  A. Dreuw,  B. D. Dunietz,  T. R. Furlani,  Chao-Ping Hsu,  
 Yousung Jung,  Jing Kong,  D. S. Lambrecht,  WanZhen Liang,  C. Ochsenfeld,  
 V. A. Rassolov,  L. V. Slipchenko,  J. E. Subotnik,  T. Van Voorhis,  
 J. M. Herbert,  A. I. Krylov,  P. M. W. Gill,  M. Head-Gordon

 Contributors to earlier versions of Q-Chem not listed above: 
 R. D. Adamson,  B. Austin,  J. Baker,  G. J. O. Beran,  K. Brandhorst,  
 S. T. Brown,  E. F. C. Byrd,  A. K. Chakraborty,  C.-L. Cheng,  
 Siu Hung Chien,  D. M. Chipman,  D. L. Crittenden,  H. Dachsel,  
 R. A. DiStasio Jr.,  R. J. Doerksen,  A. D. Dutoi,  L. Fusti-Molnar,  
 W. A. Goddard III,  A. Golubeva-Zadorozhnaya,  S. R. Gwaltney,  G. Hawkins,  
 A. Heyden,  S. Hirata,  G. Kedziora,  F. J. Keil,  C. Kelley,  Jihan Kim,  
 R. A. King,  R. Z. Khaliullin,  P. P. Korambath,  W. Kurlancheek,  
 A. M. Lee,  M. S. Lee,  S. V. Levchenko,  Ching Yeh Lin,  D. Liotard,  
 R. C. Lochan,  I. Lotan,  P. E. Maslen,  N. Nair,  D. P. O'Neill,  
 D. Neuhauser,  E. Neuscamman,  C. M. Oana,  R. Olson,  B. Peters,  
 R. Peverati,  P. A. Pieniazek,  Y. M. Rhee,  J. Ritchie,  M. A. Rohrdanz,  
 E. Rosta,  N. J. Russ,  H. F. Schaefer III,  N. E. Schultz,  N. Shenvi,  
 A. C. Simmonett,  A. Sodt,  D. Stuck,  K. S. Thanthiriwatte,  V. Vanovschi,  
 Tao Wang,  A. Warshel,  C. F. Williams,  Q. Wu,  X. Xu,  W. Zhang

 Please cite Q-Chem as follows:
 Y. Shao et al., Mol. Phys. 113, 184-215 (2015)
 DOI: 10.1080/00268976.2014.952696

 Q-Chem 5.0.0 for Intel X86 EM64T Linux

 Parts of Q-Chem use Armadillo 5.200.1 (Boston Tea Smuggler).
 http://arma.sourceforge.net/

 Q-Chem begins on Wed Oct  4 18:04:27 2017  

Host: nid01132
0

     Scratch files written to /global/cscratch1/sd/junteng/scratch/17/opt_11n01--.save//

Checking the input file for inconsistencies... 	...done.

--------------------------------------------------------------
User input:
--------------------------------------------------------------
$molecule
0  1
C    0.469  -2.369   0.246
C   -0.100  -2.666   1.497
C    0.820  -0.970  -0.128
C   -0.250  -1.617   2.525
O    1.710  -0.973  -1.154
O    0.353   0.027   0.395
O    0.994  -1.244   2.918
O   -1.315  -1.271   3.005
C    0.990  -0.231   3.923
C    2.104   0.331  -1.586
C    0.633  -3.406  -0.690
C    0.237  -4.708  -0.384
C   -0.335  -4.993   0.854
C   -0.510  -3.982   1.810
H    0.475   0.666   3.564
H    1.246   0.871  -1.997
H   -0.645  -6.015   1.070
H    0.524  -0.605   4.840
H    2.028   0.031   4.144
H    2.851   0.214  -2.376
H    2.557   0.890  -0.761
H    0.365  -5.501  -1.118
H    1.053  -3.209  -1.674
C   -1.128  -4.326   3.139
H   -2.093  -3.824   3.253
H   -0.462  -4.036   3.958
H   -1.304  -5.403   3.231
$end


$opt
CONSTRAINT
tors    2    1    3    5    158.6
tors    1    2    4    7    -72.3
ENDCONSTRAINT
$end

$rem
JOBTYPE                   OPT
METHOD                    B3LYP
DFT_D                     D3_OP
BASIS                     STO-3G
GEOM_OPT_MAX_CYCLES       500
SYMMETRY                  False
THRESH                    12
SCF_CONVERGENCE           8
MAX_SUB_FILE_NUM          128
MEM_STATIC                400
MEM_TOTAL                 4000
$end

--------------------------------------------------------------
 Adding empirical dispersion correction 
 ----------------------------------------------------------------
 Doing -D3(op) with
 s6 =   1.00000
 s8 =   0.78311
 a1 =   0.30000
 a2 =   4.25000
 n  =  10.00000
 -D3 energy without 3body term =     -0.0281099174 hartrees
 ----------------------------------------------------------------
             Standard Nuclear Orientation (Angstroms)
    I     Atom           X                Y                Z
 ----------------------------------------------------------------
    1      C       0.4276448099    -0.8415736243    -0.0588692333
    2      C      -0.8060843738    -0.1694900882    -0.1153229467
    3      C       1.7108516923    -0.1157460900    -0.2752773829
    4      C      -0.8586766063     1.2982395328    -0.2659510208
    5      O       2.7440659004    -0.8386462100     0.2293698371
    6      O       1.8151246914     0.9559824043    -0.8463747267
    7      O      -0.3462610882     1.8472865541     0.8641338013
    8      O      -1.3960448180     1.8760408395    -1.1942408759
    9      C      -0.3453536797     3.2741738433     0.8499267384
   10      C       4.0219453492    -0.2207266872     0.0636122501
   11      C       0.4347697576    -2.2356355990     0.1279500539
   12      C      -0.7617862935    -2.9413211965     0.2541144457
   13      C      -1.9807647890    -2.2699771573     0.1874690522
   14      C      -2.0220088454    -0.8801964136     0.0044651935
   15      H       0.2409006342     3.6507951732     0.0054285126
   16      H       4.2682047510    -0.1351699828    -0.9988007380
   17      H      -2.9041102496    -2.8410186193     0.2801232975
   18      H      -1.3703322120     3.6561049330     0.8116037554
   19      H       0.1193667722     3.6218521173     1.7762548225
   20      H       4.7702630880    -0.8580083794     0.5428727289
   21      H       4.0413877155     0.7607414868     0.5480265539
   22      H      -0.7435362013    -4.0202578732     0.3939414170
   23      H       1.3701157423    -2.7903072772     0.1584823066
   24      C      -3.3565948521    -0.1864117253    -0.0591272334
   25      H      -3.5169381685     0.2431909134    -1.0520807034
   26      H      -3.4152264497     0.6020259728     0.6980684692
   27      H      -4.1788259208    -0.8832659350     0.1350357913
 ----------------------------------------------------------------
 Molecular Point Group                 C1    NOp =  1
 Largest Abelian Subgroup              C1    NOp =  1
 Nuclear Repulsion Energy =  1009.1896279882 hartrees
 There are       55 alpha and       55 beta electrons
 Requested basis set is STO-3G
 There are 42 shells and 87 basis functions

 Total QAlloc Memory Limit   4000 MB
 Mega-Array Size       392 MB
 MEM_STATIC part       400 MB
 A cutoff of  1.0D-12 yielded    765 shell pairs
 There are      3696 function pairs
 
 -------------------------------------------------------
 OpenMP Integral Computing Module                       
 Release: version 1.0, May 2013, Q-Chem Inc. Pittsburgh 
 -------------------------------------------------------
 Integral Job Info:
 Integral job number is                      11
 Integral operator is                         1
 short-range coefficients                     0
 long-range coefficients              100000000
 Omega coefficients                           0
 if combine SR and LR in K                    0
 Integral screening is                        0
 Integral computing path is                   2
 max size of driver memory is            800000
 size of driver memory is                 45569
 size of scratch memory is               945100
 max col of scratch BK array                289
 max len of scratch array in speh3           22
 max len of scratch index in speh4            8
 max int batch size is                      520
 min int batch size is                       52
 fixed nKL is                                52
 max L of basis functions is                  1
 order of int derivative is                   0
 number of shells is                         42
 number of basis is                          87
 number of cartesian basis is                87
 number of contracted shell pairs           765
 number of primitive shell pairs           4169
 maxK2 (contraction) of shell pair            9
 max number of K2 of shell pair               1
 max number of CS2 of shell pair            112
 max number of PS2 of shell pair            564
 mem total for path MDJ                   25842
 -------------------------------------------------------
 Smallest overlap matrix eigenvalue = 1.75E-01

 Scale SEOQF with 1.000000e-01/1.000000e-01/1.000000e-01

 Standard Electronic Orientation quadrupole field applied
 Nucleus-field energy     =     0.0000000367 hartrees
 Guess from superposition of atomic densities
 Warning:  Energy on first SCF cycle will be non-variational
 A restricted hybrid HF-DFT SCF calculation will be
 performed using Pulay DIIS extrapolation
 Exchange:     0.2000 Hartree-Fock + 0.0800 Slater + 0.7200 B88
 Correlation:  0.1900 VWN1RPA + 0.8100 LYP
 Using SG-1 standard quadrature grid
 Dispersion:   Grimme D3
 SCF converges when DIIS error is below 1.0E-08
 -------------------------------------------------------
 OpenMP Integral computing Module                
 Release: version 1.0, May 2013, Q-Chem Inc. Pittsburgh 
 -------------------------------------------------------
 -------------------------------------------------------
 OpenMP BLAS3 based DFT computing Module                
 Release: version 1.0, May 2013, Q-Chem Inc. Pittsburgh 
 -------------------------------------------------------
 ---------------------------------------
  Cycle       Energy         DIIS Error
 ---------------------------------------
    1    -717.8019365690      1.20E-01
    2    -717.7010378448      1.35E-02
    3    -716.6909548447      3.55E-02
    4    -717.8989360821      4.93E-03
    5    -717.9220252155      1.83E-03
    6    -717.9252541391      6.40E-04
    7    -717.9256752319      2.14E-04
    8    -717.9257222207      5.99E-05
    9    -717.9257259474      2.45E-05
   10    -717.9257267525      3.51E-06
   11    -717.9257267669      1.14E-06
   12    -717.9257267684      2.20E-07
   13    -717.9257267684      1.01E-07
   14    -717.9257267684      3.15E-08
   15    -717.9257267684      8.11E-09 Convergence criterion met
 ---------------------------------------
 SCF time:  CPU 57.09 s  wall 2.42 s
 SCF   energy in the final basis set = -717.9257267684
 Total energy in the final basis set = -717.9257267684
 
 --------------------------------------------------------------
 
                    Orbital Energies (a.u.)
 --------------------------------------------------------------
 
 Alpha MOs
 -- Occupied --
-18.948 -18.944 -18.869 -18.865 -10.116 -10.112 -10.076 -10.069
-10.024 -10.023 -10.020 -10.016 -10.010 -10.010 -10.009  -1.048
 -1.041  -0.957  -0.953  -0.821  -0.742  -0.730  -0.692  -0.672
 -0.648  -0.595  -0.566  -0.516  -0.504  -0.472  -0.451  -0.440
 -0.433  -0.422  -0.418  -0.395  -0.390  -0.385  -0.372  -0.360
 -0.352  -0.343  -0.339  -0.322  -0.312  -0.300  -0.293  -0.253
 -0.246  -0.199  -0.190  -0.185  -0.179  -0.154  -0.147
 -- Virtual --
  0.052   0.076   0.129   0.152   0.251   0.281   0.311   0.352
  0.373   0.392   0.397   0.405   0.432   0.437   0.443   0.446
  0.453   0.456   0.457   0.459   0.467   0.471   0.483   0.493
  0.574   0.582   0.592   0.613   0.701   0.710   0.788   0.802
 --------------------------------------------------------------
 
          Ground-State Mulliken Net Atomic Charges

     Atom                 Charge (a.u.)
  ----------------------------------------
      1 C                    -0.018582
      2 C                    -0.016936
      3 C                     0.234617
      4 C                     0.240956
      5 O                    -0.184918
      6 O                    -0.230663
      7 O                    -0.182368
      8 O                    -0.224940
      9 C                    -0.127135
     10 C                    -0.125431
     11 C                    -0.074859
     12 C                    -0.080052
     13 C                    -0.077609
     14 C                     0.012689
     15 H                     0.097897
     16 H                     0.094244
     17 H                     0.080944
     18 H                     0.091047
     19 H                     0.094514
     20 H                     0.096685
     21 H                     0.094839
     22 H                     0.082779
     23 H                     0.091068
     24 C                    -0.232605
     25 H                     0.096456
     26 H                     0.085477
     27 H                     0.081886
  ----------------------------------------
  Sum of atomic charges =     0.000000

 -----------------------------------------------------------------
                    Cartesian Multipole Moments
 -----------------------------------------------------------------
    Charge (ESU x 10^10)
                -0.0000
    Dipole Moment (Debye)
         X       0.7982      Y      -0.5502      Z       1.4656
       Tot       1.7573
    Quadrupole Moments (Debye-Ang)
        XX     -68.8640     XY       1.0683     YY     -74.0057
        XZ      -1.4979     YZ       4.7411     ZZ     -83.2885
    Octopole Moments (Debye-Ang^2)
       XXX      41.5766    XXY      -2.7669    XYY       0.8577
       YYY      25.2011    XXZ       3.5524    XYZ      -0.6167
       YYZ      13.0115    XZZ       9.2585    YZZ       6.8348
       ZZZ      -3.0962
    Hexadecapole Moments (Debye-Ang^3)
      XXXX   -1834.3719   XXXY     -13.9583   XXYY    -592.7498
      XYYY      -6.0514   YYYY   -1421.5834   XXXZ       3.4567
      XXYZ       8.8362   XYYZ      -9.5961   YYYZ      16.3355
      XXZZ    -378.5399   XYZZ      -4.8522   YYZZ    -299.7002
      XZZZ      -0.3707   YZZZ       2.9732   ZZZZ    -200.2064
 -----------------------------------------------------------------
 Calculating analytic gradient of the SCF energy
 Gradient of SCF Energy
            1           2           3           4           5           6
    1   0.0155520   0.0002434   0.0288734   0.0033619  -0.0165587  -0.0090033
    2   0.0247654   0.0340006   0.0084045   0.0202584   0.0561898  -0.0668372
    3  -0.0054958  -0.0064167  -0.0034908   0.0083047  -0.0327235   0.0327088
            7           8           9          10          11          12
    1  -0.0295598   0.0255054  -0.0003711  -0.0164199  -0.0008983  -0.0031731
    2   0.0085524  -0.0425767  -0.0241214  -0.0093064   0.0067387   0.0046852
    3  -0.0553920   0.0504006  -0.0000651   0.0029537   0.0000270  -0.0002477
           13          14          15          16          17          18
    1   0.0029767  -0.0065585  -0.0025396  -0.0055135   0.0073378   0.0102249
    2   0.0029842   0.0110264  -0.0077578  -0.0067668   0.0014604  -0.0087175
    3  -0.0002257  -0.0001337   0.0102837   0.0117449  -0.0006387   0.0042723
           19          20          21          22          23          24
    1  -0.0046865  -0.0047308  -0.0030343  -0.0003432  -0.0094996   0.0157825
    2  -0.0008429   0.0080769  -0.0133174   0.0081641   0.0001020  -0.0050621
    3  -0.0097686  -0.0052144  -0.0006932  -0.0010887  -0.0004175  -0.0020005
           25          26          27
    1   0.0009587   0.0010130   0.0010607
    2  -0.0069575  -0.0076169   0.0044717
    3   0.0047262  -0.0008020  -0.0006072
 Max gradient component =       6.684E-02
 RMS gradient           =       1.774E-02
 Gradient time:  CPU 12.91 s  wall 0.55 s
 Geometry Optimization Parameters
   NAtoms,    NIC,     NZ,  NCons,   NDum,   NFix, NCnnct, MaxDiis
       27     173       0       2       0       0       0       0


** CONSTRAINED OPTIMIZATION IN DELOCALIZED INTERNAL COORDINATES **
   Searching for a Minimum

   Optimization Cycle:   1

                       Coordinates (Angstroms)
     ATOM                X               Y               Z
      1  C         0.4276448099   -0.8415736243   -0.0588692333
      2  C        -0.8060843738   -0.1694900882   -0.1153229467
      3  C         1.7108516923   -0.1157460900   -0.2752773829
      4  C        -0.8586766063    1.2982395328   -0.2659510208
      5  O         2.7440659004   -0.8386462100    0.2293698371
      6  O         1.8151246914    0.9559824043   -0.8463747267
      7  O        -0.3462610882    1.8472865541    0.8641338013
      8  O        -1.3960448180    1.8760408395   -1.1942408759
      9  C        -0.3453536797    3.2741738433    0.8499267384
     10  C         4.0219453492   -0.2207266872    0.0636122501
     11  C         0.4347697576   -2.2356355990    0.1279500539
     12  C        -0.7617862935   -2.9413211965    0.2541144457
     13  C        -1.9807647890   -2.2699771573    0.1874690522
     14  C        -2.0220088454   -0.8801964136    0.0044651935
     15  H         0.2409006342    3.6507951732    0.0054285126
     16  H         4.2682047510   -0.1351699828   -0.9988007380
     17  H        -2.9041102496   -2.8410186193    0.2801232975
     18  H        -1.3703322120    3.6561049330    0.8116037554
     19  H         0.1193667722    3.6218521173    1.7762548225
     20  H         4.7702630880   -0.8580083794    0.5428727289
     21  H         4.0413877155    0.7607414868    0.5480265539
     22  H        -0.7435362013   -4.0202578732    0.3939414170
     23  H         1.3701157423   -2.7903072772    0.1584823066
     24  C        -3.3565948521   -0.1864117253   -0.0591272334
     25  H        -3.5169381685    0.2431909134   -1.0520807034
     26  H        -3.4152264497    0.6020259728    0.6980684692
     27  H        -4.1788259208   -0.8832659350    0.1350357913
   Point Group: c1    Number of degrees of freedom:    75


   Energy is   -717.925726768

              Constraints and their Current Values
                                        Value     Constraint
   Dihedral:        2   1   3   5      160.883      158.600
   Dihedral:        1   2   4   7      -66.511      -72.300

 Attempting to Generate Delocalized Internal Coordinates

   Using Lagrange Multiplier Algorithm


 77 Hessian modes will be used to form the next step
  Hessian Eigenvalues:
    -0.977753   -0.977753    0.045000    0.045000    0.045000    0.045000
     0.045000    0.045000    0.045000    0.045000    0.045000    0.045001
     0.045002    0.045007    0.045012    0.045014    0.045073    0.045391
     0.094103    0.094233    0.113874    0.113890    0.116885    0.116948
     0.159973    0.159992    0.160000    0.160000    0.160000    0.160000
     0.160000    0.160000    0.160000    0.160000    0.160000    0.160000
     0.220831    0.234483    0.248788    0.249003    0.249488    0.249924
     0.249954    0.250000    0.250000    0.250000    0.250000    0.250000
     0.318081    0.334430    0.342234    0.342572    0.342726    0.342778
     0.342982    0.343623    0.343862    0.344084    0.344536    0.348583
     0.349879    0.350317    0.350597    0.408825    0.411215    0.413739
     0.414295    0.441969    0.449403    0.456885    0.464260    0.533072
     0.535839    0.958888    0.961246    1.022753    1.022753

 Minimum Search - Taking P-RFO Step
 Searching for Lamda that Maximizes Along the Constraint modes Only
 Value Taken    Lamda =   0.00671500
 Searching for Lamda that Minimizes Along All other modes
 Value Taken    Lamda =  -0.05804514
 Calculated Step too Large.  Step scaled by  0.851608
 Step Taken.  Stepsize is  0.300000

                             Maximum     Tolerance    Cnvgd?
         Gradient            0.101041       0.000300      NO
         Displacement        0.119010       0.001200      NO
         Energy change     *********       0.000001      NO


 New Cartesian Coordinates Obtained by Inverse Iteration

 Displacement from previous Coordinates is:  0.783451
 Adding empirical dispersion correction 
 ----------------------------------------------------------------
 Doing -D3(op) with
 s6 =   1.00000
 s8 =   0.78311
 a1 =   0.30000
 a2 =   4.25000
 n  =  10.00000
 -D3 energy without 3body term =     -0.0278247922 hartrees
 ----------------------------------------------------------------
             Standard Nuclear Orientation (Angstroms)
    I     Atom           X                Y                Z
 ----------------------------------------------------------------
    1      C       0.4149978415    -0.9248093715    -0.0621172463
    2      C      -0.8169070488    -0.2221723079    -0.0910553797
    3      C       1.7194161643    -0.1558318803    -0.2825562356
    4      C      -0.8297438557     1.3057976135    -0.2660927888
    5      O       2.8032252696    -0.8819934617     0.2417174827
    6      O       1.8136100290     0.9611624472    -0.8402736177
    7      O      -0.3540793910     1.8996990702     0.9170414469
    8      O      -1.3290151771     1.9288810052    -1.2268399268
    9      C      -0.3476491870     3.3646904582     0.8496764633
   10      C       4.0796075350    -0.1864889390     0.0640082368
   11      C       0.4170538611    -2.3304212298     0.1086793160
   12      C      -0.7960332157    -3.0280320595     0.2368093421
   13      C      -2.0186659537    -2.3305420287     0.1855366241
   14      C      -2.0494087037    -0.9259930201     0.0196677210
   15      H       0.2826080901     3.7320393555     0.0152690057
   16      H       4.3372640234    -0.0685951999    -1.0078993060
   17      H      -2.9606556970    -2.8863863603     0.2749765346
   18      H      -1.3718599255     3.7743826165     0.7371838067
   19      H       0.0767750099     3.7307810554     1.8018766256
   20      H       4.8527811341    -0.8104481525     0.5476237941
   21      H       4.0748110037     0.8116461941     0.5461382931
   22      H      -0.7905067057    -4.1177837361     0.3643712529
   23      H       1.3661358294    -2.8802303172     0.1241853384
   24      C      -3.3935199101    -0.1890838528    -0.0376702196
   25      H      -3.5476050403     0.2698589029    -1.0273554372
   26      H      -3.4458564652     0.6033363421     0.7257648912
   27      H      -4.2246831587    -0.8847822316     0.1461681486
 ----------------------------------------------------------------
 Molecular Point Group                 C1    NOp =  1
 Largest Abelian Subgroup              C1    NOp =  1
 Nuclear Repulsion Energy =   989.8723644884 hartrees
 There are       55 alpha and       55 beta electrons
 Applying Cartesian multipole field
    Component          Value
    ---------          -----
     (2,0,0)        1.00000E-11
     (0,2,0)        2.00000E-11
     (0,0,2)       -3.00000E-11
 Nucleus-field energy     =     0.0000000384 hartrees
 Requested basis set is STO-3G
 There are 42 shells and 87 basis functions
 A cutoff of  1.0D-12 yielded    760 shell pairs
 There are      3682 function pairs
 Smallest overlap matrix eigenvalue = 1.82E-01
 Guess MOs from SCF MO coefficient file
 Reading MOs from coefficient file
 Reading MOs from coefficient file
 A restricted hybrid HF-DFT SCF calculation will be
 performed using Pulay DIIS extrapolation
 Exchange:     0.2000 Hartree-Fock + 0.0800 Slater + 0.7200 B88
 Correlation:  0.1900 VWN1RPA + 0.8100 LYP
 Using SG-1 standard quadrature grid
 Dispersion:   Grimme D3
 SCF converges when DIIS error is below 1.0E-08
 Geometry optimization detected.  Setting ReadMinima to 0
 Setting SaveMinima to 0
 -------------------------------------------------------
 OpenMP Integral computing Module                
 Release: version 1.0, May 2013, Q-Chem Inc. Pittsburgh 
 -------------------------------------------------------
 -------------------------------------------------------
 OpenMP BLAS3 based DFT computing Module                
 Release: version 1.0, May 2013, Q-Chem Inc. Pittsburgh 
 -------------------------------------------------------
 ---------------------------------------
  Cycle       Energy         DIIS Error
 ---------------------------------------
    1    -717.7860946341      6.91E-03
    2    -717.9444911509      2.50E-03
    3    -717.9323897239      4.19E-03
    4    -717.9509923962      6.74E-04
    5    -717.9515051754      1.81E-04
    6    -717.9515422632      4.82E-05
    7    -717.9515449116      1.82E-05
    8    -717.9515452406      1.03E-05
    9    -717.9515453517      2.41E-06
   10    -717.9515453589      4.64E-07
   11    -717.9515453592      1.68E-07
   12    -717.9515453592      2.99E-08
   13    -717.9515453592      1.64E-08
   14    -717.9515453592      4.96E-09 Convergence criterion met
 ---------------------------------------
 SCF time:  CPU 53.05 s  wall 2.24 s
 SCF   energy in the final basis set = -717.9515453592
 Total energy in the final basis set = -717.9515453592
 
 --------------------------------------------------------------
 
                    Orbital Energies (a.u.)
 --------------------------------------------------------------
 
 Alpha MOs
 -- Occupied --
-18.944 -18.934 -18.872 -18.866 -10.108 -10.102 -10.071 -10.063
-10.027 -10.027 -10.024 -10.019 -10.014 -10.014 -10.012  -1.021
 -1.012  -0.941  -0.933  -0.815  -0.735  -0.720  -0.678  -0.662
 -0.646  -0.587  -0.562  -0.509  -0.497  -0.460  -0.440  -0.427
 -0.419  -0.413  -0.408  -0.388  -0.382  -0.377  -0.370  -0.358
 -0.349  -0.341  -0.331  -0.314  -0.310  -0.296  -0.288  -0.255
 -0.246  -0.197  -0.191  -0.181  -0.172  -0.154  -0.146
 -- Virtual --
  0.048   0.072   0.116   0.138   0.238   0.254   0.280   0.328
  0.350   0.360   0.375   0.392   0.414   0.421   0.426   0.429
  0.430   0.437   0.439   0.441   0.447   0.458   0.465   0.477
  0.548   0.560   0.567   0.590   0.653   0.663   0.756   0.774
 --------------------------------------------------------------
 
          Ground-State Mulliken Net Atomic Charges

     Atom                 Charge (a.u.)
  ----------------------------------------
      1 C                    -0.016815
      2 C                    -0.014613
      3 C                     0.214154
      4 C                     0.220149
      5 O                    -0.171791
      6 O                    -0.214601
      7 O                    -0.172347
      8 O                    -0.212912
      9 C                    -0.124863
     10 C                    -0.123811
     11 C                    -0.074487
     12 C                    -0.077333
     13 C                    -0.076121
     14 C                     0.011247
     15 H                     0.093596
     16 H                     0.090253
     17 H                     0.080834
     18 H                     0.087378
     19 H                     0.090629
     20 H                     0.092846
     21 H                     0.091491
     22 H                     0.083119
     23 H                     0.091064
     24 C                    -0.226108
     25 H                     0.093428
     26 H                     0.084870
     27 H                     0.080743
  ----------------------------------------
  Sum of atomic charges =     0.000000

 -----------------------------------------------------------------
                    Cartesian Multipole Moments
 -----------------------------------------------------------------
    Charge (ESU x 10^10)
                 0.0000
    Dipole Moment (Debye)
         X       0.6475      Y      -0.6470      Z       1.3121
       Tot       1.5998
    Quadrupole Moments (Debye-Ang)
        XX     -68.4479     XY       1.3864     YY     -73.5029
        XZ      -1.4889     YZ       4.4945     ZZ     -83.5543
    Octopole Moments (Debye-Ang^2)
       XXX      40.3694    XXY      -0.0002    XYY      -0.1098
       YYY      28.6716    XXZ       2.3408    XYZ      -0.3784
       YYZ      12.7589    XZZ       9.3461    YZZ       7.9908
       ZZZ      -3.7672
    Hexadecapole Moments (Debye-Ang^3)
      XXXX   -1863.4837   XXXY     -17.5199   XXYY    -612.8620
      XYYY     -13.8141   YYYY   -1490.3676   XXXZ       5.4708
      XXYZ       5.6535   XYYZ      -8.5808   YYYZ      15.4762
      XXZZ    -386.8986   XYZZ      -7.4996   YYZZ    -316.4047
      XZZZ       2.1128   YZZZ       0.4788   ZZZZ    -204.4401
 -----------------------------------------------------------------
 Calculating analytic gradient of the SCF energy
 Gradient of SCF Energy
            1           2           3           4           5           6
    1   0.0013845  -0.0011304   0.0112291   0.0126997  -0.0052497  -0.0013154
    2   0.0068540   0.0050458  -0.0087753   0.0017150   0.0189749  -0.0078915
    3  -0.0015988  -0.0005869   0.0029644   0.0112340  -0.0096462   0.0024186
            7           8           9          10          11          12
    1  -0.0120784  -0.0007988   0.0010608  -0.0069206   0.0004197   0.0000129
    2   0.0037672  -0.0053508  -0.0083918  -0.0059478   0.0015779  -0.0013998
    3  -0.0201723   0.0062129   0.0035948   0.0024790   0.0005076   0.0004570
           13          14          15          16          17          18
    1  -0.0014218  -0.0022599   0.0007101   0.0005110   0.0013157   0.0007439
    2  -0.0001914   0.0025927  -0.0001642  -0.0016260  -0.0004119  -0.0001838
    3   0.0001781  -0.0005325   0.0017046   0.0009635  -0.0001941   0.0018364
           19          20          21          22          23          24
    1  -0.0004706   0.0009426   0.0006465   0.0001803  -0.0020508   0.0045394
    2   0.0022279   0.0019017  -0.0015545   0.0008950  -0.0013596  -0.0002444
    3  -0.0015405  -0.0008389   0.0010310  -0.0001413  -0.0003371  -0.0010967
           25          26          27
    1  -0.0011259  -0.0011651  -0.0004090
    2  -0.0018394  -0.0017139   0.0014941
    3   0.0002956   0.0006928   0.0001148
 Max gradient component =       2.017E-02
 RMS gradient           =       5.006E-03
 Gradient time:  CPU 12.81 s  wall 0.54 s
 Geometry Optimization Parameters
   NAtoms,    NIC,     NZ,  NCons,   NDum,   NFix, NCnnct, MaxDiis
       27     173       0       2       0       0       0       0

 Cartesian Hessian Update
 Hessian Updated using BFGS Update


** CONSTRAINED OPTIMIZATION IN DELOCALIZED INTERNAL COORDINATES **
   Searching for a Minimum

   Optimization Cycle:   2

                       Coordinates (Angstroms)
     ATOM                X               Y               Z
      1  C         0.4149978415   -0.9248093715   -0.0621172463
      2  C        -0.8169070488   -0.2221723079   -0.0910553797
      3  C         1.7194161643   -0.1558318803   -0.2825562356
      4  C        -0.8297438557    1.3057976135   -0.2660927888
      5  O         2.8032252696   -0.8819934617    0.2417174827
      6  O         1.8136100290    0.9611624472   -0.8402736177
      7  O        -0.3540793910    1.8996990702    0.9170414469
      8  O        -1.3290151771    1.9288810052   -1.2268399268
      9  C        -0.3476491870    3.3646904582    0.8496764633
     10  C         4.0796075350   -0.1864889390    0.0640082368
     11  C         0.4170538611   -2.3304212298    0.1086793160
     12  C        -0.7960332157   -3.0280320595    0.2368093421
     13  C        -2.0186659537   -2.3305420287    0.1855366241
     14  C        -2.0494087037   -0.9259930201    0.0196677210
     15  H         0.2826080901    3.7320393555    0.0152690057
     16  H         4.3372640234   -0.0685951999   -1.0078993060
     17  H        -2.9606556970   -2.8863863603    0.2749765346
     18  H        -1.3718599255    3.7743826165    0.7371838067
     19  H         0.0767750099    3.7307810554    1.8018766256
     20  H         4.8527811341   -0.8104481525    0.5476237941
     21  H         4.0748110037    0.8116461941    0.5461382931
     22  H        -0.7905067057   -4.1177837361    0.3643712529
     23  H         1.3661358294   -2.8802303172    0.1241853384
     24  C        -3.3935199101   -0.1890838528   -0.0376702196
     25  H        -3.5476050403    0.2698589029   -1.0273554372
     26  H        -3.4458564652    0.6033363421    0.7257648912
     27  H        -4.2246831587   -0.8847822316    0.1461681486
   Point Group: c1    Number of degrees of freedom:    75


   Energy is   -717.951545359

              Constraints and their Current Values
                                        Value     Constraint
   Dihedral:        2   1   3   5      158.995      158.600
   Dihedral:        1   2   4   7      -71.300      -72.300
 Hessian Updated using BFGS Update

   Using Lagrange Multiplier Algorithm


 65 Hessian modes will be used to form the next step
  Hessian Eigenvalues:
    -0.977946   -0.977713    0.044845    0.045000    0.045000    0.045000
     0.045000    0.045000    0.045001    0.045002    0.045007    0.045013
     0.045041    0.045075    0.045249    0.094013    0.094223    0.113784
     0.113883    0.116886    0.116948    0.158493    0.159978    0.159992
     0.160000    0.162332    0.220790    0.232906    0.238102    0.248940
     0.249234    0.249754    0.249932    0.249960    0.250000    0.252849
     0.319406    0.336995    0.342235    0.342629    0.342731    0.342872
     0.343259    0.343783    0.343950    0.344336    0.345171    0.348602
     0.350306    0.350583    0.372341    0.407723    0.411367    0.413335
     0.423680    0.442323    0.451310    0.463551    0.470280    0.522168
     0.534542    0.960007    0.992285    1.022718    1.023289

 Minimum Search - Taking P-RFO Step
 Searching for Lamda that Maximizes Along the Constraint modes Only
 Value Taken    Lamda =   0.00010303
 Searching for Lamda that Minimizes Along All other modes
 Value Taken    Lamda =  -0.00532589
 Step Taken.  Stepsize is  0.189391

                             Maximum     Tolerance    Cnvgd?
         Gradient            0.019797       0.000300      NO
         Displacement        0.071106       0.001200      NO
         Energy change     -0.025819       0.000001      NO


 New Cartesian Coordinates Obtained by Inverse Iteration

 Displacement from previous Coordinates is:  0.820241
 Adding empirical dispersion correction 
 ----------------------------------------------------------------
 Doing -D3(op) with
 s6 =   1.00000
 s8 =   0.78311
 a1 =   0.30000
 a2 =   4.25000
 n  =  10.00000
 -D3 energy without 3body term =     -0.0279508822 hartrees
 ----------------------------------------------------------------
             Standard Nuclear Orientation (Angstroms)
    I     Atom           X                Y                Z
 ----------------------------------------------------------------
    1      C       0.3958627222    -0.9617191891    -0.0537189523
    2      C      -0.8302525095    -0.2510406752    -0.0573503739
    3      C       1.6878484367    -0.1556739093    -0.2382106648
    4      C      -0.8166694600     1.2870145723    -0.2394997223
    5      O       2.7976723494    -0.8911711715     0.2694721812
    6      O       1.7660937370     0.9946300818    -0.7407006804
    7      O      -0.3184642369     1.8774731247     0.9595465579
    8      O      -1.2481749147     1.9327216952    -1.2242432004
    9      C      -0.2669282174     3.3435108661     0.7931265851
   10      C       4.0341131346    -0.1059216944     0.0848092206
   11      C       0.4029928300    -2.3700557489     0.0778592054
   12      C      -0.8155700413    -3.0633014847     0.1928107330
   13      C      -2.0366756279    -2.3570265906     0.1682231326
   14      C      -2.0642978298    -0.9487102682     0.0384799542
   15      H       0.3806945586     3.6345470843    -0.0598170581
   16      H       4.2562204282     0.0636794536    -0.9896730310
   17      H      -2.9856864279    -2.9052872074     0.2487942267
   18      H      -1.2778885858     3.7733604971     0.6324370430
   19      H       0.1584410493     3.7382038729     1.7347746025
   20      H       4.8441278764    -0.7068239538     0.5391830537
   21      H       3.9731527354     0.8801271286     0.5906938072
   22      H      -0.8177337025    -4.1572580217     0.2942252063
   23      H       1.3612381688    -2.9076039556     0.0816349849
   24      C      -3.4027958189    -0.1908070573    -0.0008790770
   25      H      -3.5390050785     0.3019704639    -0.9784464840
   26      H      -3.4355611526     0.5889255278     0.7782269495
   27      H      -4.2406580669    -0.8850825286     0.1630759664
 ----------------------------------------------------------------
 Molecular Point Group                 C1    NOp =  1
 Largest Abelian Subgroup              C1    NOp =  1
 Nuclear Repulsion Energy =   991.1433313323 hartrees
 There are       55 alpha and       55 beta electrons
 Applying Cartesian multipole field
    Component          Value
    ---------          -----
     (2,0,0)        1.00000E-11
     (0,2,0)        2.00000E-11
     (0,0,2)       -3.00000E-11
 Nucleus-field energy     =     0.0000000386 hartrees
 Requested basis set is STO-3G
 There are 42 shells and 87 basis functions
 A cutoff of  1.0D-12 yielded    762 shell pairs
 There are      3684 function pairs
 Smallest overlap matrix eigenvalue = 1.82E-01
 Guess MOs from SCF MO coefficient file
 Reading MOs from coefficient file
 Reading MOs from coefficient file
 A restricted hybrid HF-DFT SCF calculation will be
 performed using Pulay DIIS extrapolation
 Exchange:     0.2000 Hartree-Fock + 0.0800 Slater + 0.7200 B88
 Correlation:  0.1900 VWN1RPA + 0.8100 LYP
 Using SG-1 standard quadrature grid
 Dispersion:   Grimme D3
 SCF converges when DIIS error is below 1.0E-08
 Geometry optimization detected.  Setting ReadMinima to 0
 Setting SaveMinima to 0
 -------------------------------------------------------
 OpenMP Integral computing Module                
 Release: version 1.0, May 2013, Q-Chem Inc. Pittsburgh 
 -------------------------------------------------------
 -------------------------------------------------------
 OpenMP BLAS3 based DFT computing Module                
 Release: version 1.0, May 2013, Q-Chem Inc. Pittsburgh 
 -------------------------------------------------------
 ---------------------------------------
  Cycle       Energy         DIIS Error
 ---------------------------------------
    1    -717.9012348153      4.48E-03
    2    -717.9530435181      9.21E-04
    3    -717.9504690889      1.83E-03
    4    -717.9539932059      2.79E-04
    5    -717.9540776786      9.36E-05
    6    -717.9540873197      2.81E-05
    7    -717.9540882193      1.06E-05
    8    -717.9540883430      5.28E-06
    9    -717.9540883712      1.73E-06
   10    -717.9540883748      2.78E-07
   11    -717.9540883750      6.90E-08
   12    -717.9540883750      2.62E-08
   13    -717.9540883750      1.01E-08
   14    -717.9540883750      1.98E-09 Convergence criterion met
 ---------------------------------------
 SCF time:  CPU 52.37 s  wall 2.21 s
 SCF   energy in the final basis set = -717.9540883750
 Total energy in the final basis set = -717.9540883750
 
 --------------------------------------------------------------
 
                    Orbital Energies (a.u.)
 --------------------------------------------------------------
 
 Alpha MOs
 -- Occupied --
-18.943 -18.931 -18.876 -18.868 -10.106 -10.099 -10.068 -10.059
-10.027 -10.027 -10.024 -10.020 -10.016 -10.015 -10.014  -1.016
 -1.005  -0.939  -0.930  -0.816  -0.735  -0.720  -0.673  -0.657
 -0.646  -0.586  -0.563  -0.507  -0.496  -0.458  -0.439  -0.426
 -0.415  -0.413  -0.405  -0.387  -0.379  -0.374  -0.367  -0.359
 -0.350  -0.341  -0.330  -0.312  -0.308  -0.295  -0.286  -0.260
 -0.251  -0.197  -0.192  -0.182  -0.171  -0.156  -0.147
 -- Virtual --
  0.046   0.072   0.113   0.135   0.238   0.251   0.276   0.318
  0.339   0.351   0.369   0.388   0.412   0.419   0.422   0.427
  0.428   0.435   0.436   0.440   0.445   0.454   0.461   0.474
  0.544   0.558   0.565   0.587   0.644   0.655   0.754   0.772
 --------------------------------------------------------------
 
          Ground-State Mulliken Net Atomic Charges

     Atom                 Charge (a.u.)
  ----------------------------------------
      1 C                    -0.017179
      2 C                    -0.015182
      3 C                     0.209322
      4 C                     0.214932
      5 O                    -0.165673
      6 O                    -0.210539
      7 O                    -0.167563
      8 O                    -0.209443
      9 C                    -0.127108
     10 C                    -0.126264
     11 C                    -0.074690
     12 C                    -0.076546
     13 C                    -0.075863
     14 C                     0.010622
     15 H                     0.093726
     16 H                     0.089678
     17 H                     0.080837
     18 H                     0.086537
     19 H                     0.088341
     20 H                     0.091401
     21 H                     0.091451
     22 H                     0.083442
     23 H                     0.091811
     24 C                    -0.224811
     25 H                     0.092625
     26 H                     0.085124
     27 H                     0.081012
  ----------------------------------------
  Sum of atomic charges =     0.000000

 -----------------------------------------------------------------
                    Cartesian Multipole Moments
 -----------------------------------------------------------------
    Charge (ESU x 10^10)
                 0.0000
    Dipole Moment (Debye)
         X       0.5436      Y      -0.6961      Z       1.1208
       Tot       1.4270
    Quadrupole Moments (Debye-Ang)
        XX     -68.7483     XY       1.7396     YY     -73.9420
        XZ      -1.4805     YZ       4.0914     ZZ     -83.5551
    Octopole Moments (Debye-Ang^2)
       XXX      37.0857    XXY       2.1951    XYY      -0.1497
       YYY      27.7976    XXZ       0.7698    XYZ      -0.1439
       YYZ      10.3135    XZZ       9.7849    YZZ       8.6604
       ZZZ      -6.6830
    Hexadecapole Moments (Debye-Ang^3)
      XXXX   -1851.7486   XXXY     -33.7062   XXYY    -609.6375
      XYYY     -34.0142   YYYY   -1508.8607   XXXZ       1.2810
      XXYZ       3.2387   XYYZ      -8.3656   YYYZ      12.7032
      XXZZ    -380.5693   XYZZ     -14.0516   YYZZ    -318.8186
      XZZZ      -2.5663   YZZZ      -1.8833   ZZZZ    -196.3566
 -----------------------------------------------------------------
 Calculating analytic gradient of the SCF energy
 Gradient of SCF Energy
            1           2           3           4           5           6
    1  -0.0020683   0.0014081   0.0052980   0.0055741  -0.0011038  -0.0005155
    2  -0.0005618  -0.0007529  -0.0028559   0.0022937   0.0016771   0.0025345
    3  -0.0010761   0.0038407   0.0002519   0.0058097   0.0007941  -0.0014952
            7           8           9          10          11          12
    1  -0.0017291  -0.0021792  -0.0008925  -0.0045338   0.0001783   0.0002671
    2  -0.0004277   0.0019870  -0.0043825  -0.0007364   0.0004073  -0.0003236
    3  -0.0016161  -0.0032168  -0.0019823  -0.0002582  -0.0003444   0.0000879
           13          14          15          16          17          18
    1  -0.0004188  -0.0000653   0.0002373   0.0003078  -0.0002945  -0.0006020
    2   0.0004006   0.0006013   0.0004934   0.0001444   0.0000491   0.0002114
    3  -0.0000384  -0.0005287  -0.0004447  -0.0005343  -0.0001335   0.0000093
           19          20          21          22          23          24
    1   0.0003344   0.0000081   0.0002232   0.0001436   0.0002680   0.0007025
    2  -0.0006134  -0.0005378   0.0005780  -0.0001354  -0.0002621   0.0007081
    3   0.0005207   0.0003149   0.0002451   0.0001118  -0.0001512  -0.0004395
           25          26          27
    1  -0.0002045  -0.0001504  -0.0001929
    2  -0.0001182   0.0000522  -0.0004304
    3  -0.0002107   0.0002375   0.0002466
 Max gradient component =       5.810E-03
 RMS gradient           =       1.645E-03
 Gradient time:  CPU 12.44 s  wall 0.52 s
 Geometry Optimization Parameters
   NAtoms,    NIC,     NZ,  NCons,   NDum,   NFix, NCnnct, MaxDiis
       27     173       0       2       0       0       0       0

 Cartesian Hessian Update
 Hessian Updated using BFGS Update


** CONSTRAINED OPTIMIZATION IN DELOCALIZED INTERNAL COORDINATES **
   Searching for a Minimum

   Optimization Cycle:   3

                       Coordinates (Angstroms)
     ATOM                X               Y               Z
      1  C         0.3958627222   -0.9617191891   -0.0537189523
      2  C        -0.8302525095   -0.2510406752   -0.0573503739
      3  C         1.6878484367   -0.1556739093   -0.2382106648
      4  C        -0.8166694600    1.2870145723   -0.2394997223
      5  O         2.7976723494   -0.8911711715    0.2694721812
      6  O         1.7660937370    0.9946300818   -0.7407006804
      7  O        -0.3184642369    1.8774731247    0.9595465579
      8  O        -1.2481749147    1.9327216952   -1.2242432004
      9  C        -0.2669282174    3.3435108661    0.7931265851
     10  C         4.0341131346   -0.1059216944    0.0848092206
     11  C         0.4029928300   -2.3700557489    0.0778592054
     12  C        -0.8155700413   -3.0633014847    0.1928107330
     13  C        -2.0366756279   -2.3570265906    0.1682231326
     14  C        -2.0642978298   -0.9487102682    0.0384799542
     15  H         0.3806945586    3.6345470843   -0.0598170581
     16  H         4.2562204282    0.0636794536   -0.9896730310
     17  H        -2.9856864279   -2.9052872074    0.2487942267
     18  H        -1.2778885858    3.7733604971    0.6324370430
     19  H         0.1584410493    3.7382038729    1.7347746025
     20  H         4.8441278764   -0.7068239538    0.5391830537
     21  H         3.9731527354    0.8801271286    0.5906938072
     22  H        -0.8177337025   -4.1572580217    0.2942252063
     23  H         1.3612381688   -2.9076039556    0.0816349849
     24  C        -3.4027958189   -0.1908070573   -0.0008790770
     25  H        -3.5390050785    0.3019704639   -0.9784464840
     26  H        -3.4355611526    0.5889255278    0.7782269495
     27  H        -4.2406580669   -0.8850825286    0.1630759664
   Point Group: c1    Number of degrees of freedom:    75


   Energy is   -717.954088375

              Constraints and their Current Values
                                        Value     Constraint
   Dihedral:        2   1   3   5      158.601      158.600
   Dihedral:        1   2   4   7      -72.297      -72.300
 Hessian Updated using BFGS Update

   Using Lagrange Multiplier Algorithm


 68 Hessian modes will be used to form the next step
  Hessian Eigenvalues:
    -0.977757   -0.976289    0.042163    0.045000    0.045000    0.045000
     0.045000    0.045000    0.045001    0.045002    0.045006    0.045008
     0.045022    0.045054    0.045135    0.045612    0.093493    0.094213
     0.113052    0.113888    0.116885    0.116948    0.158591    0.159985
     0.159995    0.160000    0.161347    0.163698    0.220867    0.234558
     0.243760    0.248938    0.249249    0.249759    0.249933    0.249979
     0.250000    0.251064    0.290028    0.319402    0.336798    0.342281
     0.342635    0.342721    0.342882    0.343319    0.343774    0.343971
     0.344402    0.345373    0.348672    0.350316    0.350723    0.375012
     0.394727    0.410473    0.413526    0.425221    0.442381    0.451613
     0.463909    0.470936    0.480981    0.534663    0.959793    1.006619
     1.022772    1.038885

 Minimum Search - Taking P-RFO Step
 Searching for Lamda that Maximizes Along the Constraint modes Only
 Value Taken    Lamda =   0.00001144
 Searching for Lamda that Minimizes Along All other modes
 Value Taken    Lamda =  -0.00051075
 Step Taken.  Stepsize is  0.059154

                             Maximum     Tolerance    Cnvgd?
         Gradient            0.005576       0.000300      NO
         Displacement        0.018032       0.001200      NO
         Energy change     -0.002543       0.000001      NO


 New Cartesian Coordinates Obtained by Inverse Iteration

 Displacement from previous Coordinates is:  0.162172
 Adding empirical dispersion correction 
 ----------------------------------------------------------------
 Doing -D3(op) with
 s6 =   1.00000
 s8 =   0.78311
 a1 =   0.30000
 a2 =   4.25000
 n  =  10.00000
 -D3 energy without 3body term =     -0.0279396329 hartrees
 ----------------------------------------------------------------
             Standard Nuclear Orientation (Angstroms)
    I     Atom           X                Y                Z
 ----------------------------------------------------------------
    1      C       0.3893026242    -0.9595656460    -0.0612196129
    2      C      -0.8415127115    -0.2520764237    -0.0604875526
    3      C       1.6811809527    -0.1518283651    -0.2342570078
    4      C      -0.8343448937     1.2867322159    -0.2449553418
    5      O       2.7983353132    -0.8904151886     0.2696481747
    6      O       1.7625417515     1.0022058016    -0.7243142529
    7      O      -0.3311241183     1.8886414132     0.9551924613
    8      O      -1.2513255176     1.9283891179    -1.2358805134
    9      C      -0.2553484194     3.3596176328     0.7894511993
   10      C       4.0445732278    -0.1086196043     0.0919881263
   11      C       0.4006551426    -2.3681132184     0.0677374886
   12      C      -0.8147718112    -3.0659837535     0.1829911371
   13      C      -2.0377250121    -2.3648886359     0.1655869432
   14      C      -2.0717196824    -0.9565963378     0.0397738942
   15      H       0.4031685487     3.6346045517    -0.0592629404
   16      H       4.2651830155     0.0673971325    -0.9808026180
   17      H      -2.9836149930    -2.9174098593     0.2502655074
   18      H      -1.2570877401     3.8033617857     0.6162329099
   19      H       0.1669817202     3.7540006530     1.7319468193
   20      H       4.8527004930    -0.7140273136     0.5421329797
   21      H       3.9839763128     0.8737114263     0.6029677211
   22      H      -0.8138018837    -4.1599738562     0.2821771721
   23      H       1.3614109359    -2.9001952945     0.0720141247
   24      C      -3.4130558713    -0.2027764312     0.0090413825
   25      H      -3.5509944902     0.2950371929    -0.9655268674
   26      H      -3.4416204279     0.5748887768     0.7900134623
   27      H      -4.2498661097    -0.8974368602     0.1723793696
 ----------------------------------------------------------------
 Molecular Point Group                 C1    NOp =  1
 Largest Abelian Subgroup              C1    NOp =  1
 Nuclear Repulsion Energy =   989.6611246925 hartrees
 There are       55 alpha and       55 beta electrons
 Applying Cartesian multipole field
    Component          Value
    ---------          -----
     (2,0,0)        1.00000E-11
     (0,2,0)        2.00000E-11
     (0,0,2)       -3.00000E-11
 Nucleus-field energy     =     0.0000000388 hartrees
 Requested basis set is STO-3G
 There are 42 shells and 87 basis functions
 A cutoff of  1.0D-12 yielded    761 shell pairs
 There are      3680 function pairs
 Smallest overlap matrix eigenvalue = 1.82E-01
 Guess MOs from SCF MO coefficient file
 Reading MOs from coefficient file
 Reading MOs from coefficient file
 A restricted hybrid HF-DFT SCF calculation will be
 performed using Pulay DIIS extrapolation
 Exchange:     0.2000 Hartree-Fock + 0.0800 Slater + 0.7200 B88
 Correlation:  0.1900 VWN1RPA + 0.8100 LYP
 Using SG-1 standard quadrature grid
 Dispersion:   Grimme D3
 SCF converges when DIIS error is below 1.0E-08
 Geometry optimization detected.  Setting ReadMinima to 0
 Setting SaveMinima to 0
 -------------------------------------------------------
 OpenMP Integral computing Module                
 Release: version 1.0, May 2013, Q-Chem Inc. Pittsburgh 
 -------------------------------------------------------
 -------------------------------------------------------
 OpenMP BLAS3 based DFT computing Module                
 Release: version 1.0, May 2013, Q-Chem Inc. Pittsburgh 
 -------------------------------------------------------
 ---------------------------------------
  Cycle       Energy         DIIS Error
 ---------------------------------------
    1    -717.9493901629      1.10E-03
    2    -717.9542349728      2.89E-04
    3    -717.9538802121      6.34E-04
    4    -717.9543293056      5.96E-05
    5    -717.9543330741      1.52E-05
    6    -717.9543332998      5.91E-06
    7    -717.9543333379      2.81E-06
    8    -717.9543333460      1.04E-06
    9    -717.9543333470      3.77E-07
   10    -717.9543333472      4.94E-08
   11    -717.9543333472      1.81E-08
   12    -717.9543333472      6.10E-09 Convergence criterion met
 ---------------------------------------
 SCF time:  CPU 45.56 s  wall 1.92 s
 SCF   energy in the final basis set = -717.9543333472
 Total energy in the final basis set = -717.9543333472
 
 --------------------------------------------------------------
 
                    Orbital Energies (a.u.)
 --------------------------------------------------------------
 
 Alpha MOs
 -- Occupied --
-18.940 -18.928 -18.876 -18.870 -10.105 -10.099 -10.067 -10.058
-10.028 -10.028 -10.025 -10.020 -10.017 -10.016 -10.014  -1.013
 -1.003  -0.937  -0.929  -0.816  -0.735  -0.720  -0.672  -0.657
 -0.646  -0.587  -0.563  -0.507  -0.495  -0.457  -0.438  -0.426
 -0.414  -0.413  -0.404  -0.388  -0.379  -0.373  -0.367  -0.359
 -0.350  -0.342  -0.330  -0.312  -0.309  -0.295  -0.287  -0.259
 -0.250  -0.197  -0.193  -0.180  -0.170  -0.156  -0.148
 -- Virtual --
  0.045   0.071   0.113   0.135   0.237   0.246   0.272   0.317
  0.338   0.350   0.369   0.387   0.411   0.420   0.423   0.428
  0.429   0.436   0.437   0.440   0.446   0.453   0.461   0.474
  0.543   0.558   0.565   0.587   0.644   0.656   0.753   0.772
 --------------------------------------------------------------
 
          Ground-State Mulliken Net Atomic Charges

     Atom                 Charge (a.u.)
  ----------------------------------------
      1 C                    -0.016688
      2 C                    -0.014810
      3 C                     0.208483
      4 C                     0.214386
      5 O                    -0.165967
      6 O                    -0.210304
      7 O                    -0.167457
      8 O                    -0.208421
      9 C                    -0.128616
     10 C                    -0.127551
     11 C                    -0.074576
     12 C                    -0.076483
     13 C                    -0.075886
     14 C                     0.010833
     15 H                     0.093655
     16 H                     0.089631
     17 H                     0.081058
     18 H                     0.086474
     19 H                     0.088824
     20 H                     0.091775
     21 H                     0.091476
     22 H                     0.083638
     23 H                     0.092291
     24 C                    -0.225094
     25 H                     0.092527
     26 H                     0.085431
     27 H                     0.081373
  ----------------------------------------
  Sum of atomic charges =     0.000000

 -----------------------------------------------------------------
                    Cartesian Multipole Moments
 -----------------------------------------------------------------
    Charge (ESU x 10^10)
                 0.0000
    Dipole Moment (Debye)
         X       0.5168      Y      -0.7076      Z       1.1033
       Tot       1.4089
    Quadrupole Moments (Debye-Ang)
        XX     -68.6900     XY       1.7912     YY     -73.8465
        XZ      -1.4663     YZ       4.0554     ZZ     -83.5534
    Octopole Moments (Debye-Ang^2)
       XXX      37.9813    XXY       2.1294    XYY      -0.0042
       YYY      28.1235    XXZ       0.9353    XYZ      -0.0899
       YYZ      10.4251    XZZ      10.1564    YZZ       8.6568
       ZZZ      -6.3450
    Hexadecapole Moments (Debye-Ang^3)
      XXXX   -1855.8547   XXXY     -35.4579   XXYY    -611.9405
      XYYY     -35.7109   YYYY   -1513.0835   XXXZ       0.5579
      XXYZ       2.6136   XYYZ      -8.5157   YYYZ      12.6003
      XXZZ    -381.8079   XYZZ     -14.4047   YYZZ    -319.9710
      XZZZ      -3.7362   YZZZ      -2.5889   ZZZZ    -195.9478
 -----------------------------------------------------------------
 Calculating analytic gradient of the SCF energy
 Gradient of SCF Energy
            1           2           3           4           5           6
    1  -0.0010273   0.0002283   0.0000867   0.0009877  -0.0006723  -0.0001971
    2  -0.0008029  -0.0003556  -0.0018517  -0.0010935   0.0011626   0.0008605
    3  -0.0020051   0.0031206  -0.0008159   0.0004127   0.0012164  -0.0005171
            7           8           9          10          11          12
    1  -0.0005801  -0.0004166   0.0004340   0.0011204   0.0000193   0.0000103
    2  -0.0000349   0.0007475   0.0009034  -0.0002639  -0.0001595   0.0002779
    3  -0.0005489  -0.0009922   0.0008257   0.0003354  -0.0002879  -0.0000861
           13          14          15          16          17          18
    1   0.0001363  -0.0001219  -0.0003140  -0.0000389  -0.0000638   0.0001398
    2   0.0001349  -0.0001106   0.0000215   0.0001157   0.0000473  -0.0000226
    3  -0.0000196  -0.0003350  -0.0000543   0.0000914  -0.0000638  -0.0000542
           19          20          21          22          23          24
    1   0.0001371   0.0002424  -0.0000383  -0.0000378   0.0000114  -0.0003292
    2   0.0002641   0.0000864  -0.0000292   0.0000029   0.0000719   0.0000516
    3  -0.0000019  -0.0000211  -0.0001949   0.0000963  -0.0000338  -0.0000737
           25          26          27
    1   0.0001017   0.0001452   0.0000365
    2  -0.0000198   0.0000777  -0.0000818
    3   0.0000072  -0.0000992   0.0000993
 Max gradient component =       3.121E-03
 RMS gradient           =       6.365E-04
 Gradient time:  CPU 12.18 s  wall 0.51 s
 Geometry Optimization Parameters
   NAtoms,    NIC,     NZ,  NCons,   NDum,   NFix, NCnnct, MaxDiis
       27     173       0       2       0       0       0       0

 Cartesian Hessian Update
 Hessian Updated using BFGS Update


** CONSTRAINED OPTIMIZATION IN DELOCALIZED INTERNAL COORDINATES **
   Searching for a Minimum

   Optimization Cycle:   4

                       Coordinates (Angstroms)
     ATOM                X               Y               Z
      1  C         0.3893026242   -0.9595656460   -0.0612196129
      2  C        -0.8415127115   -0.2520764237   -0.0604875526
      3  C         1.6811809527   -0.1518283651   -0.2342570078
      4  C        -0.8343448937    1.2867322159   -0.2449553418
      5  O         2.7983353132   -0.8904151886    0.2696481747
      6  O         1.7625417515    1.0022058016   -0.7243142529
      7  O        -0.3311241183    1.8886414132    0.9551924613
      8  O        -1.2513255176    1.9283891179   -1.2358805134
      9  C        -0.2553484194    3.3596176328    0.7894511993
     10  C         4.0445732278   -0.1086196043    0.0919881263
     11  C         0.4006551426   -2.3681132184    0.0677374886
     12  C        -0.8147718112   -3.0659837535    0.1829911371
     13  C        -2.0377250121   -2.3648886359    0.1655869432
     14  C        -2.0717196824   -0.9565963378    0.0397738942
     15  H         0.4031685487    3.6346045517   -0.0592629404
     16  H         4.2651830155    0.0673971325   -0.9808026180
     17  H        -2.9836149930   -2.9174098593    0.2502655074
     18  H        -1.2570877401    3.8033617857    0.6162329099
     19  H         0.1669817202    3.7540006530    1.7319468193
     20  H         4.8527004930   -0.7140273136    0.5421329797
     21  H         3.9839763128    0.8737114263    0.6029677211
     22  H        -0.8138018837   -4.1599738562    0.2821771721
     23  H         1.3614109359   -2.9001952945    0.0720141247
     24  C        -3.4130558713   -0.2027764312    0.0090413825
     25  H        -3.5509944902    0.2950371929   -0.9655268674
     26  H        -3.4416204279    0.5748887768    0.7900134623
     27  H        -4.2498661097   -0.8974368602    0.1723793696
   Point Group: c1    Number of degrees of freedom:    75


   Energy is   -717.954333347

              Constraints and their Current Values
                                        Value     Constraint
   Dihedral:        2   1   3   5      158.600      158.600
   Dihedral:        1   2   4   7      -72.300      -72.300
 Hessian Updated using BFGS Update

   Using Lagrange Multiplier Algorithm


 69 Hessian modes will be used to form the next step
  Hessian Eigenvalues:
    -0.975292    0.037927    0.045000    0.045000    0.045000    0.045000
     0.045000    0.045001    0.045002    0.045006    0.045007    0.045010
     0.045029    0.045071    0.045127    0.046296    0.093801    0.094211
     0.113885    0.114639    0.116858    0.116948    0.158470    0.159985
     0.159995    0.160000    0.160115    0.161349    0.164104    0.220841
     0.234016    0.240719    0.248949    0.249286    0.249446    0.249924
     0.249971    0.249999    0.250000    0.250906    0.297937    0.319369
     0.336457    0.342245    0.342640    0.342728    0.342883    0.343384
     0.343837    0.343919    0.344422    0.347880    0.349015    0.350372
     0.351299    0.372133    0.408668    0.412207    0.413460    0.441398
     0.451075    0.458798    0.464427    0.470411    0.521283    0.537335
     0.959150    0.986691    1.031682

 Minimum Search - Taking P-RFO Step
 Searching for Lamda that Maximizes Along the Constraint modes Only
 Value Taken    Lamda =   0.00000055
 Searching for Lamda that Minimizes Along All other modes
 Value Taken    Lamda =  -0.00005192
 Step Taken.  Stepsize is  0.021161

                             Maximum     Tolerance    Cnvgd?
         Gradient            0.002230       0.000300      NO
         Displacement        0.009923       0.001200      NO
         Energy change     -0.000245       0.000001      NO


 New Cartesian Coordinates Obtained by Inverse Iteration

 Displacement from previous Coordinates is:  0.063444
 Adding empirical dispersion correction 
 ----------------------------------------------------------------
 Doing -D3(op) with
 s6 =   1.00000
 s8 =   0.78311
 a1 =   0.30000
 a2 =   4.25000
 n  =  10.00000
 -D3 energy without 3body term =     -0.0279348618 hartrees
 ----------------------------------------------------------------
             Standard Nuclear Orientation (Angstroms)
    I     Atom           X                Y                Z
 ----------------------------------------------------------------
    1      C       0.3905680613    -0.9546311171    -0.0655246419
    2      C      -0.8419252260    -0.2488325064    -0.0643712352
    3      C       1.6840970188    -0.1497256367    -0.2345124559
    4      C      -0.8382225871     1.2895593978    -0.2457789613
    5      O       2.7969943150    -0.8944626623     0.2702303068
    6      O       1.7721426144     1.0046953106    -0.7211203300
    7      O      -0.3369985783     1.8894450575     0.9564395284
    8      O      -1.2547135115     1.9320527349    -1.2353879104
    9      C      -0.2592230592     3.3591770677     0.7858922893
   10      C       4.0436625508    -0.1143477404     0.0936121440
   11      C       0.4026519702    -2.3633832634     0.0645192227
   12      C      -0.8114708278    -3.0635875999     0.1801944837
   13      C      -2.0352616696    -2.3641131321     0.1647228965
   14      C      -2.0708401420    -0.9555505613     0.0394020094
   15      H       0.4066995433     3.6304742974    -0.0584630515
   16      H       4.2652591290     0.0618726329    -0.9790389252
   17      H      -2.9800569223    -2.9180429420     0.2519865505
   18      H      -1.2593349752     3.8039096419     0.6051025580
   19      H       0.1569539897     3.7548456546     1.7303591782
   20      H       4.8493203102    -0.7230126323     0.5433827521
   21      H       3.9853723612     0.8670807838     0.6068239210
   22      H      -0.8085992001    -4.1576045014     0.2791342241
   23      H       1.3638566322    -2.8946610184     0.0695256632
   24      C      -3.4132183091    -0.2032025647     0.0135683059
   25      H      -3.5550690394     0.2963351291    -0.9596139819
   26      H      -3.4413911987     0.5729452291     0.7961238302
   27      H      -4.2491568940    -0.8985541472     0.1776257955
 ----------------------------------------------------------------
 Molecular Point Group                 C1    NOp =  1
 Largest Abelian Subgroup              C1    NOp =  1
 Nuclear Repulsion Energy =   989.6382004078 hartrees
 There are       55 alpha and       55 beta electrons
 Applying Cartesian multipole field
    Component          Value
    ---------          -----
     (2,0,0)        1.00000E-11
     (0,2,0)        2.00000E-11
     (0,0,2)       -3.00000E-11
 Nucleus-field energy     =     0.0000000388 hartrees
 Requested basis set is STO-3G
 There are 42 shells and 87 basis functions
 A cutoff of  1.0D-12 yielded    761 shell pairs
 There are      3680 function pairs
 Smallest overlap matrix eigenvalue = 1.82E-01
 Guess MOs from SCF MO coefficient file
 Reading MOs from coefficient file
 Reading MOs from coefficient file
 A restricted hybrid HF-DFT SCF calculation will be
 performed using Pulay DIIS extrapolation
 Exchange:     0.2000 Hartree-Fock + 0.0800 Slater + 0.7200 B88
 Correlation:  0.1900 VWN1RPA + 0.8100 LYP
 Using SG-1 standard quadrature grid
 Dispersion:   Grimme D3
 SCF converges when DIIS error is below 1.0E-08
 Geometry optimization detected.  Setting ReadMinima to 0
 Setting SaveMinima to 0
 -------------------------------------------------------
 OpenMP Integral computing Module                
 Release: version 1.0, May 2013, Q-Chem Inc. Pittsburgh 
 -------------------------------------------------------
 -------------------------------------------------------
 OpenMP BLAS3 based DFT computing Module                
 Release: version 1.0, May 2013, Q-Chem Inc. Pittsburgh 
 -------------------------------------------------------
 ---------------------------------------
  Cycle       Energy         DIIS Error
 ---------------------------------------
    1    -717.9546996217      3.39E-04
    2    -717.9543541518      2.51E-05
    3    -717.9543535970      3.77E-05
    4    -717.9543550826      1.38E-05
    5    -717.9543552722      3.91E-06
    6    -717.9543552888      1.18E-06
    7    -717.9543552905      3.24E-07
    8    -717.9543552907      1.74E-07
    9    -717.9543552907      7.04E-08
   10    -717.9543552907      2.18E-08
   11    -717.9543552907      4.76E-09 Convergence criterion met
 ---------------------------------------
 SCF time:  CPU 41.16 s  wall 1.74 s
 SCF   energy in the final basis set = -717.9543552907
 Total energy in the final basis set = -717.9543552907
 
 --------------------------------------------------------------
 
                    Orbital Energies (a.u.)
 --------------------------------------------------------------
 
 Alpha MOs
 -- Occupied --
-18.940 -18.928 -18.876 -18.871 -10.105 -10.100 -10.067 -10.058
-10.028 -10.028 -10.025 -10.020 -10.016 -10.016 -10.014  -1.014
 -1.003  -0.938  -0.930  -0.816  -0.735  -0.720  -0.672  -0.656
 -0.646  -0.587  -0.563  -0.507  -0.495  -0.457  -0.439  -0.426
 -0.414  -0.413  -0.404  -0.388  -0.379  -0.373  -0.367  -0.359
 -0.350  -0.342  -0.330  -0.313  -0.309  -0.295  -0.287  -0.259
 -0.250  -0.197  -0.193  -0.180  -0.170  -0.156  -0.148
 -- Virtual --
  0.045   0.071   0.113   0.135   0.237   0.247   0.273   0.317
  0.338   0.349   0.369   0.387   0.411   0.420   0.423   0.428
  0.430   0.436   0.437   0.440   0.446   0.453   0.461   0.474
  0.543   0.558   0.564   0.587   0.645   0.656   0.752   0.771
 --------------------------------------------------------------
 
          Ground-State Mulliken Net Atomic Charges

     Atom                 Charge (a.u.)
  ----------------------------------------
      1 C                    -0.016779
      2 C                    -0.014869
      3 C                     0.208501
      4 C                     0.214589
      5 O                    -0.165994
      6 O                    -0.210507
      7 O                    -0.167193
      8 O                    -0.208218
      9 C                    -0.128630
     10 C                    -0.127544
     11 C                    -0.074465
     12 C                    -0.076542
     13 C                    -0.075857
     14 C                     0.010844
     15 H                     0.093633
     16 H                     0.089576
     17 H                     0.081085
     18 H                     0.086590
     19 H                     0.088738
     20 H                     0.091596
     21 H                     0.091447
     22 H                     0.083653
     23 H                     0.092310
     24 C                    -0.225145
     25 H                     0.092400
     26 H                     0.085401
     27 H                     0.081381
  ----------------------------------------
  Sum of atomic charges =     0.000000

 -----------------------------------------------------------------
                    Cartesian Multipole Moments
 -----------------------------------------------------------------
    Charge (ESU x 10^10)
                 0.0000
    Dipole Moment (Debye)
         X       0.5024      Y      -0.7107      Z       1.0998
       Tot       1.4025
    Quadrupole Moments (Debye-Ang)
        XX     -68.7556     XY       1.7567     YY     -73.8767
        XZ      -1.4657     YZ       4.0385     ZZ     -83.5479
    Octopole Moments (Debye-Ang^2)
       XXX      37.6554    XXY       1.9535    XYY      -0.0676
       YYY      27.7915    XXZ       1.0227    XYZ      -0.0754
       YYZ      10.4282    XZZ      10.1568    YZZ       8.5623
       ZZZ      -6.2283
    Hexadecapole Moments (Debye-Ang^3)
      XXXX   -1858.2462   XXXY     -34.4259   XXYY    -612.0436
      XYYY     -34.3065   YYYY   -1512.7543   XXXZ       0.7198
      XXYZ       2.5755   XYYZ      -8.5024   YYYZ      12.4649
      XXZZ    -381.8918   XYZZ     -13.8802   YYZZ    -319.8491
      XZZZ      -3.6009   YZZZ      -2.6480   ZZZZ    -195.6283
 -----------------------------------------------------------------
 Calculating analytic gradient of the SCF energy
 Gradient of SCF Energy
            1           2           3           4           5           6
    1  -0.0001514  -0.0000337   0.0005443   0.0005892  -0.0004466  -0.0000084
    2  -0.0003704   0.0003734  -0.0011766  -0.0000212   0.0006194   0.0002190
    3  -0.0021912   0.0028605  -0.0010793  -0.0006260   0.0014869  -0.0002411
            7           8           9          10          11          12
    1  -0.0004200  -0.0001334   0.0001262   0.0003808   0.0000044  -0.0000571
    2   0.0000121   0.0000669   0.0003088   0.0000892  -0.0000859   0.0000376
    3   0.0003529  -0.0000710   0.0001668   0.0000318  -0.0001660  -0.0000799
           13          14          15          16          17          18
    1   0.0000731  -0.0001162  -0.0000878  -0.0000201   0.0000105  -0.0000160
    2  -0.0000742  -0.0000678  -0.0000129  -0.0000063  -0.0000187   0.0000433
    3  -0.0000558  -0.0002183  -0.0001131  -0.0000326  -0.0000177   0.0000630
           19          20          21          22          23          24
    1   0.0000708  -0.0000761  -0.0000336  -0.0000491  -0.0000239  -0.0002130
    2  -0.0000168  -0.0000070   0.0000154  -0.0000182   0.0000073  -0.0000739
    3  -0.0000894  -0.0000168  -0.0000249   0.0000680   0.0000047   0.0000258
           25          26          27
    1   0.0000063   0.0000417   0.0000391
    2  -0.0000125   0.0000914   0.0000786
    3  -0.0000131  -0.0000869   0.0000627
 Max gradient component =       2.860E-03
 RMS gradient           =       5.050E-04
 Gradient time:  CPU 12.35 s  wall 0.52 s
 Geometry Optimization Parameters
   NAtoms,    NIC,     NZ,  NCons,   NDum,   NFix, NCnnct, MaxDiis
       27     173       0       2       0       0       0       0

 Cartesian Hessian Update
 Hessian Updated using BFGS Update


** CONSTRAINED OPTIMIZATION IN DELOCALIZED INTERNAL COORDINATES **
   Searching for a Minimum

   Optimization Cycle:   5

                       Coordinates (Angstroms)
     ATOM                X               Y               Z
      1  C         0.3905680613   -0.9546311171   -0.0655246419
      2  C        -0.8419252260   -0.2488325064   -0.0643712352
      3  C         1.6840970188   -0.1497256367   -0.2345124559
      4  C        -0.8382225871    1.2895593978   -0.2457789613
      5  O         2.7969943150   -0.8944626623    0.2702303068
      6  O         1.7721426144    1.0046953106   -0.7211203300
      7  O        -0.3369985783    1.8894450575    0.9564395284
      8  O        -1.2547135115    1.9320527349   -1.2353879104
      9  C        -0.2592230592    3.3591770677    0.7858922893
     10  C         4.0436625508   -0.1143477404    0.0936121440
     11  C         0.4026519702   -2.3633832634    0.0645192227
     12  C        -0.8114708278   -3.0635875999    0.1801944837
     13  C        -2.0352616696   -2.3641131321    0.1647228965
     14  C        -2.0708401420   -0.9555505613    0.0394020094
     15  H         0.4066995433    3.6304742974   -0.0584630515
     16  H         4.2652591290    0.0618726329   -0.9790389252
     17  H        -2.9800569223   -2.9180429420    0.2519865505
     18  H        -1.2593349752    3.8039096419    0.6051025580
     19  H         0.1569539897    3.7548456546    1.7303591782
     20  H         4.8493203102   -0.7230126323    0.5433827521
     21  H         3.9853723612    0.8670807838    0.6068239210
     22  H        -0.8085992001   -4.1576045014    0.2791342241
     23  H         1.3638566322   -2.8946610184    0.0695256632
     24  C        -3.4132183091   -0.2032025647    0.0135683059
     25  H        -3.5550690394    0.2963351291   -0.9596139819
     26  H        -3.4413911987    0.5729452291    0.7961238302
     27  H        -4.2491568940   -0.8985541472    0.1776257955
   Point Group: c1    Number of degrees of freedom:    75


   Energy is   -717.954355291

              Constraints and their Current Values
                                        Value     Constraint
   Dihedral:        2   1   3   5      158.600      158.600
   Dihedral:        1   2   4   7      -72.300      -72.300
 Hessian Updated using BFGS Update

 64 Hessian modes will be used to form the next step
  Hessian Eigenvalues:
     0.026190    0.044066    0.045000    0.045001    0.045002    0.045003
     0.045006    0.045009    0.045022    0.045056    0.045135    0.046046
     0.093421    0.094217    0.113870    0.114228    0.116861    0.116949
     0.158593    0.159770    0.159988    0.159996    0.161003    0.162252
     0.164298    0.221227    0.232913    0.239954    0.244851    0.249005
     0.249372    0.249902    0.249994    0.250000    0.250892    0.265271
     0.316312    0.319622    0.336430    0.342418    0.342651    0.342735
     0.342881    0.343438    0.343834    0.344199    0.344688    0.348537
     0.349222    0.350466    0.350881    0.370765    0.409980    0.411882
     0.422824    0.440670    0.451594    0.457199    0.464595    0.476233
     0.509681    0.539991    0.961058    0.982656

 Minimum Search - Taking Simple RFO Step
 Searching for Lamda that Minimizes Along All modes
 Value Taken    Lamda =  -0.00001791
 Step Taken.  Stepsize is  0.023643

                             Maximum     Tolerance    Cnvgd?
         Gradient           0.000521      0.000300      NO
         Displacement       0.012176      0.001200      NO
         Energy change     -0.000022      0.000001      NO


 New Cartesian Coordinates Obtained by Inverse Iteration

 Displacement from previous Coordinates is:  0.064841
 Adding empirical dispersion correction 
 ----------------------------------------------------------------
 Doing -D3(op) with
 s6 =   1.00000
 s8 =   0.78311
 a1 =   0.30000
 a2 =   4.25000
 n  =  10.00000
 -D3 energy without 3body term =     -0.0279474330 hartrees
 ----------------------------------------------------------------
             Standard Nuclear Orientation (Angstroms)
    I     Atom           X                Y                Z
 ----------------------------------------------------------------
    1      C       0.3891959497    -0.9518977017    -0.0707172466
    2      C      -0.8440040607    -0.2482637589    -0.0691602669
    3      C       1.6821677294    -0.1461344965    -0.2357856904
    4      C      -0.8406117428     1.2894965915    -0.2487740113
    5      O       2.7936881460    -0.8934685054     0.2691251539
    6      O       1.7720766576     1.0098525501    -0.7174004962
    7      O      -0.3400301145     1.8869214234     0.9548260350
    8      O      -1.2537567750     1.9334735242    -1.2384095428
    9      C      -0.2546952883     3.3556249906     0.7825265138
   10      C       4.0405769932    -0.1136097270     0.0966146164
   11      C       0.4029778157    -2.3605093903     0.0608777673
   12      C      -0.8100227195    -3.0624579148     0.1781513176
   13      C      -2.0347518656    -2.3643788352     0.1647966240
   14      C      -2.0717026349    -0.9559196581     0.0389915733
   15      H       0.4213821562     3.6228780562    -0.0550390990
   16      H       4.2640411051     0.0656528696    -0.9751266750
   17      H      -2.9788760081    -2.9189619031     0.2552434057
   18      H      -1.2510826190     3.8042653002     0.5912966159
   19      H       0.1536096612     3.7508340248     1.7307077363
   20      H       4.8453519914    -0.7242496176     0.5455223489
   21      H       3.9826523752     0.8660822278     0.6131524133
   22      H      -0.8052292484    -4.1564140184     0.2772901295
   23      H       1.3649029430    -2.8905609113     0.0662557932
   24      C      -3.4145672701    -0.2046431582     0.0180578827
   25      H      -3.5600621361     0.2966882664    -0.9536825501
   26      H      -3.4416997794     0.5696071988     0.8025826650
   27      H      -4.2494349052    -0.9012265152     0.1829111528
 ----------------------------------------------------------------
 Molecular Point Group                 C1    NOp =  1
 Largest Abelian Subgroup              C1    NOp =  1
 Nuclear Repulsion Energy =   989.9314396234 hartrees
 There are       55 alpha and       55 beta electrons
 Applying Cartesian multipole field
    Component          Value
    ---------          -----
     (2,0,0)        1.00000E-11
     (0,2,0)        2.00000E-11
     (0,0,2)       -3.00000E-11
 Nucleus-field energy     =     0.0000000387 hartrees
 Requested basis set is STO-3G
[...]
 IR Intens:       10.500                  3.292                  9.895
 Raman Active:       YES                    YES                    YES
               X      Y      Z        X      Y      Z        X      Y      Z
 C         -0.005 -0.008  0.001    0.074  0.004 -0.000    0.225  0.008  0.000
 C          0.003  0.002 -0.000   -0.032  0.058 -0.007   -0.311 -0.052 -0.000
 C          0.012 -0.001  0.001   -0.026 -0.001  0.000   -0.036 -0.023  0.007
 C         -0.001 -0.001 -0.000    0.004 -0.018 -0.008    0.030  0.012 -0.019
 O         -0.002 -0.017  0.005    0.002 -0.000  0.000   -0.005  0.002 -0.001
 O         -0.004  0.006 -0.002    0.003 -0.001  0.000    0.005  0.012 -0.004
 O         -0.000  0.001 -0.002   -0.000  0.004  0.002   -0.003  0.003  0.003
 O          0.000  0.000  0.001    0.001 -0.001  0.003   -0.002 -0.008  0.013
 C         -0.002  0.002 -0.006   -0.002  0.006 -0.001   -0.001  0.000  0.001
 C         -0.007 -0.054  0.016    0.006  0.004 -0.001    0.003  0.001  0.000
 C         -0.003  0.003 -0.000   -0.031 -0.063  0.007   -0.238 -0.172  0.020
 C          0.009  0.003 -0.000   -0.026  0.038 -0.005    0.402  0.068 -0.005
 C         -0.000 -0.006  0.001    0.043 -0.011  0.001   -0.210  0.025 -0.005
 C         -0.004  0.002  0.000   -0.031 -0.067  0.013    0.228  0.124 -0.011
 H          0.055 -0.026  0.049    0.030 -0.030  0.019   -0.005 -0.015 -0.010
 H          0.099  0.623  0.251   -0.028 -0.031 -0.016   -0.002 -0.010 -0.004
 H         -0.018  0.018 -0.003   -0.066  0.150 -0.019   -0.072 -0.200  0.023
 H         -0.036 -0.035  0.055   -0.023 -0.044  0.011    0.000  0.010  0.001
 H          0.008  0.031 -0.015    0.017 -0.011  0.002   -0.009 -0.006  0.004
 H         -0.138 -0.169  0.024   -0.014 -0.018  0.003    0.009  0.005 -0.002
 H          0.115  0.415 -0.533   -0.031 -0.018  0.026   -0.003 -0.006  0.008
 H         -0.029  0.001 -0.000    0.086  0.056 -0.005   -0.529  0.000 -0.004
 H         -0.005  0.002  0.000    0.102  0.222 -0.026   -0.021  0.336 -0.039
 C         -0.002 -0.002  0.002   -0.032 -0.018  0.013   -0.028 -0.011  0.001
 H         -0.004  0.022  0.011    0.036  0.491  0.190    0.016 -0.064 -0.023
 H          0.020  0.025 -0.026    0.111  0.382 -0.425    0.063 -0.041  0.050
 H          0.017 -0.024 -0.014    0.331 -0.371  0.004   -0.130  0.086 -0.038
 TransDip  -0.079  0.066 -0.014   -0.008  0.047 -0.034   -0.073 -0.070 -0.001

 Mode:                61                     62                     63
 Frequency:      1629.90                1766.28                1787.35
 Force Cnst:      9.0147                21.5697                22.3046
 Red. Mass:       5.7594                11.7348                11.8502
 IR Active:          YES                    YES                    YES
 IR Intens:        9.915                249.871                272.438
 Raman Active:       YES                    YES                    YES
               X      Y      Z        X      Y      Z        X      Y      Z
 C          0.088 -0.259  0.034   -0.009 -0.115  0.019    0.011  0.004 -0.001
 C         -0.077  0.152 -0.018   -0.025  0.040 -0.007   -0.030  0.078 -0.028
 C         -0.018 -0.033  0.013    0.040  0.756 -0.202   -0.010 -0.053  0.014
 C          0.000 -0.019 -0.031    0.029 -0.012  0.046    0.236 -0.386  0.642
 O         -0.003 -0.004  0.001    0.011 -0.051  0.014    0.001  0.004 -0.001
 O          0.008  0.044 -0.012   -0.008 -0.476  0.131    0.002  0.034 -0.012
 O          0.000  0.004  0.004   -0.006 -0.004 -0.006   -0.016  0.008 -0.049
 O          0.006 -0.008  0.020   -0.013  0.010 -0.028   -0.152  0.227 -0.428
 C         -0.000  0.004  0.001    0.001 -0.002 -0.002    0.004 -0.029  0.009
 C         -0.001  0.000 -0.000    0.024  0.023 -0.006   -0.002 -0.002  0.001
 C          0.064  0.280 -0.034   -0.026  0.016 -0.001    0.001 -0.005  0.003
 C          0.056 -0.162  0.020    0.038 -0.003  0.000    0.007 -0.002 -0.000
 C         -0.173  0.309 -0.042   -0.021  0.017 -0.002   -0.013  0.008  0.001
 C          0.056 -0.272  0.036    0.017 -0.016  0.002    0.017 -0.014  0.007
 H          0.001 -0.014 -0.007    0.017 -0.021  0.009   -0.009  0.111  0.090
 H          0.013  0.001  0.001   -0.144  0.029 -0.041    0.011 -0.002  0.004
 H          0.333 -0.405  0.061    0.010 -0.028  0.005    0.017 -0.031  0.004
 H         -0.004 -0.011 -0.008   -0.003 -0.001  0.024    0.044  0.107  0.092
 H          0.002 -0.014  0.007   -0.009  0.013 -0.005   -0.023  0.216 -0.068
 H          0.004  0.005 -0.002   -0.174 -0.169  0.041    0.012  0.011 -0.004
 H          0.009 -0.001 -0.000   -0.144  0.040  0.009    0.009 -0.002 -0.001
 H         -0.026 -0.193  0.026   -0.041 -0.011  0.001   -0.003 -0.004 -0.003
 H         -0.230 -0.336  0.038   -0.052 -0.011  0.002   -0.001 -0.009  0.005
 C         -0.017  0.023 -0.003   -0.003  0.002 -0.000    0.003  0.007 -0.001
 H         -0.045  0.141  0.050    0.003  0.006 -0.000   -0.072 -0.053 -0.004
 H         -0.087  0.101 -0.108    0.008  0.009 -0.003    0.012 -0.021  0.027
 H          0.125 -0.112  0.036    0.012 -0.013 -0.001   -0.029  0.021 -0.046
 TransDip   0.056 -0.083 -0.015    0.004  0.498 -0.094    0.161 -0.177  0.472

 Mode:                64                     65                     66
 Frequency:      3035.18                3050.14                3050.56
 Force Cnst:      5.6253                 5.6435                 5.6432
 Red. Mass:       1.0364                 1.0296                 1.0292
 IR Active:          YES                    YES                    YES
 IR Intens:       18.037                 33.250                 40.241
 Raman Active:       YES                    YES                    YES
               X      Y      Z        X      Y      Z        X      Y      Z
 C         -0.000  0.000 -0.000    0.000 -0.000  0.000    0.000 -0.000  0.000
 C          0.001  0.000 -0.000   -0.000  0.000 -0.000   -0.000  0.000  0.000
 C          0.000  0.000 -0.000   -0.002  0.002 -0.001   -0.000  0.000 -0.000
 C         -0.000  0.000 -0.000    0.000  0.000  0.001   -0.001 -0.001 -0.003
 O         -0.000 -0.000 -0.000    0.003  0.001 -0.000    0.001  0.000 -0.000
 O         -0.000 -0.000  0.000    0.000 -0.001  0.000   -0.000 -0.000  0.000
 O          0.000 -0.000 -0.000   -0.000 -0.001 -0.000    0.000  0.003  0.001
 O          0.000 -0.000  0.000   -0.000  0.000 -0.000    0.000 -0.000  0.001
 C          0.000 -0.000  0.000    0.001 -0.011  0.004   -0.004  0.040 -0.014
 C         -0.000 -0.000  0.000    0.029  0.030 -0.007    0.008  0.009 -0.002
 C         -0.000 -0.000 -0.000    0.000 -0.000  0.000    0.000 -0.000 -0.000
 C         -0.000  0.000 -0.000    0.000  0.000 -0.000   -0.000  0.000 -0.000
 C          0.001  0.000  0.000    0.000  0.000  0.000    0.000  0.000 -0.000
 C          0.000 -0.000  0.000    0.000  0.000  0.000   -0.000  0.000 -0.000
 H          0.001  0.000 -0.001    0.125  0.049 -0.105   -0.433 -0.169  0.363
 H          0.000  0.001 -0.004   -0.051 -0.196  0.573   -0.015 -0.057  0.166
 H         -0.011 -0.007  0.001   -0.000 -0.000  0.000   -0.001 -0.000  0.000
 H         -0.001  0.000 -0.001   -0.161  0.055 -0.060    0.555 -0.189  0.206
 H          0.000  0.000  0.001    0.022  0.041  0.117   -0.074 -0.140 -0.402
 H          0.002 -0.002  0.001   -0.306  0.283 -0.091   -0.088  0.082 -0.026
 H         -0.000  0.003  0.003   -0.008 -0.465 -0.393   -0.002 -0.134 -0.114
 H         -0.000  0.000  0.000    0.000 -0.001  0.000    0.000 -0.000  0.000
 H          0.001 -0.000  0.000   -0.002  0.000 -0.000   -0.000 -0.000 -0.000
 C         -0.041  0.030  0.001   -0.000  0.000 -0.000   -0.000  0.000  0.000
 H          0.078 -0.194  0.521    0.001 -0.001  0.003    0.000 -0.000  0.001
 H          0.063 -0.503 -0.432    0.000 -0.002 -0.002    0.000 -0.003 -0.003
 H          0.337  0.340 -0.096    0.002  0.002 -0.001   -0.000 -0.000  0.000
 TransDip  -0.130  0.035  0.020    0.184  0.006 -0.015    0.031  0.199  0.025

 Mode:                67                     68                     69
 Frequency:      3090.47                3111.75                3123.14
 Force Cnst:      6.1899                 6.2889                 6.3620
 Red. Mass:       1.1000                 1.1023                 1.1070
 IR Active:          YES                    YES                    YES
 IR Intens:        8.589                 15.309                 17.424
 Raman Active:       YES                    YES                    YES
               X      Y      Z        X      Y      Z        X      Y      Z
 C          0.000 -0.000 -0.000    0.000 -0.000  0.000    0.000 -0.000 -0.000
 C          0.000  0.000  0.000   -0.000 -0.000  0.000    0.000  0.000  0.000
 C         -0.000 -0.000  0.000    0.000 -0.000  0.000   -0.000  0.000  0.000
 C          0.000  0.000 -0.000    0.000 -0.000  0.000   -0.000 -0.000 -0.000
 O          0.000  0.000  0.000   -0.000  0.000 -0.000   -0.000  0.000  0.000
 O         -0.000  0.000 -0.000   -0.000  0.000 -0.000   -0.000  0.000  0.000
 O         -0.000  0.000  0.000   -0.000 -0.000 -0.000    0.000  0.000  0.000
 O          0.000  0.000  0.000   -0.000  0.000 -0.000   -0.000  0.000  0.000
 C         -0.000  0.000 -0.000   -0.000  0.000 -0.000    0.001  0.000 -0.000
 C         -0.000  0.000  0.000   -0.000  0.000 -0.000    0.005 -0.026 -0.091
 C          0.000  0.000 -0.000    0.000  0.000 -0.000   -0.000  0.000  0.000
 C         -0.000 -0.000 -0.000   -0.000 -0.000  0.000    0.000 -0.000  0.000
 C          0.001  0.000 -0.000    0.004  0.003 -0.000   -0.000  0.000 -0.000
 C         -0.000 -0.000 -0.001    0.000 -0.001  0.000   -0.000 -0.000  0.000
 H         -0.001 -0.000  0.000    0.000  0.000 -0.001   -0.005 -0.002  0.004
 H          0.000  0.000 -0.000   -0.000 -0.000  0.000   -0.053 -0.243  0.655
 H         -0.006 -0.003  0.000   -0.042 -0.026  0.003    0.000  0.000 -0.000
 H          0.002 -0.001  0.001    0.004 -0.001  0.002   -0.007  0.002 -0.003
 H         -0.000 -0.000 -0.001    0.000  0.000  0.001   -0.000 -0.001 -0.001
 H          0.000 -0.000  0.000    0.000 -0.000  0.000   -0.007  0.002 -0.020
 H          0.000 -0.000 -0.000   -0.000 -0.000 -0.000    0.004  0.551  0.443
 H         -0.000  0.001 -0.000   -0.001  0.007 -0.001   -0.000  0.000 -0.000
 H          0.000 -0.000 -0.000   -0.000  0.000 -0.000    0.000 -0.000 -0.000
 C         -0.011 -0.030 -0.086   -0.042 -0.076  0.033   -0.000 -0.000 -0.000
 H          0.105 -0.267  0.640   -0.075  0.141 -0.402    0.000 -0.000  0.000
 H         -0.075  0.532  0.435   -0.035  0.182  0.177   -0.000  0.000  0.000
 H          0.103  0.097 -0.047    0.602  0.588 -0.169    0.000  0.000 -0.000
 TransDip  -0.014 -0.054 -0.075   -0.087 -0.087  0.023    0.007 -0.038 -0.128

 Mode:                70                     71                     72
 Frequency:      3126.34                3156.36                3157.25
 Force Cnst:      6.3762                 6.4932                 6.4982
 Red. Mass:       1.1072                 1.1062                 1.1064
 IR Active:          YES                    YES                    YES
 IR Intens:       13.557                 14.205                 13.899
 Raman Active:       YES                    YES                    YES
               X      Y      Z        X      Y      Z        X      Y      Z
 C          0.000  0.000 -0.000    0.000 -0.000  0.000    0.000 -0.000 -0.000
 C         -0.000 -0.000  0.000    0.000  0.000  0.000    0.000  0.000  0.000
 C         -0.000 -0.000  0.000    0.001  0.001 -0.000   -0.000  0.000 -0.000
 C          0.000  0.000 -0.000    0.000 -0.000  0.000   -0.000  0.001 -0.001
 O         -0.000  0.000 -0.000    0.000 -0.000  0.000    0.000 -0.000  0.000
 O          0.000  0.000 -0.000   -0.000 -0.000  0.000    0.000 -0.000  0.000
 O          0.000  0.000  0.000   -0.000  0.000 -0.000    0.000  0.000  0.000
 O          0.000 -0.000 -0.000   -0.000  0.000 -0.000    0.000 -0.000  0.000
 C         -0.094 -0.000  0.013    0.000  0.000  0.001   -0.012 -0.009 -0.093
 C         -0.000 -0.000 -0.001   -0.051  0.076 -0.024   -0.001  0.001 -0.000
 C         -0.000 -0.000 -0.000   -0.000  0.000 -0.000    0.000 -0.000 -0.000
 C          0.000  0.000 -0.000    0.000 -0.000  0.000    0.000  0.000 -0.000
 C         -0.000 -0.000 -0.000    0.000  0.000 -0.000   -0.000 -0.000  0.000
 C          0.000 -0.000 -0.000    0.000 -0.000  0.000   -0.000 -0.000 -0.000
 H          0.504  0.203 -0.448    0.003  0.001 -0.002   -0.259 -0.099  0.199
 H         -0.001 -0.003  0.007   -0.033 -0.089  0.299   -0.000 -0.001  0.004
 H          0.000  0.000 -0.000   -0.002 -0.001  0.000    0.003  0.002 -0.000
 H          0.620 -0.214  0.247   -0.004  0.001 -0.001    0.254 -0.086  0.077
 H         -0.009  0.017  0.050   -0.002 -0.004 -0.011    0.151  0.288  0.831
 H          0.001 -0.001  0.000    0.643 -0.595  0.193    0.008 -0.008  0.002
 H          0.000  0.005  0.004   -0.011 -0.217 -0.202   -0.000 -0.002 -0.002
 H          0.000 -0.000  0.000   -0.000  0.004 -0.001    0.000 -0.001  0.000
 H          0.000 -0.000 -0.000    0.004 -0.002  0.000   -0.000  0.000 -0.000
 C          0.000  0.000 -0.000    0.000  0.000 -0.000    0.000  0.000 -0.000
 H          0.000 -0.000  0.001    0.000 -0.000  0.000    0.000 -0.000  0.001
 H          0.000 -0.001 -0.001    0.000 -0.000 -0.000    0.000 -0.000 -0.000
 H         -0.002 -0.002  0.001   -0.001 -0.000  0.000   -0.001 -0.001  0.000
 TransDip  -0.117  0.008  0.014   -0.088  0.078 -0.025   -0.021 -0.038 -0.111

 Mode:                73                     74                     75
 Frequency:      3165.22                3184.65                3220.97
 Force Cnst:      6.4222                 6.5341                 6.6799
 Red. Mass:       1.0880                 1.0935                 1.0928
 IR Active:          YES                    YES                    YES
 IR Intens:        7.050                 15.413                  2.061
 Raman Active:       YES                    YES                    YES
               X      Y      Z        X      Y      Z        X      Y      Z
 C          0.000 -0.000 -0.000   -0.000  0.000  0.000   -0.000 -0.003  0.000
 C          0.000  0.000  0.000    0.000  0.000 -0.000    0.001 -0.000  0.000
 C         -0.000 -0.000  0.000    0.000  0.000 -0.000   -0.001  0.001 -0.000
 C         -0.000  0.000 -0.000   -0.000  0.000 -0.000   -0.000 -0.000  0.000
 O          0.000  0.000  0.000   -0.000 -0.000  0.000   -0.000 -0.001  0.000
 O         -0.000  0.000  0.000   -0.000 -0.000  0.000    0.000  0.000 -0.000
 O          0.000 -0.000 -0.000    0.000 -0.000 -0.000   -0.000  0.000  0.000
 O          0.000 -0.000  0.000    0.000 -0.000  0.000   -0.000  0.000 -0.000
 C          0.000  0.000  0.000    0.000  0.000  0.000    0.000 -0.000 -0.000
 C         -0.000  0.000 -0.000    0.000 -0.000  0.000    0.000 -0.000  0.000
 C          0.004 -0.003  0.000   -0.012  0.009 -0.001   -0.078  0.035 -0.004
 C         -0.001  0.039 -0.005    0.008 -0.075  0.009    0.001  0.019 -0.002
 C         -0.061 -0.044  0.005   -0.036 -0.022  0.002    0.003  0.001 -0.000
 C         -0.001  0.002 -0.000   -0.001  0.002 -0.000    0.000 -0.000  0.000
 H          0.001  0.000 -0.000   -0.000 -0.000  0.000   -0.000 -0.000  0.000
 H         -0.000 -0.000  0.001   -0.000 -0.000 -0.000   -0.000  0.000 -0.000
 H          0.718  0.498 -0.055    0.388  0.264 -0.029   -0.025 -0.016  0.002
 H         -0.001  0.000 -0.000    0.000 -0.000  0.000   -0.000  0.000 -0.000
 H         -0.001 -0.001 -0.003   -0.000 -0.000 -0.001    0.000  0.000  0.000
 H          0.003 -0.002  0.001   -0.003  0.003 -0.001   -0.003  0.003 -0.001
 H         -0.000 -0.001 -0.001   -0.000 -0.000  0.000   -0.000 -0.000  0.000
 H          0.034 -0.464  0.058   -0.070  0.848 -0.105    0.012 -0.191  0.024
 H         -0.060  0.028 -0.004    0.168 -0.081  0.010    0.887 -0.406  0.051
 C         -0.003 -0.003  0.001   -0.001 -0.001  0.000    0.000 -0.000  0.000
 H         -0.001  0.003 -0.008    0.000  0.001 -0.002   -0.000  0.000 -0.001
 H         -0.000  0.006  0.006    0.001  0.001  0.001    0.000  0.001  0.000
 H          0.035  0.030 -0.009    0.014  0.012 -0.004   -0.000 -0.000  0.000
 TransDip  -0.085 -0.009 -0.000   -0.041 -0.118  0.015   -0.004  0.046 -0.004

 STANDARD THERMODYNAMIC QUANTITIES AT   298.15 K  AND     1.00 ATM

   This Molecule has  0 Imaginary Frequencies
   Zero point vibrational energy:      133.288 kcal/mol

   Atom    1 Element C  Has Mass   12.00000
   Atom    2 Element C  Has Mass   12.00000
   Atom    3 Element C  Has Mass   12.00000
   Atom    4 Element C  Has Mass   12.00000
   Atom    5 Element O  Has Mass   15.99491
   Atom    6 Element O  Has Mass   15.99491
   Atom    7 Element O  Has Mass   15.99491
   Atom    8 Element O  Has Mass   15.99491
   Atom    9 Element C  Has Mass   12.00000
   Atom   10 Element C  Has Mass   12.00000
   Atom   11 Element C  Has Mass   12.00000
   Atom   12 Element C  Has Mass   12.00000
   Atom   13 Element C  Has Mass   12.00000
   Atom   14 Element C  Has Mass   12.00000
   Atom   15 Element H  Has Mass    1.00783
   Atom   16 Element H  Has Mass    1.00783
   Atom   17 Element H  Has Mass    1.00783
   Atom   18 Element H  Has Mass    1.00783
   Atom   19 Element H  Has Mass    1.00783
   Atom   20 Element H  Has Mass    1.00783
   Atom   21 Element H  Has Mass    1.00783
   Atom   22 Element H  Has Mass    1.00783
   Atom   23 Element H  Has Mass    1.00783
   Atom   24 Element C  Has Mass   12.00000
   Atom   25 Element H  Has Mass    1.00783
   Atom   26 Element H  Has Mass    1.00783
   Atom   27 Element H  Has Mass    1.00783
   Molecular Mass:   208.073600 amu
   Principal axes and moments of inertia in amu*Bohr^2:
                             1           2           3
    Eigenvalues --     2454.02916  3110.62362  5137.05025
          X               0.99986     0.01657    -0.00180
          Y              -0.01655     0.99981     0.00983
          Z               0.00197    -0.00979     0.99995
   Rotational Symmetry Number is   1
   The Molecule is an Asymmetric Top
   Translational Enthalpy:        0.889 kcal/mol
   Rotational Enthalpy:           0.889 kcal/mol
   Vibrational Enthalpy:        141.063 kcal/mol
   gas constant (RT):             0.592 kcal/mol
   Translational Entropy:        41.902  cal/mol.K
   Rotational Entropy:           32.039  cal/mol.K
   Vibrational Entropy:          52.033  cal/mol.K

   Total Enthalpy:              143.433 kcal/mol
   Total Entropy:               125.974  cal/mol.K
Archival summary:
1\1\nid01132\FREQ\ProcedureUnspecified\BasisUnspecified\41112\junteng\WedOct420:06:172017WedOct420:06:172017\0\\#,FREQ,ProcedureUnspecified,BasisUnspecified,\\0,1\O\C,1,1.34346\O,2,1.20539,1,124.656\C,1,1.44021,2,115.636,3,-9.78745,0\H,4,1.08768,1,105.423,2,179.493,0\H,4,1.09083,1,110.689,2,59.6343,0\H,4,1.09089,1,109.469,2,-61.3401,0\C,2,1.50479,1,111.069,3,-175.66,0\C,8,1.405,2,117.813,1,103.834,0\C,9,1.39754,8,118.451,2,179.829,0\H,10,1.08503,9,118.927,8,179.633,0\C,10,1.39209,9,121.408,8,-0.462847,0\H,12,1.084,10,120.044,9,-179.819,0\C,12,1.38828,10,119.875,9,-0.0053058,0\H,14,1.0809,12,120.669,10,-179.429,0\C,14,1.40017,12,120.076,10,0.253557,0\C,16,1.49137,14,120.488,12,-177.899,0\O,17,1.20991,16,124.887,14,169.797,0\O,17,1.35,16,112.204,14,-9.51165,0\C,19,1.43819,17,115.974,16,178.458,0\H,20,1.08775,19,105.339,17,-179.116,0\H,20,1.09093,19,110.436,17,61.3979,0\H,20,1.09097,19,110.445,17,-59.5555,0\C,9,1.51008,8,121.348,2,0.122006,0\H,24,1.09117,9,110.722,8,-172.447,0\H,24,1.09295,9,110.881,8,67.1673,0\H,24,1.09365,9,111.551,8,-52.1511,0\\\@

 Total job time:  5906.96s(wall), 31278.81s(cpu) 
 Wed Oct  4 20:06:17 2017

        *************************************************************
        *                                                           *
        *  Thank you very much for using Q-Chem.  Have a nice day.  *
        *                                                           *
        *************************************************************


