nid04264 10.128.16
Q-Chem Developer Version! Running on 10.128.16.*
                  Welcome to Q-Chem
     A Quantum Leap Into The Future Of Chemistry


 Q-Chem 5.0, Q-Chem, Inc., Pleasanton, CA (2017)

 Yihan Shao,  Zhengting Gan,  E. Epifanovsky,  A. T. B. Gilbert,  M. Wormit,  
 J. Kussmann,  A. W. Lange,  A. Behn,  Jia Deng,  Xintian Feng,  D. Ghosh,  
 M. Goldey,  P. R. Horn,  L. D. Jacobson,  I. Kaliman,  T. Kus,  A. Landau,  
 Jie Liu,  E. I. Proynov,  R. M. Richard,  R. P. Steele,  E. J. Sundstrom,  
 H. L. Woodcock III,  P. M. Zimmerman,  D. Zuev,  B. Albrecht,  E. Alguire,  
 S. A. Baeppler,  Z. Benda,  Y. A. Bernard,  E. J. Berquist,  K. B. Bravaya,  
 D. Casanova,  Chun-Min Chang,  Yunqing Chen,  A. Chien,  K. D. Closser,  
 M. P. Coons,  S. Dasgupta,  M. Diedenhofen,  Hainam Do,  R. G. Edgar,  
 Po-Tung Fang,  S. Fatehi,  Qingguo Feng,  Qinghui Ge,  A. Ghysels,  
 J. Gomes,  J. Gonthier,  A. Gunina,  M. W. D. Hanson-Heine,  
 P. H. P. Harbach,  A. W. Hauser,  J. E. Herr,  E. G. Hohenstein,  
 Z. C. Holden,  Kerwin Hui,  T.-C. Jagau,  Hyunjun Ji,  B. Kaduk,  
 K. Khistyaev,  Jaehoon Kim,  P. Klunzinger,  K. Koh,  D. Kosenkov,  
 T. Kowalczyk,  C. M. Krauter,  A. Kunitsa,  Ka Un Lao,  A. Laurent,  
 K. V. Lawler,  Joonho Lee,  D. Lefrancois,  S. Lehtola,  D. S. Levine,  
 Yi-Pei Li,  You-Sheng Lin,  Fenglai Liu,  E. Livshits,  A. Luenser,  
 P. Manohar,  E. Mansoor,  S. F. Manzer,  Shan-Ping Mao,  Yuezhi Mao,  
 N. Mardirossian,  A. V. Marenich,  L. A. Martinez-Martinez,  S. A. Maurer,  
 N. J. Mayhall,  S. C. McKenzie,  J.-M. Mewes,  A. F. Morrison,  K. Nanda,  
 T. S. Nguyen-Beck,  R. Olivares-Amaya,  J. A. Parkhill,  T. M. Perrine,  
 F. Plasser,  S. Prager,  A. Prociuk,  D. R. Rehn,  F. Rob,  M. Schneider,  
 N. Sergueev,  S. M. Sharada,  S. Sharma,  D. W. Small,  T. Stauch,  
 T. Stein,  Yu-Chuan Su,  A. J. W. Thom,  T. Tsuchimochi,  L. Vogt,  
 O. Vydrov,  M. A. Watson,  J. Wenzel,  M. de Wergifosse,  T. A. Wesolowski,  
 A. White,  J. Witte,  A. Yamada,  Jun Yang,  K. Yao,  S. Yeganeh,  
 S. R. Yost,  Zhi-Qiang You,  A. Zech,  Igor Ying Zhang,  Xing Zhang,  
 Yan Zhao,  Ying Zhu,  B. R. Brooks,  G. K. L. Chan,  C. J. Cramer,  
 M. S. Gordon,  W. J. Hehre,  A. Klamt,  M. W. Schmidt,  C. D. Sherrill,  
 D. G. Truhlar,  A. Aspuru-Guzik,  R. Baer,  A. T. Bell,  N. A. Besley,  
 Jeng-Da Chai,  A. Dreuw,  B. D. Dunietz,  T. R. Furlani,  Chao-Ping Hsu,  
 Yousung Jung,  Jing Kong,  D. S. Lambrecht,  WanZhen Liang,  C. Ochsenfeld,  
 V. A. Rassolov,  L. V. Slipchenko,  J. E. Subotnik,  T. Van Voorhis,  
 J. M. Herbert,  A. I. Krylov,  P. M. W. Gill,  M. Head-Gordon

 Contributors to earlier versions of Q-Chem not listed above: 
 R. D. Adamson,  B. Austin,  J. Baker,  G. J. O. Beran,  K. Brandhorst,  
 S. T. Brown,  E. F. C. Byrd,  A. K. Chakraborty,  C.-L. Cheng,  
 Siu Hung Chien,  D. M. Chipman,  D. L. Crittenden,  H. Dachsel,  
 R. A. DiStasio Jr.,  R. J. Doerksen,  A. D. Dutoi,  L. Fusti-Molnar,  
 W. A. Goddard III,  A. Golubeva-Zadorozhnaya,  S. R. Gwaltney,  G. Hawkins,  
 A. Heyden,  S. Hirata,  G. Kedziora,  F. J. Keil,  C. Kelley,  Jihan Kim,  
 R. A. King,  R. Z. Khaliullin,  P. P. Korambath,  W. Kurlancheek,  
 A. M. Lee,  M. S. Lee,  S. V. Levchenko,  Ching Yeh Lin,  D. Liotard,  
 R. C. Lochan,  I. Lotan,  P. E. Maslen,  N. Nair,  D. P. O'Neill,  
 D. Neuhauser,  E. Neuscamman,  C. M. Oana,  R. Olson,  B. Peters,  
 R. Peverati,  P. A. Pieniazek,  Y. M. Rhee,  J. Ritchie,  M. A. Rohrdanz,  
 E. Rosta,  N. J. Russ,  H. F. Schaefer III,  N. E. Schultz,  N. Shenvi,  
 A. C. Simmonett,  A. Sodt,  D. Stuck,  K. S. Thanthiriwatte,  V. Vanovschi,  
 Tao Wang,  A. Warshel,  C. F. Williams,  Q. Wu,  X. Xu,  W. Zhang

 Please cite Q-Chem as follows:
 Y. Shao et al., Mol. Phys. 113, 184-215 (2015)
 DOI: 10.1080/00268976.2014.952696

 Q-Chem 5.0.0 for Intel X86 EM64T Linux

 Parts of Q-Chem use Armadillo 5.200.1 (Boston Tea Smuggler).
 http://arma.sourceforge.net/

 Q-Chem begins on Wed Oct  4 17:59:30 2017  

Host: nid04264
0

     Scratch files written to /global/cscratch1/sd/junteng/scratch/15/opt_1111o+.save//

Checking the input file for inconsistencies... 	...done.

--------------------------------------------------------------
User input:
--------------------------------------------------------------
$molecule
0  1
C    0.579  -1.978   0.499
C   -0.345  -1.987   1.740
C    0.941  -0.610  -0.048
C   -0.562  -0.630   2.386
O    2.215  -0.645  -0.542
O    0.210   0.366  -0.087
O    0.648  -0.161   2.826
O   -1.631  -0.088   2.617
C    0.572   1.116   3.461
C    2.652   0.593  -1.106
C   -0.242  -2.782  -0.524
C   -0.292  -4.259  -0.098
C   -1.265  -4.223   1.081
C   -1.594  -2.718   1.188
O   -1.591  -2.362  -0.216
H    1.516  -2.494   0.747
H    0.090  -2.606   2.538
H   -0.024   1.052   4.377
H    2.622   1.389  -0.356
H   -0.708  -4.895  -0.888
H    0.690  -4.657   0.174
H   -2.154  -4.811   0.825
H   -0.840  -4.639   1.999
H    1.587   1.422   3.729
H    0.156   1.863   2.777
H    2.039   0.852  -1.975
H    3.687   0.467  -1.436
C   -2.945  -2.478   1.828
H   -3.699  -3.155   1.411
H   -2.911  -2.635   2.910
H   -3.320  -1.473   1.614
C    0.085  -2.603  -1.994
H   -0.579  -3.214  -2.616
H   -0.074  -1.570  -2.320
H    1.119  -2.890  -2.210
$end


$opt
CONSTRAINT
tors    2    1    3    5    147.3
tors    1    2    4    7    -59.6
ENDCONSTRAINT
$end

$rem
JOBTYPE                   OPT
METHOD                    B3LYP
DFT_D                     D3_OP
BASIS                     STO-3G
GEOM_OPT_MAX_CYCLES       500
SYMMETRY                  False
THRESH                    12
SCF_CONVERGENCE           8
MAX_SUB_FILE_NUM          128
MEM_STATIC                400
MEM_TOTAL                 4000
$end

--------------------------------------------------------------
 Adding empirical dispersion correction 
 ----------------------------------------------------------------
 Doing -D3(op) with
 s6 =   1.00000
 s8 =   0.78311
 a1 =   0.30000
 a2 =   4.25000
 n  =  10.00000
 -D3 energy without 3body term =     -0.0411703493 hartrees
 ----------------------------------------------------------------
             Standard Nuclear Orientation (Angstroms)
    I     Atom           X                Y                Z
 ----------------------------------------------------------------
    1      C       0.0405485511     0.6575719166     0.6279970458
    2      C       0.4485580788    -0.8348816956     0.6210370951
    3      C      -1.2236982091     1.0027230799    -0.1363509142
    4      C      -0.5983616521    -1.7818052351     0.0614400192
    5      O      -1.8727982861     2.0215992616     0.5030999569
    6      O      -1.5961984503     0.4914952944    -1.1795899671
    7      O      -1.7171432315    -1.7052423029     0.8489213808
    8      O      -0.4521119641    -2.5882506495    -0.8430724586
    9      C      -2.7784272181    -2.5607562126     0.4228905721
   10      C      -3.0723596472     2.4436939349    -0.1485116050
   11      C       1.2695511140     1.3340043222    -0.0036499292
   12      C       2.4565832498     1.2598809157     0.9715246343
   13      C       2.8623527980    -0.2112841170     0.8761804153
   14      C       1.8144140588    -0.7767714946    -0.1070608698
   15      O       1.6672726917     0.3585939812    -0.9943351534
   16      H      -0.1006442077     0.9849117819     1.6665740614
   17      H       0.6216642017    -1.1903109685     1.6471434747
   18      H      -2.4797608129    -3.6105469360     0.5071865717
   19      H      -3.7802435395     1.6131239838    -0.2264214976
   20      H       3.2933331402     1.8856898890     0.6400661152
   21      H       2.1911460006     1.5619689502     1.9888730929
   22      H       3.8755559769    -0.2734341450     0.4624683269
   23      H       2.8636012425    -0.7181800102     1.8454378604
   24      H      -3.6353600821    -2.3906923623     1.0804841802
   25      H      -3.0783059100    -2.3222438675    -0.6028314328
   26      H      -2.8433670294     2.8555358485    -1.1364182905
   27      H      -3.5276066382     3.2308286629     0.4590820891
   28      C       2.3256610058    -2.0007489527    -0.8370654871
   29      H       3.3506780532    -1.8430305545    -1.1909001368
   30      H       2.3227728949    -2.8841446677    -0.1919820277
   31      H       1.7440132593    -2.2037087567    -1.7409123862
   32      C       1.0880301320     2.7130571330    -0.6079126850
   33      H       2.0289460417     3.0747186755    -1.0380047444
   34      H       0.3716132743     2.6999266795    -1.4356931372
   35      H       0.7526844869     3.4359215512     0.1425480610
 ----------------------------------------------------------------
 Molecular Point Group                 C1    NOp =  1
 Largest Abelian Subgroup              C1    NOp =  1
 Nuclear Repulsion Energy =  1395.7531872986 hartrees
 There are       65 alpha and       65 beta electrons
 Requested basis set is STO-3G
 There are 52 shells and 103 basis functions

 Total QAlloc Memory Limit   4000 MB
 Mega-Array Size       392 MB
 MEM_STATIC part       400 MB
 A cutoff of  1.0D-12 yielded   1204 shell pairs
 There are      5194 function pairs
 
 -------------------------------------------------------
 OpenMP Integral Computing Module                       
 Release: version 1.0, May 2013, Q-Chem Inc. Pittsburgh 
 -------------------------------------------------------
 Integral Job Info:
 Integral job number is                      11
 Integral operator is                         1
 short-range coefficients                     0
 long-range coefficients              100000000
 Omega coefficients                           0
 if combine SR and LR in K                    0
 Integral screening is                        0
 Integral computing path is                   2
 max size of driver memory is            800000
 size of driver memory is                 45569
 size of scratch memory is               945100
 max col of scratch BK array                289
 max len of scratch array in speh3           22
 max len of scratch index in speh4            8
 max int batch size is                      520
 min int batch size is                       52
 fixed nKL is                                52
 max L of basis functions is                  1
 order of int derivative is                   0
 number of shells is                         52
 number of basis is                         103
 number of cartesian basis is               103
 number of contracted shell pairs          1204
 number of primitive shell pairs           6556
 maxK2 (contraction) of shell pair            9
 max number of K2 of shell pair               1
 max number of CS2 of shell pair            185
 max number of PS2 of shell pair            828
 mem total for path MDJ                   33898
 -------------------------------------------------------
 Smallest overlap matrix eigenvalue = 1.95E-01

 Scale SEOQF with 1.000000e-01/1.000000e-01/1.000000e-01

 Standard Electronic Orientation quadrupole field applied
 Nucleus-field energy     =     0.0000000384 hartrees
 Guess from superposition of atomic densities
 Warning:  Energy on first SCF cycle will be non-variational
 A restricted hybrid HF-DFT SCF calculation will be
 performed using Pulay DIIS extrapolation
 Exchange:     0.2000 Hartree-Fock + 0.0800 Slater + 0.7200 B88
 Correlation:  0.1900 VWN1RPA + 0.8100 LYP
 Using SG-1 standard quadrature grid
 Dispersion:   Grimme D3
 SCF converges when DIIS error is below 1.0E-08
 -------------------------------------------------------
 OpenMP Integral computing Module                
 Release: version 1.0, May 2013, Q-Chem Inc. Pittsburgh 
 -------------------------------------------------------
 -------------------------------------------------------
 OpenMP BLAS3 based DFT computing Module                
 Release: version 1.0, May 2013, Q-Chem Inc. Pittsburgh 
 -------------------------------------------------------
 ---------------------------------------
  Cycle       Energy         DIIS Error
 ---------------------------------------
    1    -832.4613427662      1.05E-01
    2    -833.1370762580      1.27E-02
    3    -832.1370895692      3.08E-02
    4    -833.3782765538      4.55E-03
    5    -833.4066960607      1.46E-03
    6    -833.4098473704      2.71E-04
    7    -833.4099544728      7.62E-05
    8    -833.4099606041      4.17E-05
    9    -833.4099632398      4.63E-06
   10    -833.4099632746      1.22E-06
   11    -833.4099632769      3.03E-07
   12    -833.4099632770      8.71E-08
   13    -833.4099632770      1.56E-08
   14    -833.4099632771      3.41E-09 Convergence criterion met
 ---------------------------------------
 SCF time:  CPU 138.77 s  wall 7.05 s
 SCF   energy in the final basis set = -833.4099632771
 Total energy in the final basis set = -833.4099632771
 
 --------------------------------------------------------------
 
                    Orbital Energies (a.u.)
 --------------------------------------------------------------
 
 Alpha MOs
 -- Occupied --
-18.942 -18.934 -18.865 -18.864 -18.861 -10.107 -10.103 -10.074
-10.068 -10.064 -10.060 -10.030 -10.029 -10.013 -10.007 -10.005
-10.002  -1.042  -1.034  -0.985  -0.951  -0.945  -0.773  -0.753
 -0.733  -0.690  -0.680  -0.671  -0.624  -0.593  -0.545  -0.520
 -0.491  -0.482  -0.466  -0.447  -0.439  -0.429  -0.428  -0.422
 -0.411  -0.391  -0.387  -0.379  -0.371  -0.369  -0.364  -0.345
 -0.341  -0.334  -0.309  -0.305  -0.304  -0.292  -0.287  -0.281
 -0.271  -0.247  -0.241  -0.214  -0.181  -0.175  -0.151  -0.141
 -0.130
 -- Virtual --
  0.111   0.129   0.243   0.280   0.295   0.311   0.331   0.354
  0.372   0.379   0.388   0.400   0.403   0.413   0.419   0.432
  0.439   0.444   0.449   0.451   0.456   0.457   0.463   0.467
  0.475   0.480   0.487   0.492   0.498   0.506   0.510   0.513
  0.537   0.546   0.583   0.586   0.707   0.709
 --------------------------------------------------------------
 
          Ground-State Mulliken Net Atomic Charges

     Atom                 Charge (a.u.)
  ----------------------------------------
      1 C                    -0.084595
      2 C                    -0.084928
      3 C                     0.236932
      4 C                     0.238677
      5 O                    -0.187608
      6 O                    -0.231157
      7 O                    -0.194162
      8 O                    -0.225991
      9 C                    -0.126414
     10 C                    -0.126312
     11 C                     0.111091
     12 C                    -0.148495
     13 C                    -0.147098
     14 C                     0.111557
     15 O                    -0.214092
     16 H                     0.087026
     17 H                     0.085427
     18 H                     0.091170
     19 H                     0.093535
     20 H                     0.075293
     21 H                     0.069960
     22 H                     0.075299
     23 H                     0.068530
     24 H                     0.092479
     25 H                     0.096380
     26 H                     0.092817
     27 H                     0.095226
     28 C                    -0.230291
     29 H                     0.078853
     30 H                     0.081177
     31 H                     0.098540
     32 C                    -0.231645
     33 H                     0.084746
     34 H                     0.083765
     35 H                     0.084309
  ----------------------------------------
  Sum of atomic charges =    -0.000000

 -----------------------------------------------------------------
                    Cartesian Multipole Moments
 -----------------------------------------------------------------
    Charge (ESU x 10^10)
                 0.0000
    Dipole Moment (Debye)
         X      -0.8782      Y       1.1630      Z       2.3527
       Tot       2.7675
    Quadrupole Moments (Debye-Ang)
        XX     -83.8071     XY      -0.7113     YY     -88.8934
        XZ       0.9767     YZ      -3.9015     ZZ     -96.9292
    Octopole Moments (Debye-Ang^2)
       XXX     -46.3966    XXY      -1.7284    XYY     -21.3534
       YYY       5.1219    XXZ      -0.4018    XYZ       3.8207
       YYZ       2.3429    XZZ      -3.9993    YZZ      -0.3880
       ZZZ      -3.3241
    Hexadecapole Moments (Debye-Ang^3)
      XXXX   -2091.2066   XXXY      -6.0688   XXYY    -600.9185
      XYYY      -2.1704   YYYY   -1803.7757   XXXZ     -28.9029
      XXYZ      -4.3762   XYYZ      -7.7605   YYYZ     -36.1812
      XXZZ    -448.9289   XYZZ      -3.9821   YYZZ    -373.8865
      XZZZ      -5.3102   YZZZ       4.7161   ZZZZ    -389.6427
 -----------------------------------------------------------------
 Calculating analytic gradient of the SCF energy
 Gradient of SCF Energy
            1           2           3           4           5           6
    1   0.0068753  -0.0046877  -0.0166998  -0.0197001  -0.0083837   0.0221746
    2  -0.0061405   0.0027730   0.0136587  -0.0050542  -0.0333299   0.0277086
    3  -0.0439619  -0.0259477  -0.0049261   0.0059897  -0.0526228   0.0536548
            7           8           9          10          11          12
    1   0.0189254  -0.0015472   0.0137487   0.0155365  -0.0147881  -0.0140183
    2  -0.0354658   0.0374925   0.0122788  -0.0053058  -0.0088645  -0.0163340
    3  -0.0479698   0.0469183   0.0073292   0.0104380   0.0044710  -0.0276032
           13          14          15          16          17          18
    1  -0.0188788  -0.0134132   0.0002181   0.0010425   0.0008687  -0.0002796
    2   0.0098466   0.0013371  -0.0017583  -0.0047971  -0.0026952   0.0134481
    3  -0.0239240   0.0041002   0.0591838  -0.0036425  -0.0066526   0.0045960
           19          20          21          22          23          24
    1   0.0096437   0.0015668   0.0018289  -0.0016174   0.0000789   0.0064180
    2   0.0080000  -0.0065480  -0.0026222   0.0062579   0.0036352  -0.0035888
    3   0.0068064   0.0026614  -0.0056205   0.0037838  -0.0055836  -0.0080883
           25          26          27          28          29          30
    1   0.0035522   0.0029766   0.0019587  -0.0076661  -0.0055637   0.0022017
    2   0.0031584  -0.0020146  -0.0071906   0.0172553  -0.0035201   0.0034711
    3   0.0127123   0.0138624  -0.0075342   0.0224771  -0.0038969  -0.0029576
           31          32          33          34          35
    1   0.0094985   0.0042312  -0.0054129   0.0069380   0.0023733
    2   0.0036308  -0.0187618   0.0004390   0.0011666  -0.0015662
    3  -0.0003602   0.0173100  -0.0021302   0.0011114  -0.0039838
 Max gradient component =       5.918E-02
 RMS gradient           =       1.675E-02
 Gradient time:  CPU 25.32 s  wall 1.16 s
 Geometry Optimization Parameters
   NAtoms,    NIC,     NZ,  NCons,   NDum,   NFix, NCnnct, MaxDiis
       35     275       0       2       0       0       0       0


** CONSTRAINED OPTIMIZATION IN DELOCALIZED INTERNAL COORDINATES **
   Searching for a Minimum

   Optimization Cycle:   1

                       Coordinates (Angstroms)
     ATOM                X               Y               Z
      1  C         0.0405485511    0.6575719166    0.6279970458
      2  C         0.4485580788   -0.8348816956    0.6210370951
      3  C        -1.2236982091    1.0027230799   -0.1363509142
      4  C        -0.5983616521   -1.7818052351    0.0614400192
      5  O        -1.8727982861    2.0215992616    0.5030999569
      6  O        -1.5961984503    0.4914952944   -1.1795899671
      7  O        -1.7171432315   -1.7052423029    0.8489213808
      8  O        -0.4521119641   -2.5882506495   -0.8430724586
      9  C        -2.7784272181   -2.5607562126    0.4228905721
     10  C        -3.0723596472    2.4436939349   -0.1485116050
     11  C         1.2695511140    1.3340043222   -0.0036499292
     12  C         2.4565832498    1.2598809157    0.9715246343
     13  C         2.8623527980   -0.2112841170    0.8761804153
     14  C         1.8144140588   -0.7767714946   -0.1070608698
     15  O         1.6672726917    0.3585939812   -0.9943351534
     16  H        -0.1006442077    0.9849117819    1.6665740614
     17  H         0.6216642017   -1.1903109685    1.6471434747
     18  H        -2.4797608129   -3.6105469360    0.5071865717
     19  H        -3.7802435395    1.6131239838   -0.2264214976
     20  H         3.2933331402    1.8856898890    0.6400661152
     21  H         2.1911460006    1.5619689502    1.9888730929
     22  H         3.8755559769   -0.2734341450    0.4624683269
     23  H         2.8636012425   -0.7181800102    1.8454378604
     24  H        -3.6353600821   -2.3906923623    1.0804841802
     25  H        -3.0783059100   -2.3222438675   -0.6028314328
     26  H        -2.8433670294    2.8555358485   -1.1364182905
     27  H        -3.5276066382    3.2308286629    0.4590820891
     28  C         2.3256610058   -2.0007489527   -0.8370654871
     29  H         3.3506780532   -1.8430305545   -1.1909001368
     30  H         2.3227728949   -2.8841446677   -0.1919820277
     31  H         1.7440132593   -2.2037087567   -1.7409123862
     32  C         1.0880301320    2.7130571330   -0.6079126850
     33  H         2.0289460417    3.0747186755   -1.0380047444
     34  H         0.3716132743    2.6999266795   -1.4356931372
     35  H         0.7526844869    3.4359215512    0.1425480610
   Point Group: c1    Number of degrees of freedom:    99


   Energy is   -833.409963277

              Constraints and their Current Values
                                        Value     Constraint
   Dihedral:        2   1   3   5      145.794      147.300
   Dihedral:        1   2   4   7      -61.913      -59.600

 Attempting to Generate Delocalized Internal Coordinates

   Using Lagrange Multiplier Algorithm


101 Hessian modes will be used to form the next step
  Hessian Eigenvalues:
    -0.977753   -0.977753    0.045000    0.045000    0.045000    0.045000
     0.045000    0.045000    0.045023    0.045263    0.045502    0.048606
     0.060298    0.061777    0.067925    0.070278    0.071449    0.071695
     0.075522    0.076606    0.078244    0.080811    0.081377    0.081808
     0.083396    0.083502    0.083514    0.083675    0.084645    0.090017
     0.091538    0.091907    0.106339    0.109001    0.113820    0.113949
     0.116299    0.116905    0.116996    0.126894    0.131265    0.139894
     0.144501    0.160000    0.160000    0.160000    0.160000    0.160000
     0.160000    0.160000    0.160000    0.160000    0.160000    0.160000
     0.160000    0.165730    0.185925    0.241736    0.248635    0.249881
     0.250000    0.250000    0.250000    0.250000    0.250633    0.260748
     0.267050    0.282050    0.285547    0.305111    0.306449    0.307030
     0.309452    0.327325    0.337229    0.338979    0.340712    0.341060
     0.341086    0.341343    0.341531    0.342465    0.342607    0.342751
     0.342848    0.342936    0.343451    0.343609    0.343704    0.343747
     0.343768    0.343978    0.344143    0.411501    0.412503    0.509233
     0.515826    0.951140    0.953727    1.022753    1.022753

 Minimum Search - Taking P-RFO Step
 Searching for Lamda that Maximizes Along the Constraint modes Only
 Value Taken    Lamda =   0.00077594
 Searching for Lamda that Minimizes Along All other modes
 Value Taken    Lamda =  -0.06627656
 Calculated Step too Large.  Step scaled by  0.719623
 Step Taken.  Stepsize is  0.300000

                             Maximum     Tolerance    Cnvgd?
         Gradient            0.083192       0.000300      NO
         Displacement        0.103062       0.001200      NO
         Energy change     *********       0.000001      NO


 New Cartesian Coordinates Obtained by Inverse Iteration

 Displacement from previous Coordinates is:  0.747011
 Adding empirical dispersion correction 
 ----------------------------------------------------------------
 Doing -D3(op) with
 s6 =   1.00000
 s8 =   0.78311
 a1 =   0.30000
 a2 =   4.25000
 n  =  10.00000
 -D3 energy without 3body term =     -0.0408020383 hartrees
 ----------------------------------------------------------------
             Standard Nuclear Orientation (Angstroms)
    I     Atom           X                Y                Z
 ----------------------------------------------------------------
    1      C       0.0606662107     0.6682065907     0.6645752287
    2      C       0.4831844422    -0.8401434133     0.6455639471
    3      C      -1.2456145051     0.9796195438    -0.1096897669
    4      C      -0.5979327531    -1.7957572976     0.0637349038
    5      O      -1.9152160646     2.0285674485     0.5358377238
    6      O      -1.6370197911     0.4306272781    -1.1551504814
    7      O      -1.7454101271    -1.6787202765     0.8667811338
    8      O      -0.4844012465    -2.6054541723    -0.8724611720
    9      C      -2.8402382310    -2.5197061133     0.3977836959
   10      C      -3.1486625657     2.4066986488    -0.1459004105
   11      C       1.3151964801     1.3538072653    -0.0050970905
   12      C       2.5201897626     1.2853957559     1.0024134373
   13      C       2.9315545729    -0.2158162678     0.9054728764
   14      C       1.8677169805    -0.7832621587    -0.1109992642
   15      O       1.7133222656     0.3639567106    -1.0259353862
   16      H      -0.0756746133     1.0139028061     1.7028402935
   17      H       0.6612547568    -1.1912867451     1.6775508453
   18      H      -2.5846672354    -3.5943193236     0.4621121858
   19      H      -3.8530822064     1.5566797309    -0.2127612835
   20      H       3.3489978090     1.9256487900     0.6682459056
   21      H       2.2457327334     1.5934986203     2.0219791052
   22      H       3.9448838696    -0.2983826600     0.4875445477
   23      H       2.9257083469    -0.7293257328     1.8782005059
   24      H      -3.7035816069    -2.3232995045     1.0558282682
   25      H      -3.1258915460    -2.2727495896    -0.6420982600
   26      H      -2.9481095773     2.7968648431    -1.1615127637
   27      H      -3.6165679058     3.2062290001     0.4528882828
   28      C       2.3592684912    -2.0327514809    -0.8633152555
   29      H       3.3882582081    -1.8775961075    -1.2196678550
   30      H       2.3470406596    -2.9176555392    -0.2132463822
   31      H       1.7466965109    -2.2280310652    -1.7544359356
   32      C       1.1067196374     2.7432088724    -0.6354947820
   33      H       2.0485093352     3.1061975920    -1.0712468965
   34      H       0.3740996367     2.7066290863    -1.4550085163
   35      H       0.7656626396     3.4677317985     0.1169108459
 ----------------------------------------------------------------
 Molecular Point Group                 C1    NOp =  1
 Largest Abelian Subgroup              C1    NOp =  1
 Nuclear Repulsion Energy =  1374.8898370226 hartrees
 There are       65 alpha and       65 beta electrons
 Applying Cartesian multipole field
    Component          Value
    ---------          -----
     (2,0,0)        1.00000E-11
     (0,2,0)        2.00000E-11
     (0,0,2)       -3.00000E-11
 Nucleus-field energy     =     0.0000000389 hartrees
 Requested basis set is STO-3G
 There are 52 shells and 103 basis functions
 A cutoff of  1.0D-12 yielded   1202 shell pairs
 There are      5186 function pairs
 Smallest overlap matrix eigenvalue = 2.08E-01
 Guess MOs from SCF MO coefficient file
 Reading MOs from coefficient file
 Reading MOs from coefficient file
 A restricted hybrid HF-DFT SCF calculation will be
 performed using Pulay DIIS extrapolation
 Exchange:     0.2000 Hartree-Fock + 0.0800 Slater + 0.7200 B88
 Correlation:  0.1900 VWN1RPA + 0.8100 LYP
 Using SG-1 standard quadrature grid
 Dispersion:   Grimme D3
 SCF converges when DIIS error is below 1.0E-08
 Geometry optimization detected.  Setting ReadMinima to 0
 Setting SaveMinima to 0
 -------------------------------------------------------
 OpenMP Integral computing Module                
 Release: version 1.0, May 2013, Q-Chem Inc. Pittsburgh 
 -------------------------------------------------------
 -------------------------------------------------------
 OpenMP BLAS3 based DFT computing Module                
 Release: version 1.0, May 2013, Q-Chem Inc. Pittsburgh 
 -------------------------------------------------------
 ---------------------------------------
  Cycle       Energy         DIIS Error
 ---------------------------------------
    1    -833.2762067785      4.86E-03
    2    -833.4356425522      1.82E-03
    3    -833.4299559194      2.71E-03
    4    -833.4401592190      6.14E-04
    5    -833.4407459219      1.02E-04
    6    -833.4407625717      2.71E-05
    7    -833.4407631537      2.06E-05
    8    -833.4407637917      3.71E-06
    9    -833.4407638167      6.32E-07
   10    -833.4407638173      2.84E-07
   11    -833.4407638175      6.10E-08
   12    -833.4407638175      1.93E-08
   13    -833.4407638176      3.77E-09 Convergence criterion met
 ---------------------------------------
 SCF time:  CPU 127.46 s  wall 6.27 s
 SCF   energy in the final basis set = -833.4407638176
 Total energy in the final basis set = -833.4407638176
 
 --------------------------------------------------------------
 
                    Orbital Energies (a.u.)
 --------------------------------------------------------------
 
 Alpha MOs
 -- Occupied --
-18.939 -18.929 -18.868 -18.866 -18.863 -10.100 -10.096 -10.069
-10.063 -10.062 -10.058 -10.031 -10.030 -10.014 -10.010 -10.008
-10.004  -1.022  -1.013  -0.966  -0.939  -0.933  -0.763  -0.741
 -0.722  -0.679  -0.675  -0.661  -0.619  -0.589  -0.537  -0.514
 -0.483  -0.475  -0.455  -0.437  -0.428  -0.419  -0.418  -0.410
 -0.403  -0.384  -0.383  -0.378  -0.368  -0.364  -0.358  -0.341
 -0.338  -0.331  -0.307  -0.298  -0.296  -0.290  -0.287  -0.277
 -0.266  -0.249  -0.243  -0.218  -0.178  -0.171  -0.150  -0.141
 -0.132
 -- Virtual --
  0.102   0.120   0.235   0.262   0.276   0.295   0.314   0.336
  0.354   0.357   0.369   0.378   0.389   0.397   0.409   0.416
  0.425   0.426   0.431   0.432   0.437   0.441   0.445   0.450
  0.453   0.466   0.470   0.478   0.485   0.486   0.493   0.498
  0.519   0.522   0.559   0.563   0.669   0.671
 --------------------------------------------------------------
 
          Ground-State Mulliken Net Atomic Charges

     Atom                 Charge (a.u.)
  ----------------------------------------
      1 C                    -0.081112
      2 C                    -0.081550
      3 C                     0.220411
      4 C                     0.222669
      5 O                    -0.176934
      6 O                    -0.220415
      7 O                    -0.184056
      8 O                    -0.215989
      9 C                    -0.125357
     10 C                    -0.125238
     11 C                     0.106723
     12 C                    -0.146630
     13 C                    -0.145438
     14 C                     0.107007
     15 O                    -0.202404
     16 H                     0.085611
     17 H                     0.083198
     18 H                     0.087753
     19 H                     0.090398
     20 H                     0.074564
     21 H                     0.069975
     22 H                     0.074104
     23 H                     0.068477
     24 H                     0.088898
     25 H                     0.093487
     26 H                     0.089552
     27 H                     0.091834
     28 C                    -0.227459
     29 H                     0.078318
     30 H                     0.080253
     31 H                     0.097862
     32 C                    -0.228620
     33 H                     0.083581
     34 H                     0.083596
     35 H                     0.082929
  ----------------------------------------
  Sum of atomic charges =    -0.000000

 -----------------------------------------------------------------
                    Cartesian Multipole Moments
 -----------------------------------------------------------------
    Charge (ESU x 10^10)
                -0.0000
    Dipole Moment (Debye)
         X      -0.7189      Y       1.1550      Z       2.2653
       Tot       2.6425
    Quadrupole Moments (Debye-Ang)
        XX     -83.4937     XY      -0.8250     YY     -89.1181
        XZ       1.3893     YZ      -3.7569     ZZ     -96.6651
    Octopole Moments (Debye-Ang^2)
       XXX     -48.4881    XXY      -1.5967    XYY     -20.3913
       YYY       4.7008    XXZ      -0.9322    XYZ       4.1647
       YYZ       1.3971    XZZ      -4.2018    YZZ       0.2677
       ZZZ      -4.4549
    Hexadecapole Moments (Debye-Ang^3)
      XXXX   -2179.0646   XXXY     -10.7008   XXYY    -615.4688
      XYYY      -2.1799   YYYY   -1806.6934   XXXZ     -28.2859
      XXYZ      -6.7467   XYYZ      -6.9636   YYYZ     -40.3355
      XXZZ    -467.0844   XYZZ      -5.6028   YYZZ    -376.5253
      XZZZ      -5.3263   YZZZ      -1.7619   ZZZZ    -401.9233
 -----------------------------------------------------------------
 Calculating analytic gradient of the SCF energy
 Gradient of SCF Energy
            1           2           3           4           5           6
    1   0.0018905  -0.0011056  -0.0072944  -0.0127295  -0.0030873   0.0068567
    2  -0.0057371   0.0058207   0.0110923   0.0046096  -0.0150799   0.0069466
    3  -0.0177187  -0.0119699   0.0083481   0.0121904  -0.0220383   0.0117701
            7           8           9          10          11          12
    1   0.0087371   0.0016474   0.0069613   0.0084968  -0.0094298  -0.0039140
    2  -0.0152633   0.0072775   0.0066579  -0.0017098  -0.0004244  -0.0021354
    3  -0.0211741   0.0111085   0.0048566   0.0062660   0.0047880  -0.0101347
           13          14          15          16          17          18
    1  -0.0044949  -0.0085615   0.0037204  -0.0001702   0.0011696  -0.0005272
    2   0.0013432  -0.0044130  -0.0012732  -0.0024906  -0.0014115   0.0028997
    3  -0.0093525   0.0017888   0.0173284  -0.0004580  -0.0020091   0.0021495
           19          20          21          22          23          24
    1   0.0014914   0.0012364   0.0019246  -0.0005048   0.0017610   0.0005521
    2   0.0023269  -0.0031014   0.0000829   0.0028824   0.0012300  -0.0017958
    3   0.0024994   0.0021581  -0.0012618   0.0023176  -0.0012207  -0.0027561
           25          26          27          28          29          30
    1  -0.0003002   0.0006058  -0.0007141  -0.0031917  -0.0018677   0.0013665
    2   0.0011573   0.0008282  -0.0016517   0.0054654  -0.0016065   0.0008059
    3   0.0032950   0.0035397  -0.0026696   0.0114534  -0.0028494  -0.0013935
           31          32          33          34          35
    1   0.0055131   0.0020755  -0.0023117   0.0031751   0.0010236
    2   0.0016118  -0.0068382   0.0003893   0.0014918   0.0000124
    3  -0.0024854   0.0085564  -0.0019969  -0.0013376  -0.0015878
 Max gradient component =       2.204E-02
 RMS gradient           =       6.544E-03
 Gradient time:  CPU 24.66 s  wall 1.11 s
 Geometry Optimization Parameters
   NAtoms,    NIC,     NZ,  NCons,   NDum,   NFix, NCnnct, MaxDiis
       35     275       0       2       0       0       0       0

 Cartesian Hessian Update
 Hessian Updated using BFGS Update


** CONSTRAINED OPTIMIZATION IN DELOCALIZED INTERNAL COORDINATES **
   Searching for a Minimum

   Optimization Cycle:   2

                       Coordinates (Angstroms)
     ATOM                X               Y               Z
      1  C         0.0606662107    0.6682065907    0.6645752287
      2  C         0.4831844422   -0.8401434133    0.6455639471
      3  C        -1.2456145051    0.9796195438   -0.1096897669
      4  C        -0.5979327531   -1.7957572976    0.0637349038
      5  O        -1.9152160646    2.0285674485    0.5358377238
      6  O        -1.6370197911    0.4306272781   -1.1551504814
      7  O        -1.7454101271   -1.6787202765    0.8667811338
      8  O        -0.4844012465   -2.6054541723   -0.8724611720
      9  C        -2.8402382310   -2.5197061133    0.3977836959
     10  C        -3.1486625657    2.4066986488   -0.1459004105
     11  C         1.3151964801    1.3538072653   -0.0050970905
     12  C         2.5201897626    1.2853957559    1.0024134373
     13  C         2.9315545729   -0.2158162678    0.9054728764
     14  C         1.8677169805   -0.7832621587   -0.1109992642
     15  O         1.7133222656    0.3639567106   -1.0259353862
     16  H        -0.0756746133    1.0139028061    1.7028402935
     17  H         0.6612547568   -1.1912867451    1.6775508453
     18  H        -2.5846672354   -3.5943193236    0.4621121858
     19  H        -3.8530822064    1.5566797309   -0.2127612835
     20  H         3.3489978090    1.9256487900    0.6682459056
     21  H         2.2457327334    1.5934986203    2.0219791052
     22  H         3.9448838696   -0.2983826600    0.4875445477
     23  H         2.9257083469   -0.7293257328    1.8782005059
     24  H        -3.7035816069   -2.3232995045    1.0558282682
     25  H        -3.1258915460   -2.2727495896   -0.6420982600
     26  H        -2.9481095773    2.7968648431   -1.1615127637
     27  H        -3.6165679058    3.2062290001    0.4528882828
     28  C         2.3592684912   -2.0327514809   -0.8633152555
     29  H         3.3882582081   -1.8775961075   -1.2196678550
     30  H         2.3470406596   -2.9176555392   -0.2132463822
     31  H         1.7466965109   -2.2280310652   -1.7544359356
     32  C         1.1067196374    2.7432088724   -0.6354947820
     33  H         2.0485093352    3.1061975920   -1.0712468965
     34  H         0.3740996367    2.7066290863   -1.4550085163
     35  H         0.7656626396    3.4677317985    0.1169108459
   Point Group: c1    Number of degrees of freedom:    99


   Energy is   -833.440763818

              Constraints and their Current Values
                                        Value     Constraint
   Dihedral:        2   1   3   5      146.839      147.300
   Dihedral:        1   2   4   7      -60.310      -59.600
 Hessian Updated using BFGS Update

   Using Lagrange Multiplier Algorithm


 85 Hessian modes will be used to form the next step
  Hessian Eigenvalues:
    -0.977761   -0.977005    0.044982    0.045002    0.045022    0.045315
     0.045500    0.048600    0.060299    0.061442    0.067925    0.070218
     0.071462    0.071695    0.075527    0.076632    0.078233    0.080796
     0.081262    0.081778    0.083142    0.083417    0.083518    0.083655
     0.084744    0.090002    0.091416    0.091900    0.106356    0.109028
     0.113696    0.113902    0.115643    0.116905    0.116997    0.126735
     0.131474    0.139921    0.144632    0.158518    0.161613    0.166375
     0.185934    0.241663    0.242711    0.248811    0.249885    0.250074
     0.250801    0.260783    0.268700    0.283678    0.290150    0.305701
     0.306857    0.308754    0.316717    0.327182    0.337250    0.338989
     0.340976    0.341074    0.341340    0.341523    0.342241    0.342572
     0.342656    0.342837    0.342873    0.343334    0.343591    0.343688
     0.343725    0.343759    0.343916    0.344099    0.375375    0.411926
     0.417304    0.497559    0.513538    0.952358    0.972672    1.022750
     1.026493

 Minimum Search - Taking P-RFO Step
 Searching for Lamda that Maximizes Along the Constraint modes Only
 Value Taken    Lamda =   0.00019380
 Searching for Lamda that Minimizes Along All other modes
 Value Taken    Lamda =  -0.01073422
 Step Taken.  Stepsize is  0.253268

                             Maximum     Tolerance    Cnvgd?
         Gradient            0.026379       0.000300      NO
         Displacement        0.079448       0.001200      NO
         Energy change     -0.030801       0.000001      NO


 New Cartesian Coordinates Obtained by Inverse Iteration

 Displacement from previous Coordinates is:  0.793292
 Adding empirical dispersion correction 
 ----------------------------------------------------------------
 Doing -D3(op) with
 s6 =   1.00000
 s8 =   0.78311
 a1 =   0.30000
 a2 =   4.25000
 n  =  10.00000
 -D3 energy without 3body term =     -0.0410750516 hartrees
 ----------------------------------------------------------------
             Standard Nuclear Orientation (Angstroms)
    I     Atom           X                Y                Z
 ----------------------------------------------------------------
    1      C       0.0924680663     0.6822804456     0.7150614186
    2      C       0.5137208634    -0.8379460852     0.6931566062
    3      C      -1.2341011416     0.9573316835    -0.0639940260
    4      C      -0.5854992908    -1.7806080434     0.0842936092
    5      O      -1.9194238377     2.0270536174     0.5807170901
    6      O      -1.6486303980     0.3709452748    -1.0896637536
    7      O      -1.7542962615    -1.6261015551     0.8921811257
    8      O      -0.5053470332    -2.5700988132    -0.8809859165
    9      C      -2.8512674495    -2.4391874278     0.3359532104
   10      C      -3.1684479980     2.3266397556    -0.1465212798
   11      C       1.3423635309     1.3613114450    -0.0029016154
   12      C       2.5599469765     1.2993975088     1.0076006838
   13      C       2.9711110970    -0.2133956263     0.9145015284
   14      C       1.8911577284    -0.7793450996    -0.1012807525
   15      O       1.7133865250     0.3624933249    -1.0362229034
   16      H      -0.0296211837     1.0544092944     1.7475237585
   17      H       0.6969837309    -1.1870955883     1.7265703654
   18      H      -2.6153344351    -3.5232920570     0.3611047224
   19      H      -3.8362032445     1.4420475280    -0.1956197633
   20      H       3.3737460602     1.9538681397     0.6560092503
   21      H       2.2800142624     1.6117261561     2.0266901003
   22      H       3.9784369559    -0.3190490749     0.4805106652
   23      H       2.9587410346    -0.7298322595     1.8880411258
   24      H      -3.7323752530    -2.2400945501     0.9741068388
   25      H      -3.0794204971    -2.1518383453    -0.7112504730
   26      H      -2.9671641550     2.6728010582    -1.1814284160
   27      H      -3.6664079144     3.1343151874     0.4214769120
   28      C       2.3323130064    -2.0501204442    -0.8696320222
   29      H       3.3559398360    -1.9124946287    -1.2517382179
   30      H       2.3148900537    -2.9246087802    -0.2020794592
   31      H       1.6566142140    -2.2359867690    -1.7182116799
   32      C       1.0916190114     2.7449965453    -0.6541330782
   33      H       2.0228510044     3.1141881651    -1.1106169130
   34      H       0.3262164677     2.6674778729    -1.4420006722
   35      H       0.7536130420     3.4670250789     0.1050241614
 ----------------------------------------------------------------
 Molecular Point Group                 C1    NOp =  1
 Largest Abelian Subgroup              C1    NOp =  1
 Nuclear Repulsion Energy =  1373.2520063398 hartrees
 There are       65 alpha and       65 beta electrons
 Applying Cartesian multipole field
    Component          Value
    ---------          -----
     (2,0,0)        1.00000E-11
     (0,2,0)        2.00000E-11
     (0,0,2)       -3.00000E-11
 Nucleus-field energy     =     0.0000000382 hartrees
 Requested basis set is STO-3G
 There are 52 shells and 103 basis functions
 A cutoff of  1.0D-12 yielded   1204 shell pairs
 There are      5191 function pairs
 Smallest overlap matrix eigenvalue = 2.13E-01
 Guess MOs from SCF MO coefficient file
 Reading MOs from coefficient file
 Reading MOs from coefficient file
 A restricted hybrid HF-DFT SCF calculation will be
 performed using Pulay DIIS extrapolation
 Exchange:     0.2000 Hartree-Fock + 0.0800 Slater + 0.7200 B88
 Correlation:  0.1900 VWN1RPA + 0.8100 LYP
 Using SG-1 standard quadrature grid
 Dispersion:   Grimme D3
 SCF converges when DIIS error is below 1.0E-08
 Geometry optimization detected.  Setting ReadMinima to 0
 Setting SaveMinima to 0
 -------------------------------------------------------
 OpenMP Integral computing Module                
 Release: version 1.0, May 2013, Q-Chem Inc. Pittsburgh 
 -------------------------------------------------------
 -------------------------------------------------------
 OpenMP BLAS3 based DFT computing Module                
 Release: version 1.0, May 2013, Q-Chem Inc. Pittsburgh 
 -------------------------------------------------------
 ---------------------------------------
  Cycle       Energy         DIIS Error
 ---------------------------------------
    1    -833.3620801495      3.47E-03
    2    -833.4447909912      1.14E-03
    3    -833.4409361642      2.00E-03
    4    -833.4466388696      3.48E-04
    5    -833.4468262664      7.64E-05
    6    -833.4468352283      2.32E-05
    7    -833.4468356193      1.81E-05
    8    -833.4468361170      3.16E-06
    9    -833.4468361352      5.28E-07
   10    -833.4468361357      2.58E-07
   11    -833.4468361357      4.90E-08
   12    -833.4468361358      1.91E-08
   13    -833.4468361358      3.58E-09 Convergence criterion met
 ---------------------------------------
 SCF time:  CPU 126.12 s  wall 6.24 s
 SCF   energy in the final basis set = -833.4468361358
 Total energy in the final basis set = -833.4468361358
 
 --------------------------------------------------------------
 
                    Orbital Energies (a.u.)
 --------------------------------------------------------------
 
 Alpha MOs
 -- Occupied --
-18.936 -18.925 -18.872 -18.870 -18.868 -10.097 -10.093 -10.065
-10.061 -10.058 -10.057 -10.031 -10.029 -10.014 -10.013 -10.010
-10.004  -1.014  -1.004  -0.961  -0.935  -0.929  -0.760  -0.737
 -0.718  -0.674  -0.671  -0.654  -0.616  -0.588  -0.532  -0.511
 -0.479  -0.471  -0.452  -0.435  -0.424  -0.416  -0.414  -0.405
 -0.399  -0.384  -0.381  -0.378  -0.367  -0.363  -0.353  -0.341
 -0.336  -0.329  -0.309  -0.295  -0.292  -0.288  -0.287  -0.275
 -0.264  -0.253  -0.246  -0.222  -0.178  -0.169  -0.152  -0.142
 -0.135
 -- Virtual --
  0.097   0.117   0.235   0.258   0.272   0.287   0.306   0.325
  0.342   0.344   0.360   0.371   0.383   0.392   0.403   0.412
  0.415   0.421   0.426   0.428   0.432   0.433   0.439   0.440
  0.447   0.459   0.464   0.471   0.480   0.482   0.489   0.493
  0.509   0.515   0.550   0.557   0.653   0.658
 --------------------------------------------------------------
 
          Ground-State Mulliken Net Atomic Charges

     Atom                 Charge (a.u.)
  ----------------------------------------
      1 C                    -0.080369
      2 C                    -0.081149
      3 C                     0.213652
      4 C                     0.215918
      5 O                    -0.170070
      6 O                    -0.216067
      7 O                    -0.177859
      8 O                    -0.211056
      9 C                    -0.127828
     10 C                    -0.127410
     11 C                     0.105056
     12 C                    -0.145701
     13 C                    -0.144839
     14 C                     0.104715
     15 O                    -0.197869
     16 H                     0.085017
     17 H                     0.082158
     18 H                     0.086487
     19 H                     0.089578
     20 H                     0.074323
     21 H                     0.070679
     22 H                     0.073896
     23 H                     0.069418
     24 H                     0.086476
     25 H                     0.093100
     26 H                     0.088267
     27 H                     0.089816
     28 C                    -0.227139
     29 H                     0.077823
     30 H                     0.078776
     31 H                     0.099621
     32 C                    -0.227119
     33 H                     0.083290
     34 H                     0.083983
     35 H                     0.082425
  ----------------------------------------
  Sum of atomic charges =    -0.000000

 -----------------------------------------------------------------
                    Cartesian Multipole Moments
 -----------------------------------------------------------------
    Charge (ESU x 10^10)
                -0.0000
    Dipole Moment (Debye)
         X      -0.5323      Y       1.1268      Z       2.1340
       Tot       2.4713
    Quadrupole Moments (Debye-Ang)
        XX     -83.9864     XY      -0.7879     YY     -89.6422
        XZ       1.8551     YZ      -3.5687     ZZ     -96.4367
    Octopole Moments (Debye-Ang^2)
       XXX     -48.3108    XXY      -1.4762    XYY     -18.3870
       YYY       2.5371    XXZ      -2.5397    XYZ       3.7687
       YYZ      -0.1090    XZZ      -4.5926    YZZ       0.4207
       ZZZ      -7.2005
    Hexadecapole Moments (Debye-Ang^3)
      XXXX   -2207.7749   XXXY     -13.9344   XXYY    -619.4865
      XYYY      -1.8696   YYYY   -1770.3421   XXXZ     -31.3723
      XXYZ      -9.0384   XYYZ      -6.3285   YYYZ     -42.9766
      XXZZ    -471.8020   XYZZ      -6.8976   YYZZ    -371.0393
      XZZZ      -6.9837   YZZZ      -8.8448   ZZZZ    -405.5533
 -----------------------------------------------------------------
 Calculating analytic gradient of the SCF energy
 Gradient of SCF Energy
            1           2           3           4           5           6
    1   0.0021699  -0.0010185  -0.0035274  -0.0058336   0.0002404   0.0002030
    2  -0.0010460   0.0029961   0.0049502  -0.0001582  -0.0021980  -0.0011728
    3  -0.0036326  -0.0034567   0.0028029   0.0058051  -0.0018342  -0.0007765
            7           8           9          10          11          12
    1   0.0018004   0.0013856   0.0041137   0.0037293  -0.0035405  -0.0020022
    2  -0.0002563  -0.0011745   0.0015735  -0.0022213   0.0009109  -0.0000111
    3  -0.0033098  -0.0010871   0.0001859   0.0008201   0.0035211  -0.0014224
           13          14          15          16          17          18
    1  -0.0014290  -0.0035625   0.0030539   0.0000081   0.0009912  -0.0000036
    2  -0.0008154  -0.0026068   0.0008707  -0.0009127   0.0001746  -0.0002330
    3  -0.0006918   0.0012221  -0.0004586   0.0007132   0.0003015   0.0001827
           19          20          21          22          23          24
    1  -0.0002998   0.0004023   0.0008600   0.0002502   0.0013207   0.0000312
    2  -0.0000858  -0.0002327   0.0006262   0.0004189  -0.0001613   0.0002986
    3   0.0001274  -0.0000053   0.0003827  -0.0000388   0.0003193   0.0001744
           25          26          27          28          29          30
    1  -0.0002609   0.0000772   0.0001056  -0.0015438   0.0002274  -0.0001874
    2  -0.0000848   0.0002006   0.0000669   0.0001767   0.0003294   0.0000636
    3  -0.0001756  -0.0001043   0.0002898   0.0024695  -0.0004030   0.0000769
           31          32          33          34          35
    1   0.0012774   0.0001389   0.0002292   0.0003755   0.0002180
    2   0.0009215  -0.0011150  -0.0002390   0.0001323   0.0000139
    3  -0.0018379   0.0010587  -0.0005358  -0.0008693   0.0001865
 Max gradient component =       5.834E-03
 RMS gradient           =       1.726E-03
 Gradient time:  CPU 25.70 s  wall 1.18 s
 Geometry Optimization Parameters
   NAtoms,    NIC,     NZ,  NCons,   NDum,   NFix, NCnnct, MaxDiis
       35     275       0       2       0       0       0       0

 Cartesian Hessian Update
 Hessian Updated using BFGS Update


** CONSTRAINED OPTIMIZATION IN DELOCALIZED INTERNAL COORDINATES **
   Searching for a Minimum

   Optimization Cycle:   3

                       Coordinates (Angstroms)
     ATOM                X               Y               Z
      1  C         0.0924680663    0.6822804456    0.7150614186
      2  C         0.5137208634   -0.8379460852    0.6931566062
      3  C        -1.2341011416    0.9573316835   -0.0639940260
      4  C        -0.5854992908   -1.7806080434    0.0842936092
      5  O        -1.9194238377    2.0270536174    0.5807170901
      6  O        -1.6486303980    0.3709452748   -1.0896637536
      7  O        -1.7542962615   -1.6261015551    0.8921811257
      8  O        -0.5053470332   -2.5700988132   -0.8809859165
      9  C        -2.8512674495   -2.4391874278    0.3359532104
     10  C        -3.1684479980    2.3266397556   -0.1465212798
     11  C         1.3423635309    1.3613114450   -0.0029016154
     12  C         2.5599469765    1.2993975088    1.0076006838
     13  C         2.9711110970   -0.2133956263    0.9145015284
     14  C         1.8911577284   -0.7793450996   -0.1012807525
     15  O         1.7133865250    0.3624933249   -1.0362229034
     16  H        -0.0296211837    1.0544092944    1.7475237585
     17  H         0.6969837309   -1.1870955883    1.7265703654
     18  H        -2.6153344351   -3.5232920570    0.3611047224
     19  H        -3.8362032445    1.4420475280   -0.1956197633
     20  H         3.3737460602    1.9538681397    0.6560092503
     21  H         2.2800142624    1.6117261561    2.0266901003
     22  H         3.9784369559   -0.3190490749    0.4805106652
     23  H         2.9587410346   -0.7298322595    1.8880411258
     24  H        -3.7323752530   -2.2400945501    0.9741068388
     25  H        -3.0794204971   -2.1518383453   -0.7112504730
     26  H        -2.9671641550    2.6728010582   -1.1814284160
     27  H        -3.6664079144    3.1343151874    0.4214769120
     28  C         2.3323130064   -2.0501204442   -0.8696320222
     29  H         3.3559398360   -1.9124946287   -1.2517382179
     30  H         2.3148900537   -2.9246087802   -0.2020794592
     31  H         1.6566142140   -2.2359867690   -1.7182116799
     32  C         1.0916190114    2.7449965453   -0.6541330782
     33  H         2.0228510044    3.1141881651   -1.1106169130
     34  H         0.3262164677    2.6674778729   -1.4420006722
     35  H         0.7536130420    3.4670250789    0.1050241614
   Point Group: c1    Number of degrees of freedom:    99


   Energy is   -833.446836136

              Constraints and their Current Values
                                        Value     Constraint
   Dihedral:        2   1   3   5      147.297      147.300
   Dihedral:        1   2   4   7      -59.601      -59.600
 Hessian Updated using BFGS Update

   Using Lagrange Multiplier Algorithm


 88 Hessian modes will be used to form the next step
  Hessian Eigenvalues:
    -0.977761   -0.976685    0.044158    0.045000    0.045002    0.045116
     0.045386    0.045478    0.048524    0.058364    0.060397    0.067777
     0.070321    0.071464    0.071700    0.075211    0.076131    0.078071
     0.080252    0.080895    0.081719    0.082765    0.083414    0.083584
     0.083647    0.084838    0.090127    0.091319    0.091967    0.106435
     0.108334    0.113369    0.113889    0.115551    0.116909    0.116997
     0.127937    0.131695    0.139848    0.144662    0.158775    0.160834
     0.162070    0.168342    0.186079    0.240819    0.243034    0.249390
     0.249992    0.250069    0.250433    0.260489    0.268522    0.270269
     0.283623    0.289989    0.305641    0.306835    0.308742    0.312955
     0.327062    0.337234    0.338957    0.341001    0.341075    0.341392
     0.341476    0.341922    0.342538    0.342660    0.342846    0.342868
     0.343287    0.343602    0.343680    0.343729    0.343759    0.343936
     0.344103    0.380228    0.392440    0.412040    0.475979    0.513135
     0.952299    0.984566    1.022751    1.029272

 Minimum Search - Taking P-RFO Step
 Searching for Lamda that Maximizes Along the Constraint modes Only
 Value Taken    Lamda =   0.00000043
 Searching for Lamda that Minimizes Along All other modes
 Value Taken    Lamda =  -0.00107336
 Step Taken.  Stepsize is  0.110717

                             Maximum     Tolerance    Cnvgd?
         Gradient            0.007432       0.000300      NO
         Displacement        0.035133       0.001200      NO
         Energy change     -0.006072       0.000001      NO


 New Cartesian Coordinates Obtained by Inverse Iteration

 Displacement from previous Coordinates is:  0.285391
 Adding empirical dispersion correction 
 ----------------------------------------------------------------
 Doing -D3(op) with
 s6 =   1.00000
 s8 =   0.78311
 a1 =   0.30000
 a2 =   4.25000
 n  =  10.00000
 -D3 energy without 3body term =     -0.0411806485 hartrees
 ----------------------------------------------------------------
             Standard Nuclear Orientation (Angstroms)
    I     Atom           X                Y                Z
 ----------------------------------------------------------------
    1      C       0.1024151327     0.6757628892     0.7308399496
    2      C       0.5313170617    -0.8490802802     0.7085456915
    3      C      -1.2241768628     0.9457598967    -0.0559586709
    4      C      -0.5720564824    -1.7861000225     0.0884359776
    5      O      -1.9257620244     2.0174874968     0.5863092513
    6      O      -1.6356322462     0.3594841576    -1.0827247634
    7      O      -1.7526585347    -1.6315132151     0.8958243625
    8      O      -0.5035383636    -2.5611838728    -0.8884864225
    9      C      -2.8705108138    -2.4147505321     0.3199133985
   10      C      -3.1778735403     2.3235597263    -0.1477597891
   11      C       1.3481527531     1.3564829721    -0.0034930040
   12      C       2.5734292063     1.3051732835     1.0024193875
   13      C       2.9923799514    -0.2050981314     0.9115708041
   14      C       1.9092420856    -0.7810808582    -0.0968900838
   15      O       1.7071275493     0.3534095637    -1.0361268087
   16      H      -0.0194786292     1.0562926330     1.7596240616
   17      H       0.7127494350    -1.2007314646     1.7407290778
   18      H      -2.6527427162    -3.5026178045     0.3164063319
   19      H      -3.8422927788     1.4374276760    -0.2061923347
   20      H       3.3790719886     1.9675559972     0.6471384015
   21      H       2.2879049812     1.6151461714     2.0202080840
   22      H       3.9984191415    -0.3117049560     0.4752008016
   23      H       2.9768517235    -0.7199097695     1.8853564283
   24      H      -3.7492811480    -2.2166550107     0.9612913525
   25      H      -3.0887452288    -2.0970149552    -0.7203696719
   26      H      -2.9711029895     2.6727094544    -1.1803504897
   27      H      -3.6802092010     3.1280508341     0.4205453546
   28      C       2.3444257447    -2.0588834725    -0.8636973463
   29      H       3.3603846163    -1.9259167448    -1.2655578391
   30      H       2.3410287667    -2.9252017470    -0.1851332580
   31      H       1.6428481580    -2.2587849805    -1.6866748486
   32      C       1.0724692015     2.7382519221    -0.6554603125
   33      H       1.9914832960     3.1214448731    -1.1237391502
   34      H       0.2931522295     2.6454385442    -1.4269994207
   35      H       0.7338019113     3.4560026599     0.1074977282
 ----------------------------------------------------------------
 Molecular Point Group                 C1    NOp =  1
 Largest Abelian Subgroup              C1    NOp =  1
 Nuclear Repulsion Energy =  1371.8635773553 hartrees
 There are       65 alpha and       65 beta electrons
 Applying Cartesian multipole field
    Component          Value
    ---------          -----
     (2,0,0)        1.00000E-11
     (0,2,0)        2.00000E-11
     (0,0,2)       -3.00000E-11
 Nucleus-field energy     =     0.0000000382 hartrees
 Requested basis set is STO-3G
 There are 52 shells and 103 basis functions
 A cutoff of  1.0D-12 yielded   1202 shell pairs
 There are      5183 function pairs
 Smallest overlap matrix eigenvalue = 2.13E-01
 Guess MOs from SCF MO coefficient file
 Reading MOs from coefficient file
 Reading MOs from coefficient file
 A restricted hybrid HF-DFT SCF calculation will be
 performed using Pulay DIIS extrapolation
 Exchange:     0.2000 Hartree-Fock + 0.0800 Slater + 0.7200 B88
 Correlation:  0.1900 VWN1RPA + 0.8100 LYP
 Using SG-1 standard quadrature grid
 Dispersion:   Grimme D3
 SCF converges when DIIS error is below 1.0E-08
 Geometry optimization detected.  Setting ReadMinima to 0
 Setting SaveMinima to 0
 -------------------------------------------------------
 OpenMP Integral computing Module                
 Release: version 1.0, May 2013, Q-Chem Inc. Pittsburgh 
 -------------------------------------------------------
 -------------------------------------------------------
 OpenMP BLAS3 based DFT computing Module                
 Release: version 1.0, May 2013, Q-Chem Inc. Pittsburgh 
 -------------------------------------------------------
 ---------------------------------------
  Cycle       Energy         DIIS Error
 ---------------------------------------
    1    -833.4317593189      1.26E-03
    2    -833.4471825360      3.59E-04
    3    -833.4465115043      7.63E-04
    4    -833.4473813268      6.20E-05
    5    -833.4473871104      1.88E-05
    6    -833.4473875502      8.97E-06
    7    -833.4473876427      4.85E-06
    8    -833.4473876785      8.47E-07
    9    -833.4473876797      1.03E-07
   10    -833.4473876797      3.97E-08
   11    -833.4473876797      1.58E-08
   12    -833.4473876797      4.58E-09 Convergence criterion met
 ---------------------------------------
 SCF time:  CPU 111.79 s  wall 5.59 s
 SCF   energy in the final basis set = -833.4473876797
 Total energy in the final basis set = -833.4473876797
 
 --------------------------------------------------------------
 
                    Orbital Energies (a.u.)
 --------------------------------------------------------------
 
 Alpha MOs
 -- Occupied --
-18.933 -18.922 -18.873 -18.870 -18.869 -10.096 -10.093 -10.064
-10.061 -10.057 -10.057 -10.032 -10.030 -10.015 -10.014 -10.011
-10.004  -1.010  -1.000  -0.961  -0.933  -0.927  -0.759  -0.736
 -0.718  -0.674  -0.669  -0.653  -0.616  -0.588  -0.531  -0.511
 -0.478  -0.470  -0.451  -0.434  -0.423  -0.415  -0.413  -0.403
 -0.399  -0.384  -0.381  -0.378  -0.367  -0.362  -0.352  -0.341
 -0.336  -0.329  -0.310  -0.295  -0.293  -0.289  -0.287  -0.275
 -0.263  -0.251  -0.245  -0.223  -0.176  -0.168  -0.151  -0.143
 -0.135
 -- Virtual --
  0.096   0.116   0.232   0.254   0.267   0.287   0.304   0.323
  0.339   0.342   0.358   0.369   0.381   0.390   0.401   0.409
  0.414   0.420   0.424   0.428   0.431   0.433   0.439   0.440
  0.448   0.457   0.463   0.471   0.480   0.482   0.487   0.494
  0.506   0.514   0.547   0.556   0.652   0.657
 --------------------------------------------------------------
 
          Ground-State Mulliken Net Atomic Charges

     Atom                 Charge (a.u.)
  ----------------------------------------
      1 C                    -0.080000
      2 C                    -0.080687
      3 C                     0.212066
      4 C                     0.214460
      5 O                    -0.169911
      6 O                    -0.215421
      7 O                    -0.177531
      8 O                    -0.209851
      9 C                    -0.129281
     10 C                    -0.128737
     11 C                     0.105300
     12 C                    -0.145851
     13 C                    -0.145130
     14 C                     0.105009
     15 O                    -0.197253
     16 H                     0.085204
     17 H                     0.082353
     18 H                     0.086334
     19 H                     0.089342
     20 H                     0.074666
     21 H                     0.071223
     22 H                     0.074497
     23 H                     0.070111
     24 H                     0.086635
     25 H                     0.092856
     26 H                     0.087886
     27 H                     0.090011
     28 C                    -0.228213
     29 H                     0.078161
     30 H                     0.078319
     31 H                     0.100645
     32 C                    -0.227419
     33 H                     0.083310
     34 H                     0.084345
     35 H                     0.082552
  ----------------------------------------
  Sum of atomic charges =    -0.000000

 -----------------------------------------------------------------
                    Cartesian Multipole Moments
 -----------------------------------------------------------------
    Charge (ESU x 10^10)
                 0.0000
    Dipole Moment (Debye)
         X      -0.4626      Y       1.1353      Z       2.1127
       Tot       2.4426
    Quadrupole Moments (Debye-Ang)
        XX     -83.8171     XY      -0.8267     YY     -89.6629
        XZ       1.9870     YZ      -3.5231     ZZ     -96.4769
    Octopole Moments (Debye-Ang^2)
       XXX     -49.4342    XXY      -1.2709    XYY     -18.3976
       YYY       3.0860    XXZ      -2.9661    XYZ       3.6433
       YYZ      -0.5175    XZZ      -4.8244    YZZ       0.7653
       ZZZ      -7.4457
    Hexadecapole Moments (Debye-Ang^3)
      XXXX   -2218.8463   XXXY     -11.8828   XXYY    -620.3229
      XYYY       0.3710   YYYY   -1762.2529   XXXZ     -33.0415
      XXYZ      -9.5462   XYYZ      -6.4979   YYYZ     -43.0730
      XXZZ    -474.2994   XYZZ      -6.2683   YYZZ    -370.1578
      XZZZ      -8.3106   YZZZ     -10.2292   ZZZZ    -405.9117
 -----------------------------------------------------------------
 Calculating analytic gradient of the SCF energy
 Gradient of SCF Energy
            1           2           3           4           5           6
    1   0.0011551   0.0002985   0.0016689   0.0010321   0.0000698  -0.0006885
    2   0.0003665   0.0002273   0.0013347  -0.0008361  -0.0008284  -0.0010330
    3  -0.0000758  -0.0010680   0.0006735   0.0027890   0.0000799  -0.0007233
            7           8           9          10          11          12
    1   0.0001540  -0.0001028  -0.0017715  -0.0014695  -0.0013578  -0.0003254
    2   0.0010176  -0.0007082  -0.0003357   0.0011790   0.0003907  -0.0000397
    3  -0.0014334  -0.0006785   0.0005242   0.0002400   0.0018432   0.0005407
           13          14          15          16          17          18
    1   0.0001968  -0.0007989   0.0012115  -0.0001017   0.0005230  -0.0000345
    2  -0.0003011  -0.0008607   0.0006090  -0.0005175   0.0003473  -0.0000609
    3   0.0004271   0.0008668  -0.0014845   0.0001150  -0.0000826  -0.0001375
           19          20          21          22          23          24
    1  -0.0000068   0.0000809   0.0002944   0.0000723   0.0005185  -0.0004013
    2  -0.0000030  -0.0000594   0.0003398   0.0002306  -0.0001485  -0.0001536
    3  -0.0001814  -0.0002389   0.0000458  -0.0002519  -0.0000483  -0.0001293
           25          26          27          28          29          30
    1   0.0000963  -0.0001334  -0.0003651  -0.0001937   0.0003288  -0.0005394
    2  -0.0002362  -0.0001282   0.0001669  -0.0006406  -0.0001024  -0.0000724
    3  -0.0000838  -0.0001102  -0.0001296  -0.0006009   0.0004569  -0.0002338
           31          32          33          34          35
    1   0.0006832  -0.0002354   0.0000777  -0.0000034   0.0000673
    2   0.0006108   0.0004129  -0.0001159  -0.0001507   0.0000992
    3  -0.0004394  -0.0006040   0.0001008   0.0000275   0.0000049
 Max gradient component =       2.789E-03
 RMS gradient           =       6.810E-04
 Gradient time:  CPU 24.42 s  wall 1.18 s
 Geometry Optimization Parameters
   NAtoms,    NIC,     NZ,  NCons,   NDum,   NFix, NCnnct, MaxDiis
       35     275       0       2       0       0       0       0

 Cartesian Hessian Update
 Hessian Updated using BFGS Update


** CONSTRAINED OPTIMIZATION IN DELOCALIZED INTERNAL COORDINATES **
   Searching for a Minimum

   Optimization Cycle:   4

                       Coordinates (Angstroms)
     ATOM                X               Y               Z
      1  C         0.1024151327    0.6757628892    0.7308399496
      2  C         0.5313170617   -0.8490802802    0.7085456915
      3  C        -1.2241768628    0.9457598967   -0.0559586709
      4  C        -0.5720564824   -1.7861000225    0.0884359776
      5  O        -1.9257620244    2.0174874968    0.5863092513
      6  O        -1.6356322462    0.3594841576   -1.0827247634
      7  O        -1.7526585347   -1.6315132151    0.8958243625
      8  O        -0.5035383636   -2.5611838728   -0.8884864225
      9  C        -2.8705108138   -2.4147505321    0.3199133985
     10  C        -3.1778735403    2.3235597263   -0.1477597891
     11  C         1.3481527531    1.3564829721   -0.0034930040
     12  C         2.5734292063    1.3051732835    1.0024193875
     13  C         2.9923799514   -0.2050981314    0.9115708041
     14  C         1.9092420856   -0.7810808582   -0.0968900838
     15  O         1.7071275493    0.3534095637   -1.0361268087
     16  H        -0.0194786292    1.0562926330    1.7596240616
     17  H         0.7127494350   -1.2007314646    1.7407290778
     18  H        -2.6527427162   -3.5026178045    0.3164063319
     19  H        -3.8422927788    1.4374276760   -0.2061923347
     20  H         3.3790719886    1.9675559972    0.6471384015
     21  H         2.2879049812    1.6151461714    2.0202080840
     22  H         3.9984191415   -0.3117049560    0.4752008016
     23  H         2.9768517235   -0.7199097695    1.8853564283
     24  H        -3.7492811480   -2.2166550107    0.9612913525
     25  H        -3.0887452288   -2.0970149552   -0.7203696719
     26  H        -2.9711029895    2.6727094544   -1.1803504897
     27  H        -3.6802092010    3.1280508341    0.4205453546
     28  C         2.3444257447   -2.0588834725   -0.8636973463
     29  H         3.3603846163   -1.9259167448   -1.2655578391
     30  H         2.3410287667   -2.9252017470   -0.1851332580
     31  H         1.6428481580   -2.2587849805   -1.6866748486
     32  C         1.0724692015    2.7382519221   -0.6554603125
     33  H         1.9914832960    3.1214448731   -1.1237391502
     34  H         0.2931522295    2.6454385442   -1.4269994207
     35  H         0.7338019113    3.4560026599    0.1074977282
   Point Group: c1    Number of degrees of freedom:    99


   Energy is   -833.447387680

              Constraints and their Current Values
                                        Value     Constraint
   Dihedral:        2   1   3   5      147.300      147.300
   Dihedral:        1   2   4   7      -59.600      -59.600
 Hessian Updated using BFGS Update

 87 Hessian modes will be used to form the next step
  Hessian Eigenvalues:
     0.032084    0.045000    0.045002    0.045022    0.045093    0.045468
     0.045554    0.048358    0.054357    0.060397    0.067595    0.070365
     0.071436    0.071749    0.074525    0.075863    0.078075    0.080593
     0.080917    0.081739    0.082891    0.083415    0.083586    0.083653
     0.084838    0.090103    0.091508    0.091969    0.106524    0.107605
     0.113880    0.114555    0.115699    0.116910    0.116998    0.127754
     0.131292    0.139839    0.144683    0.159068    0.160371    0.161019
     0.162605    0.167746    0.186021    0.239931    0.242246    0.249348
     0.249998    0.250015    0.250070    0.250413    0.260486    0.268509
     0.281944    0.288172    0.292549    0.305801    0.306799    0.308772
     0.323786    0.327381    0.337471    0.339173    0.341066    0.341110
     0.341398    0.341580    0.342504    0.342649    0.342822    0.342861
     0.343064    0.343479    0.343609    0.343676    0.343751    0.343890
     0.344093    0.345901    0.380820    0.412019    0.453295    0.511688
     0.531398    0.952547    0.985936

 Minimum Search - Taking Simple RFO Step
 Searching for Lamda that Minimizes Along All modes
 Value Taken    Lamda =  -0.00026161
 Step Taken.  Stepsize is  0.074199

                             Maximum     Tolerance    Cnvgd?
         Gradient           0.003426      0.000300      NO
         Displacement       0.026791      0.001200      NO
         Energy change     -0.000552      0.000001      NO


 New Cartesian Coordinates Obtained by Inverse Iteration

 Displacement from previous Coordinates is:  0.213969
 Adding empirical dispersion correction 
 ----------------------------------------------------------------
 Doing -D3(op) with
 s6 =   1.00000
 s8 =   0.78311
 a1 =   0.30000
 a2 =   4.25000
 n  =  10.00000
 -D3 energy without 3body term =     -0.0413055526 hartrees
 ----------------------------------------------------------------
             Standard Nuclear Orientation (Angstroms)
    I     Atom           X                Y                Z
 ----------------------------------------------------------------
    1      C       0.1037065662     0.6714559342     0.7404839846
    2      C       0.5366706157    -0.8527862659     0.7174651440
    3      C      -1.2231136079     0.9380924192    -0.0458093208
    4      C      -0.5672985936    -1.7846985277     0.0923544500
    5      O      -1.9253517023     2.0086614722     0.5997989325
    6      O      -1.6328566670     0.3572254052    -1.0756102423
    7      O      -1.7486755753    -1.6278338724     0.9006477229
    8      O      -0.5034592091    -2.5513044921    -0.8908980837
    9      C      -2.8666583029    -2.3925985351     0.3020852179
   10      C      -3.1714256646     2.3118591546    -0.1443406514
   11      C       1.3455491439     1.3523096834    -0.0062458825
   12      C       2.5761869211     1.3089067893     0.9937864075
   13      C       2.9976513500    -0.1997468792     0.9068837159
   14      C       1.9118006585    -0.7824699064    -0.0940010692
   15      O       1.6947876861     0.3449502266    -1.0366253183
   16      H      -0.0161272185     1.0567526442     1.7677414608
   17      H       0.7171846851    -1.2059680684     1.7493439025
   18      H      -2.6560298741    -3.4816104487     0.2785333139
   19      H      -3.8331552261     1.4240893553    -0.2089443948
   20      H       3.3779124448     1.9743102287     0.6358980508
   21      H       2.2894178517     1.6186215617     2.0111758598
   22      H       4.0028391133    -0.3092260896     0.4699592037
   23      H       2.9806516688    -0.7102946133     1.8827995128
   24      H      -3.7461618788    -2.2000823133     0.9436254989
   25      H      -3.0766723335    -2.0512452649    -0.7325283728
   26      H      -2.9566851577     2.6641195324    -1.1742714101
   27      H      -3.6781328280     3.1138642664     0.4230224628
   28      C       2.3430379993    -2.0656194041    -0.8538742691
   29      H       3.3513023032    -1.9337330815    -1.2742238410
   30      H       2.3554853894    -2.9230210909    -0.1638787390
   31      H       1.6252393680    -2.2816498421    -1.6588590909
   32      C       1.0588882590     2.7323791143    -0.6574301390
   33      H       1.9710665989     3.1213934556    -1.1340053931
   34      H       0.2719721704     2.6361822272    -1.4206451651
   35      H       0.7230464199     3.4479281587     0.1088287723
 ----------------------------------------------------------------
 Molecular Point Group                 C1    NOp =  1
 Largest Abelian Subgroup              C1    NOp =  1
 Nuclear Repulsion Energy =  1373.5428793084 hartrees
 There are       65 alpha and       65 beta electrons
 Applying Cartesian multipole field
    Component          Value
    ---------          -----
     (2,0,0)        1.00000E-11
     (0,2,0)        2.00000E-11
     (0,0,2)       -3.00000E-11
 Nucleus-field energy     =     0.0000000380 hartrees
 Requested basis set is STO-3G
 There are 52 shells and 103 basis functions
 A cutoff of  1.0D-12 yielded   1202 shell pairs
 There are      5183 function pairs
 Smallest overlap matrix eigenvalue = 2.13E-01
 Guess MOs from SCF MO coefficient file
 Reading MOs from coefficient file
 Reading MOs from coefficient file
 A restricted hybrid HF-DFT SCF calculation will be
 performed using Pulay DIIS extrapolation
 Exchange:     0.2000 Hartree-Fock + 0.0800 Slater + 0.7200 B88
 Correlation:  0.1900 VWN1RPA + 0.8100 LYP
 Using SG-1 standard quadrature grid
 Dispersion:   Grimme D3
 SCF converges when DIIS error is below 1.0E-08
 Geometry optimization detected.  Setting ReadMinima to 0
 Setting SaveMinima to 0
 -------------------------------------------------------
 OpenMP Integral computing Module                
 Release: version 1.0, May 2013, Q-Chem Inc. Pittsburgh 
 -------------------------------------------------------
 -------------------------------------------------------
 OpenMP BLAS3 based DFT computing Module                
 Release: version 1.0, May 2013, Q-Chem Inc. Pittsburgh 
 -------------------------------------------------------
 ---------------------------------------
  Cycle       Energy         DIIS Error
 ---------------------------------------
    1    -833.4471025468      7.02E-04
    2    -833.4475435497      8.21E-05
    3    -833.4475203349      1.59E-04
    4    -833.4475562547      2.98E-05
    5    -833.4475575140      9.65E-06
    6    -833.4475576454      4.01E-06
    7    -833.4475576678      1.49E-06
    8    -833.4475576711      3.25E-07
    9    -833.4475576713      7.26E-08
   10    -833.4475576714      2.64E-08
   11    -833.4475576713      7.12E-09 Convergence criterion met
 ---------------------------------------
 SCF time:  CPU 104.34 s  wall 5.35 s
 SCF   energy in the final basis set = -833.4475576713
 Total energy in the final basis set = -833.4475576713
 
 --------------------------------------------------------------
 
                    Orbital Energies (a.u.)
 --------------------------------------------------------------
 
 Alpha MOs
 -- Occupied --
-18.933 -18.922 -18.873 -18.871 -18.870 -10.096 -10.093 -10.063
-10.061 -10.058 -10.056 -10.031 -10.030 -10.015 -10.014 -10.012
-10.004  -1.010  -1.000  -0.962  -0.933  -0.927  -0.759  -0.736
 -0.719  -0.674  -0.669  -0.653  -0.616  -0.588  -0.531  -0.511
 -0.478  -0.470  -0.451  -0.434  -0.424  -0.415  -0.413  -0.403
 -0.399  -0.384  -0.381  -0.378  -0.367  -0.363  -0.352  -0.341
 -0.336  -0.329  -0.310  -0.296  -0.293  -0.289  -0.287  -0.275
 -0.263  -0.252  -0.246  -0.223  -0.177  -0.168  -0.152  -0.143
 -0.136
 -- Virtual --
  0.096   0.116   0.233   0.255   0.268   0.288   0.304   0.323
  0.338   0.341   0.357   0.369   0.381   0.390   0.401   0.409
  0.414   0.420   0.424   0.428   0.432   0.433   0.439   0.440
  0.448   0.456   0.463   0.471   0.480   0.482   0.487   0.495
  0.506   0.514   0.547   0.556   0.652   0.657
 --------------------------------------------------------------
 
          Ground-State Mulliken Net Atomic Charges

     Atom                 Charge (a.u.)
  ----------------------------------------
      1 C                    -0.080140
      2 C                    -0.080807
      3 C                     0.212180
      4 C                     0.214664
      5 O                    -0.169676
      6 O                    -0.215688
      7 O                    -0.177204
      8 O                    -0.209416
      9 C                    -0.129574
     10 C                    -0.128914
     11 C                     0.105574
     12 C                    -0.145943
     13 C                    -0.145282
     14 C                     0.105281
     15 O                    -0.197237
     16 H                     0.085071
     17 H                     0.082237
     18 H                     0.086475
     19 H                     0.089315
     20 H                     0.074825
     21 H                     0.071409
     22 H                     0.074720
     23 H                     0.070294
     24 H                     0.086353
     25 H                     0.092941
     26 H                     0.087791
     27 H                     0.089767
     28 C                    -0.228826
     29 H                     0.078193
     30 H                     0.077862
     31 H                     0.101185
     32 C                    -0.227566
     33 H                     0.083282
     34 H                     0.084289
     35 H                     0.082565
  ----------------------------------------
  Sum of atomic charges =    -0.000000

 -----------------------------------------------------------------
                    Cartesian Multipole Moments
[...]
 C          0.000  0.000 -0.000    0.000  0.000 -0.000   -0.001  0.000 -0.001
 C         -0.000 -0.000  0.000    0.015  0.033  0.021    0.019  0.040  0.020
 C         -0.001  0.001 -0.001   -0.031  0.022 -0.030    0.012 -0.014  0.020
 C          0.000  0.000 -0.000    0.000  0.000  0.000   -0.001 -0.001 -0.001
 O         -0.000 -0.000  0.000   -0.000 -0.000 -0.000    0.000 -0.000 -0.000
 H          0.001 -0.002 -0.004   -0.007  0.023  0.063    0.003 -0.010 -0.028
 H         -0.003  0.006 -0.020   -0.040  0.082 -0.280    0.080 -0.165  0.568
 H         -0.104  0.395  0.011    0.006 -0.024 -0.001   -0.005  0.021  0.001
 H          0.279  0.373  0.050    0.002  0.002  0.000    0.001  0.001  0.000
 H          0.001  0.001 -0.001   -0.307 -0.248  0.158   -0.373 -0.302  0.192
 H          0.000 -0.000 -0.000    0.137 -0.144 -0.405    0.147 -0.153 -0.428
 H          0.015 -0.001 -0.006    0.406 -0.031 -0.156   -0.157  0.011  0.064
 H         -0.002 -0.008  0.018   -0.046 -0.230  0.502    0.026  0.138 -0.296
 H          0.217 -0.047 -0.196   -0.013  0.003  0.012    0.011 -0.002 -0.010
 H          0.104 -0.133  0.365   -0.007  0.008 -0.022    0.006 -0.007  0.019
 H         -0.104 -0.207  0.441   -0.000 -0.001  0.002   -0.000 -0.000  0.001
 H          0.137 -0.223 -0.209    0.001 -0.001 -0.001    0.000 -0.000 -0.000
 C          0.001 -0.001  0.000   -0.004  0.005  0.000    0.000 -0.000  0.000
 H         -0.009 -0.002  0.004    0.069  0.018 -0.027   -0.004 -0.001  0.002
 H         -0.001  0.009 -0.008    0.006 -0.063  0.052   -0.000  0.005 -0.004
 H          0.003  0.001  0.004   -0.021 -0.010 -0.028    0.000  0.001  0.002
 C         -0.000  0.000  0.000   -0.001  0.004 -0.002   -0.001  0.003 -0.001
 H         -0.001 -0.000  0.000   -0.038 -0.015  0.020   -0.026 -0.011  0.014
 H          0.002  0.001  0.002    0.033  0.007  0.034    0.028  0.005  0.030
 H          0.002 -0.003 -0.003    0.018 -0.035 -0.032    0.014 -0.027 -0.025
 TransDip  -0.225 -0.011 -0.046   -0.064  0.165 -0.005    0.091  0.114  0.053

 Mode:                88                     89                     90
 Frequency:      3067.84                3090.50                3098.90
 Force Cnst:      5.9465                 6.2288                 6.2359
 Red. Mass:       1.0724                 1.1069                 1.1021
 IR Active:          YES                    YES                    YES
 IR Intens:       28.207                  0.347                 13.007
 Raman Active:       YES                    YES                    YES
               X      Y      Z        X      Y      Z        X      Y      Z
 C         -0.001  0.004  0.010   -0.001  0.002  0.007   -0.001  0.002  0.006
 C         -0.007  0.017 -0.056    0.001 -0.003  0.009    0.000 -0.000  0.001
 C          0.000 -0.000  0.000   -0.000  0.000  0.000   -0.000  0.000  0.000
 C          0.000 -0.000 -0.001   -0.000  0.000  0.000    0.000 -0.000 -0.000
 O         -0.000  0.000 -0.000    0.000 -0.000 -0.000   -0.000 -0.000 -0.000
 O         -0.000 -0.000 -0.000    0.000 -0.000  0.000    0.000 -0.000 -0.000
 O         -0.000 -0.000  0.000   -0.000 -0.000 -0.000   -0.000  0.000  0.000
 O         -0.000  0.000  0.000    0.000 -0.000 -0.000   -0.000  0.000  0.000
 C         -0.000 -0.001 -0.000    0.000  0.000 -0.000   -0.000  0.000  0.000
 C          0.000 -0.000  0.000   -0.000 -0.000  0.000    0.000  0.000 -0.000
 C          0.001 -0.001  0.000    0.001  0.000 -0.001    0.000  0.000 -0.000
 C         -0.007 -0.018 -0.011    0.042  0.011 -0.053    0.017  0.004 -0.020
 C         -0.034  0.017 -0.017   -0.041 -0.011  0.045    0.002  0.001 -0.003
 C         -0.000  0.001  0.000   -0.000 -0.000  0.000   -0.001 -0.001  0.001
 O          0.000 -0.000  0.000   -0.000  0.000  0.000   -0.000  0.000 -0.000
 H          0.013 -0.044 -0.121    0.007 -0.030 -0.080    0.007 -0.025 -0.067
 H          0.095 -0.196  0.674   -0.015  0.034 -0.114   -0.001  0.003 -0.013
 H         -0.002  0.009  0.000    0.000 -0.001 -0.000    0.001 -0.003 -0.000
 H         -0.004 -0.005 -0.001    0.000  0.000  0.000   -0.001 -0.001 -0.000
 H          0.159  0.128 -0.082   -0.363 -0.302  0.171   -0.143 -0.119  0.068
 H         -0.074  0.078  0.215   -0.145  0.175  0.459   -0.055  0.067  0.173
 H          0.421 -0.034 -0.156    0.464 -0.042 -0.160   -0.015  0.003  0.007
 H         -0.034 -0.166  0.360    0.021  0.172 -0.372   -0.001 -0.014  0.025
 H          0.005 -0.001 -0.005   -0.001  0.000  0.001    0.000 -0.000 -0.000
 H          0.003 -0.002  0.007   -0.000  0.000 -0.001    0.000 -0.000  0.000
 H          0.002  0.003 -0.007    0.000  0.000 -0.001    0.000  0.000 -0.000
 H         -0.002  0.003  0.003   -0.000  0.000  0.000   -0.000  0.000  0.000
 C         -0.003  0.004  0.000    0.009  0.012 -0.011   -0.043 -0.054  0.055
 H          0.050  0.012 -0.020   -0.121 -0.030  0.043    0.612  0.147 -0.223
 H          0.005 -0.050  0.041    0.014 -0.114  0.095   -0.066  0.520 -0.431
 H         -0.019 -0.009 -0.026   -0.001  0.001 -0.009   -0.024 -0.020 -0.004
 C          0.000 -0.001  0.000   -0.006  0.000  0.002   -0.003  0.000  0.001
 H          0.009  0.004 -0.005    0.044  0.017 -0.021    0.024  0.010 -0.011
 H         -0.008 -0.001 -0.009    0.012  0.003  0.016    0.005  0.001  0.007
 H         -0.004  0.008  0.007    0.010 -0.023 -0.021    0.006 -0.013 -0.012
 TransDip  -0.114  0.056 -0.114    0.007  0.012 -0.013   -0.073 -0.061  0.065

 Mode:                91                     92                     93
 Frequency:      3108.46                3110.52                3117.00
 Force Cnst:      6.2809                 6.2744                 6.3113
 Red. Mass:       1.1033                 1.1007                 1.1025
 IR Active:          YES                    YES                    YES
 IR Intens:       14.803                 28.803                 20.051
 Raman Active:       YES                    YES                    YES
               X      Y      Z        X      Y      Z        X      Y      Z
 C          0.003 -0.010 -0.026    0.003 -0.009 -0.024   -0.001  0.003  0.008
 C          0.000 -0.000  0.002   -0.000  0.001 -0.001    0.000 -0.001  0.002
 C          0.000 -0.001 -0.001    0.001 -0.000 -0.000   -0.000  0.000 -0.000
 C          0.000  0.000  0.000    0.000  0.000  0.000   -0.000  0.000  0.000
 O         -0.000  0.000  0.000   -0.000 -0.000  0.000    0.000 -0.000 -0.000
 O          0.000  0.000  0.000    0.000  0.000 -0.000   -0.000 -0.000  0.000
 O         -0.000 -0.000  0.000   -0.000 -0.000  0.000    0.000 -0.000 -0.000
 O         -0.000 -0.000 -0.000   -0.000 -0.000 -0.000    0.000 -0.000 -0.000
 C         -0.000  0.000 -0.000    0.000 -0.000  0.000    0.000 -0.001  0.000
 C          0.000  0.001 -0.001   -0.000 -0.001  0.001   -0.001 -0.002  0.002
 C         -0.000 -0.000 -0.000   -0.001  0.000  0.002   -0.002 -0.001 -0.000
 C         -0.028 -0.008  0.032   -0.015 -0.005  0.017   -0.008 -0.002  0.011
 C         -0.041 -0.011  0.045   -0.017 -0.004  0.018   -0.006 -0.002  0.007
 C         -0.001 -0.001  0.001   -0.000 -0.000  0.001   -0.000 -0.000  0.000
 O          0.000  0.000 -0.000    0.000 -0.000 -0.000    0.000  0.000 -0.000
 H         -0.032  0.114  0.308   -0.029  0.103  0.277    0.010 -0.036 -0.095
 H         -0.001  0.006 -0.020    0.003 -0.004  0.013   -0.003  0.007 -0.023
 H          0.001 -0.004 -0.000   -0.000  0.001  0.000   -0.001  0.005  0.000
 H         -0.003 -0.004 -0.001    0.004  0.006  0.001    0.012  0.016  0.003
 H          0.244  0.206 -0.117    0.135  0.113 -0.063    0.078  0.063 -0.035
 H          0.085 -0.105 -0.266    0.044 -0.054 -0.141    0.029 -0.035 -0.090
 H          0.465 -0.044 -0.160    0.193 -0.019 -0.066    0.068 -0.006 -0.023
 H          0.022  0.178 -0.380    0.009  0.072 -0.154    0.003  0.029 -0.059
 H         -0.000 -0.000 -0.000   -0.000  0.000  0.000   -0.001  0.000  0.001
 H          0.000 -0.000  0.000   -0.001  0.001 -0.002   -0.001  0.002 -0.005
 H         -0.002 -0.004  0.009    0.002  0.003 -0.006    0.005  0.010 -0.022
 H          0.001 -0.001 -0.001   -0.000 -0.000 -0.000    0.001 -0.002 -0.002
 C         -0.009 -0.010  0.012   -0.003 -0.004  0.005   -0.001 -0.001  0.001
 H          0.131  0.030 -0.049    0.052  0.012 -0.019    0.014  0.003 -0.005
 H         -0.013  0.101 -0.083   -0.005  0.038 -0.031   -0.001  0.010 -0.008
 H         -0.011 -0.007 -0.011   -0.005 -0.003 -0.004   -0.002 -0.001 -0.002
 C          0.032 -0.008 -0.028   -0.044  0.023  0.064   -0.073 -0.036 -0.040
 H         -0.289 -0.122  0.144    0.464  0.199 -0.229    0.415  0.168 -0.229
 H          0.008 -0.002 -0.006   -0.154 -0.027 -0.133    0.551  0.118  0.569
 H         -0.102  0.219  0.202    0.215 -0.448 -0.414   -0.093  0.153  0.145
 TransDip  -0.084 -0.063  0.065   -0.125 -0.025  0.115   -0.134 -0.051 -0.001

 Mode:                94                     95                     96
 Frequency:      3118.47                3122.25                3123.43
 Force Cnst:      6.2431                 6.3580                 6.3637
 Red. Mass:       1.0896                 1.1070                 1.1071
 IR Active:          YES                    YES                    YES
 IR Intens:       26.080                 20.482                 13.838
 Raman Active:       YES                    YES                    YES
               X      Y      Z        X      Y      Z        X      Y      Z
 C          0.007 -0.026 -0.068    0.000  0.000 -0.000   -0.000  0.000  0.000
 C         -0.002  0.004 -0.011   -0.000  0.000 -0.000    0.000 -0.000  0.000
 C          0.001 -0.001 -0.001   -0.000 -0.000  0.000    0.000  0.000  0.000
 C          0.000  0.000 -0.000    0.000  0.000 -0.000   -0.000 -0.000 -0.000
 O         -0.000  0.000  0.000   -0.000 -0.000  0.000   -0.000 -0.000  0.000
 O          0.000  0.000  0.001   -0.000 -0.000  0.000   -0.000 -0.000 -0.000
 O         -0.000 -0.000  0.000   -0.000 -0.000  0.000   -0.000  0.000 -0.000
 O         -0.000  0.000  0.000   -0.000 -0.000  0.000    0.000  0.000 -0.000
 C          0.000 -0.001  0.001   -0.004  0.009 -0.005    0.032 -0.075  0.048
 C         -0.001 -0.000  0.000    0.048  0.067 -0.046    0.006  0.008 -0.005
 C          0.000 -0.001 -0.001   -0.000 -0.000  0.000    0.000  0.000 -0.000
 C          0.018  0.002 -0.026    0.000 -0.000 -0.000   -0.000  0.000  0.000
 C          0.014  0.005 -0.018    0.000  0.000 -0.000   -0.000 -0.000  0.000
 C         -0.000  0.001 -0.001    0.000  0.000 -0.000    0.000 -0.000  0.000
 O         -0.000  0.000  0.001    0.000 -0.000  0.000   -0.000  0.000 -0.000
 H         -0.087  0.301  0.811   -0.001  0.001  0.004    0.001 -0.002 -0.006
 H          0.019 -0.041  0.132    0.000 -0.001  0.002   -0.000  0.001 -0.001
 H         -0.001  0.006  0.000    0.021 -0.080 -0.004   -0.183  0.681  0.035
 H          0.007  0.008  0.001   -0.414 -0.563 -0.094   -0.047 -0.064 -0.011
 H         -0.140 -0.118  0.068   -0.000 -0.000  0.000    0.000  0.000 -0.000
 H         -0.078  0.094  0.246   -0.000  0.000  0.001    0.000 -0.000 -0.001
 H         -0.161  0.016  0.055   -0.002  0.000  0.001    0.001 -0.000 -0.000
 H         -0.009 -0.074  0.158   -0.000 -0.001  0.002    0.000  0.001 -0.002
 H          0.001 -0.000 -0.001    0.005  0.000 -0.006   -0.025 -0.008  0.037
 H         -0.001  0.002 -0.006    0.019 -0.024  0.071   -0.169  0.214 -0.634
 H          0.001  0.000 -0.001   -0.140 -0.273  0.619   -0.016 -0.032  0.072
 H          0.002 -0.004 -0.004   -0.009  0.043  0.018   -0.002  0.007  0.004
 C          0.002  0.002 -0.002    0.000  0.000 -0.000   -0.000 -0.000  0.000
 H         -0.026 -0.006  0.010   -0.001 -0.000  0.001    0.001  0.000 -0.000
 H          0.003 -0.020  0.016    0.000 -0.001  0.001   -0.000  0.002 -0.002
 H          0.001  0.001  0.001    0.000  0.000 -0.000   -0.000 -0.000 -0.000
 C         -0.006 -0.010 -0.015   -0.003 -0.001 -0.001    0.000  0.000  0.000
 H          0.013  0.004 -0.010    0.020  0.008 -0.011   -0.003 -0.001  0.001
 H          0.109  0.022  0.110    0.018  0.004  0.019   -0.003 -0.001 -0.003
 H         -0.046  0.091  0.083   -0.000 -0.002 -0.002    0.000 -0.001 -0.001
 TransDip   0.048 -0.031 -0.153    0.067  0.105 -0.074    0.039 -0.100  0.051

 Mode:                97                     98                     99
 Frequency:      3152.50                3156.30                3165.08
 Force Cnst:      6.4790                 6.4924                 6.4715
 Red. Mass:       1.1065                 1.1061                 1.0964
 IR Active:          YES                    YES                    YES
 IR Intens:       14.043                 14.375                  2.118
 Raman Active:       YES                    YES                    YES
               X      Y      Z        X      Y      Z        X      Y      Z
 C         -0.000  0.000  0.000    0.000  0.000 -0.000    0.000 -0.000 -0.000
 C          0.000 -0.000 -0.000   -0.000  0.000 -0.000    0.000 -0.000 -0.000
 C         -0.000  0.000  0.000   -0.001 -0.000 -0.001    0.000 -0.000 -0.000
 C          0.000  0.001  0.001   -0.000  0.000 -0.000    0.000 -0.000 -0.000
 O          0.000 -0.000 -0.000   -0.000  0.000  0.000   -0.000  0.000 -0.000
 O         -0.000 -0.000 -0.000    0.000  0.000  0.000    0.000  0.000  0.000
 O          0.000 -0.000 -0.000    0.000 -0.000  0.000   -0.000  0.000  0.000
 O         -0.000 -0.000 -0.000    0.000 -0.000  0.000   -0.001 -0.000  0.000
 C         -0.053  0.025  0.075    0.000  0.000 -0.001    0.000 -0.000 -0.000
 C         -0.000 -0.001 -0.000    0.019 -0.062 -0.069    0.000 -0.000 -0.000
 C          0.000  0.000  0.000   -0.000 -0.000  0.000    0.000 -0.000 -0.000
 C         -0.000  0.000  0.000    0.000 -0.000 -0.000   -0.000  0.000 -0.000
 C         -0.000 -0.000  0.000   -0.000  0.000 -0.000   -0.001  0.000  0.001
 C          0.000  0.000  0.000   -0.000  0.000 -0.000   -0.001  0.000 -0.001
 O         -0.000 -0.000 -0.000    0.000  0.000  0.000    0.000 -0.000  0.000
 H          0.000 -0.001 -0.002    0.000  0.000  0.002   -0.000  0.001  0.002
 H         -0.000 -0.000 -0.001    0.000 -0.000  0.000   -0.000 -0.001  0.003
 H          0.067 -0.279  0.007    0.000 -0.001 -0.000   -0.000  0.002 -0.000
 H          0.003  0.004  0.001    0.200  0.258  0.023    0.000  0.000  0.000
 H         -0.000 -0.000  0.000    0.000  0.000 -0.000    0.000  0.000 -0.000
 H          0.000 -0.000 -0.001   -0.000  0.000  0.001   -0.000  0.000  0.002
 H          0.000 -0.000 -0.000    0.000 -0.000 -0.000    0.011  0.000 -0.003
 H          0.000  0.000 -0.000   -0.000 -0.000  0.000    0.000  0.002 -0.005
 H          0.650 -0.142 -0.589   -0.003  0.001  0.003   -0.003  0.001  0.002
 H         -0.099  0.124 -0.308    0.001 -0.001  0.003    0.000 -0.000  0.001
 H          0.000  0.000 -0.001   -0.059 -0.129  0.238   -0.000 -0.000  0.000
 H         -0.002  0.003  0.003   -0.367  0.599  0.559   -0.000  0.001  0.001
 C         -0.000  0.000 -0.000    0.000  0.000  0.000   -0.063 -0.015 -0.063
 H         -0.000 -0.000  0.000    0.000  0.000 -0.000    0.199  0.053 -0.086
 H          0.000 -0.001  0.001   -0.000  0.000 -0.000    0.004 -0.151  0.114
 H          0.003  0.001  0.003   -0.001 -0.000 -0.001    0.559  0.274  0.720
 C         -0.000  0.000  0.000   -0.000 -0.000 -0.000   -0.000 -0.000 -0.000
 H         -0.000 -0.000  0.000    0.001  0.001 -0.001    0.000  0.000 -0.000
 H         -0.000  0.000 -0.000    0.001  0.000  0.002    0.001  0.000  0.001
 H          0.000 -0.000 -0.000   -0.000  0.001  0.001   -0.000  0.001  0.000
 TransDip  -0.083  0.021  0.084    0.045 -0.084 -0.076   -0.023 -0.005 -0.040

 STANDARD THERMODYNAMIC QUANTITIES AT   298.15 K  AND     1.00 ATM

   This Molecule has  0 Imaginary Frequencies
   Zero point vibrational energy:      183.654 kcal/mol

   Atom    1 Element C  Has Mass   12.00000
   Atom    2 Element C  Has Mass   12.00000
   Atom    3 Element C  Has Mass   12.00000
   Atom    4 Element C  Has Mass   12.00000
   Atom    5 Element O  Has Mass   15.99491
   Atom    6 Element O  Has Mass   15.99491
   Atom    7 Element O  Has Mass   15.99491
   Atom    8 Element O  Has Mass   15.99491
   Atom    9 Element C  Has Mass   12.00000
   Atom   10 Element C  Has Mass   12.00000
   Atom   11 Element C  Has Mass   12.00000
   Atom   12 Element C  Has Mass   12.00000
   Atom   13 Element C  Has Mass   12.00000
   Atom   14 Element C  Has Mass   12.00000
   Atom   15 Element O  Has Mass   15.99491
   Atom   16 Element H  Has Mass    1.00783
   Atom   17 Element H  Has Mass    1.00783
   Atom   18 Element H  Has Mass    1.00783
   Atom   19 Element H  Has Mass    1.00783
   Atom   20 Element H  Has Mass    1.00783
   Atom   21 Element H  Has Mass    1.00783
   Atom   22 Element H  Has Mass    1.00783
   Atom   23 Element H  Has Mass    1.00783
   Atom   24 Element H  Has Mass    1.00783
   Atom   25 Element H  Has Mass    1.00783
   Atom   26 Element H  Has Mass    1.00783
   Atom   27 Element H  Has Mass    1.00783
   Atom   28 Element C  Has Mass   12.00000
   Atom   29 Element H  Has Mass    1.00783
   Atom   30 Element H  Has Mass    1.00783
   Atom   31 Element H  Has Mass    1.00783
   Atom   32 Element C  Has Mass   12.00000
   Atom   33 Element H  Has Mass    1.00783
   Atom   34 Element H  Has Mass    1.00783
   Atom   35 Element H  Has Mass    1.00783
   Molecular Mass:   242.115490 amu
   Principal axes and moments of inertia in amu*Bohr^2:
                             1           2           3
    Eigenvalues --     2977.11741  3617.55135  5614.24312
          X               0.99992    -0.01143     0.00566
          Y               0.01146     0.99992    -0.00481
          Z              -0.00561     0.00487     0.99997
   Rotational Symmetry Number is   1
   The Molecule is an Asymmetric Top
   Translational Enthalpy:        0.889 kcal/mol
   Rotational Enthalpy:           0.889 kcal/mol
   Vibrational Enthalpy:        192.707 kcal/mol
   gas constant (RT):             0.592 kcal/mol
   Translational Entropy:        42.354  cal/mol.K
   Rotational Entropy:           32.469  cal/mol.K
   Vibrational Entropy:          58.056  cal/mol.K

   Total Enthalpy:              195.077 kcal/mol
   Total Entropy:               132.879  cal/mol.K
Archival summary:
1\1\nid04264\FREQ\ProcedureUnspecified\BasisUnspecified\51218\junteng\WedOct422:45:252017WedOct422:45:252017\0\\#,FREQ,ProcedureUnspecified,BasisUnspecified,\\0,1\O\C,1,1.43128\C,1,1.44201,2,99.1093\C,2,1.5129,1,110.844,3,179.435,0\H,4,1.09143,2,110.821,1,57.0068,0\H,4,1.09186,2,109.66,1,-62.4891,0\H,4,1.0929,2,110.563,1,177.798,0\C,3,1.51339,1,110.766,2,-176.268,0\H,8,1.08664,3,111.139,1,-55.4282,0\H,8,1.09261,3,109.191,1,65.5999,0\H,8,1.09344,3,110.316,1,-175.363,0\C,2,1.54963,1,102.581,3,55.199,0\H,12,1.0917,2,112.552,1,-155.661,0\H,12,1.09189,2,109.564,1,84.3053,0\C,12,1.54968,2,101.433,1,-33.5534,0\H,15,1.0912,12,111.239,2,117.334,0\H,15,1.09195,12,113.704,2,-120.753,0\C,3,1.56373,1,102.105,2,55.7811,0\H,18,1.09298,3,110.066,1,-148.154,0\C,18,1.52253,3,117.884,1,92.1304,0\O,20,1.20179,18,128.218,3,2.81701,0\O,20,1.3568,18,108.571,3,179.755,0\C,22,1.43912,20,115.755,18,174.646,0\H,23,1.08806,22,105.48,20,-179.279,0\H,23,1.09097,22,110.73,20,61.0942,0\H,23,1.09117,22,109.85,20,-59.9073,0\C,18,1.56728,3,101.726,1,-33.2222,0\H,27,1.0884,18,111.643,3,-117.272,0\C,27,1.51188,18,115.438,3,119.603,0\O,29,1.20569,27,126.478,18,-39.0337,0\O,29,1.35294,27,110.206,18,143.835,0\C,31,1.43947,29,115.907,27,176.727,0\H,32,1.08777,31,105.478,29,177.792,0\H,32,1.09088,31,110.45,29,58.1869,0\H,32,1.09127,31,110.48,29,-62.6683,0\\\@

 Total job time:  14233.70s(wall), 84624.50s(cpu) 
 Wed Oct  4 22:45:25 2017

        *************************************************************
        *                                                           *
        *  Thank you very much for using Q-Chem.  Have a nice day.  *
        *                                                           *
        *************************************************************


