nid04253 10.128.16
Q-Chem Developer Version! Running on 10.128.16.*
                  Welcome to Q-Chem
     A Quantum Leap Into The Future Of Chemistry


 Q-Chem 5.0, Q-Chem, Inc., Pleasanton, CA (2017)

 Yihan Shao,  Zhengting Gan,  E. Epifanovsky,  A. T. B. Gilbert,  M. Wormit,  
 J. Kussmann,  A. W. Lange,  A. Behn,  Jia Deng,  Xintian Feng,  D. Ghosh,  
 M. Goldey,  P. R. Horn,  L. D. Jacobson,  I. Kaliman,  T. Kus,  A. Landau,  
 Jie Liu,  E. I. Proynov,  R. M. Richard,  R. P. Steele,  E. J. Sundstrom,  
 H. L. Woodcock III,  P. M. Zimmerman,  D. Zuev,  B. Albrecht,  E. Alguire,  
 S. A. Baeppler,  Z. Benda,  Y. A. Bernard,  E. J. Berquist,  K. B. Bravaya,  
 D. Casanova,  Chun-Min Chang,  Yunqing Chen,  A. Chien,  K. D. Closser,  
 M. P. Coons,  S. Dasgupta,  M. Diedenhofen,  Hainam Do,  R. G. Edgar,  
 Po-Tung Fang,  S. Fatehi,  Qingguo Feng,  Qinghui Ge,  A. Ghysels,  
 J. Gomes,  J. Gonthier,  A. Gunina,  M. W. D. Hanson-Heine,  
 P. H. P. Harbach,  A. W. Hauser,  J. E. Herr,  E. G. Hohenstein,  
 Z. C. Holden,  Kerwin Hui,  T.-C. Jagau,  Hyunjun Ji,  B. Kaduk,  
 K. Khistyaev,  Jaehoon Kim,  P. Klunzinger,  K. Koh,  D. Kosenkov,  
 T. Kowalczyk,  C. M. Krauter,  A. Kunitsa,  Ka Un Lao,  A. Laurent,  
 K. V. Lawler,  Joonho Lee,  D. Lefrancois,  S. Lehtola,  D. S. Levine,  
 Yi-Pei Li,  You-Sheng Lin,  Fenglai Liu,  E. Livshits,  A. Luenser,  
 P. Manohar,  E. Mansoor,  S. F. Manzer,  Shan-Ping Mao,  Yuezhi Mao,  
 N. Mardirossian,  A. V. Marenich,  L. A. Martinez-Martinez,  S. A. Maurer,  
 N. J. Mayhall,  S. C. McKenzie,  J.-M. Mewes,  A. F. Morrison,  K. Nanda,  
 T. S. Nguyen-Beck,  R. Olivares-Amaya,  J. A. Parkhill,  T. M. Perrine,  
 F. Plasser,  S. Prager,  A. Prociuk,  D. R. Rehn,  F. Rob,  M. Schneider,  
 N. Sergueev,  S. M. Sharada,  S. Sharma,  D. W. Small,  T. Stauch,  
 T. Stein,  Yu-Chuan Su,  A. J. W. Thom,  T. Tsuchimochi,  L. Vogt,  
 O. Vydrov,  M. A. Watson,  J. Wenzel,  M. de Wergifosse,  T. A. Wesolowski,  
 A. White,  J. Witte,  A. Yamada,  Jun Yang,  K. Yao,  S. Yeganeh,  
 S. R. Yost,  Zhi-Qiang You,  A. Zech,  Igor Ying Zhang,  Xing Zhang,  
 Yan Zhao,  Ying Zhu,  B. R. Brooks,  G. K. L. Chan,  C. J. Cramer,  
 M. S. Gordon,  W. J. Hehre,  A. Klamt,  M. W. Schmidt,  C. D. Sherrill,  
 D. G. Truhlar,  A. Aspuru-Guzik,  R. Baer,  A. T. Bell,  N. A. Besley,  
 Jeng-Da Chai,  A. Dreuw,  B. D. Dunietz,  T. R. Furlani,  Chao-Ping Hsu,  
 Yousung Jung,  Jing Kong,  D. S. Lambrecht,  WanZhen Liang,  C. Ochsenfeld,  
 V. A. Rassolov,  L. V. Slipchenko,  J. E. Subotnik,  T. Van Voorhis,  
 J. M. Herbert,  A. I. Krylov,  P. M. W. Gill,  M. Head-Gordon

 Contributors to earlier versions of Q-Chem not listed above: 
 R. D. Adamson,  B. Austin,  J. Baker,  G. J. O. Beran,  K. Brandhorst,  
 S. T. Brown,  E. F. C. Byrd,  A. K. Chakraborty,  C.-L. Cheng,  
 Siu Hung Chien,  D. M. Chipman,  D. L. Crittenden,  H. Dachsel,  
 R. A. DiStasio Jr.,  R. J. Doerksen,  A. D. Dutoi,  L. Fusti-Molnar,  
 W. A. Goddard III,  A. Golubeva-Zadorozhnaya,  S. R. Gwaltney,  G. Hawkins,  
 A. Heyden,  S. Hirata,  G. Kedziora,  F. J. Keil,  C. Kelley,  Jihan Kim,  
 R. A. King,  R. Z. Khaliullin,  P. P. Korambath,  W. Kurlancheek,  
 A. M. Lee,  M. S. Lee,  S. V. Levchenko,  Ching Yeh Lin,  D. Liotard,  
 R. C. Lochan,  I. Lotan,  P. E. Maslen,  N. Nair,  D. P. O'Neill,  
 D. Neuhauser,  E. Neuscamman,  C. M. Oana,  R. Olson,  B. Peters,  
 R. Peverati,  P. A. Pieniazek,  Y. M. Rhee,  J. Ritchie,  M. A. Rohrdanz,  
 E. Rosta,  N. J. Russ,  H. F. Schaefer III,  N. E. Schultz,  N. Shenvi,  
 A. C. Simmonett,  A. Sodt,  D. Stuck,  K. S. Thanthiriwatte,  V. Vanovschi,  
 Tao Wang,  A. Warshel,  C. F. Williams,  Q. Wu,  X. Xu,  W. Zhang

 Please cite Q-Chem as follows:
 Y. Shao et al., Mol. Phys. 113, 184-215 (2015)
 DOI: 10.1080/00268976.2014.952696

 Q-Chem 5.0.0 for Intel X86 EM64T Linux

 Parts of Q-Chem use Armadillo 5.200.1 (Boston Tea Smuggler).
 http://arma.sourceforge.net/

 Q-Chem begins on Wed Oct  4 17:59:30 2017  

Host: nid04253
0

     Scratch files written to /global/cscratch1/sd/junteng/scratch/15/opt_1111--.save//

Checking the input file for inconsistencies... 	...done.

--------------------------------------------------------------
User input:
--------------------------------------------------------------
$molecule
0  1
C    0.579  -1.978   0.499
C   -0.345  -1.987   1.740
C    0.941  -0.610  -0.048
C   -0.562  -0.630   2.386
O    2.215  -0.645  -0.542
O    0.210   0.366  -0.087
O    0.648  -0.161   2.826
O   -1.631  -0.088   2.617
C    0.572   1.116   3.461
C    2.652   0.593  -1.106
C   -0.242  -2.782  -0.524
C   -0.292  -4.259  -0.098
C   -1.265  -4.223   1.081
C   -1.594  -2.718   1.188
O   -1.591  -2.362  -0.216
H    1.516  -2.494   0.747
H    0.090  -2.606   2.538
H   -0.024   1.052   4.377
H    2.622   1.389  -0.356
H   -0.708  -4.895  -0.888
H    0.690  -4.657   0.174
H   -2.154  -4.811   0.825
H   -0.840  -4.639   1.999
H    1.587   1.422   3.729
H    0.156   1.863   2.777
H    2.039   0.852  -1.975
H    3.687   0.467  -1.436
C   -2.945  -2.478   1.828
H   -3.699  -3.155   1.411
H   -2.911  -2.635   2.910
H   -3.320  -1.473   1.614
C    0.085  -2.603  -1.994
H   -0.579  -3.214  -2.616
H   -0.074  -1.570  -2.320
H    1.119  -2.890  -2.210
$end


$opt
CONSTRAINT
tors    2    1    3    5    142.3
tors    1    2    4    7    -69.6
ENDCONSTRAINT
$end

$rem
JOBTYPE                   OPT
METHOD                    B3LYP
DFT_D                     D3_OP
BASIS                     STO-3G
GEOM_OPT_MAX_CYCLES       500
SYMMETRY                  False
THRESH                    12
SCF_CONVERGENCE           8
MAX_SUB_FILE_NUM          128
MEM_STATIC                400
MEM_TOTAL                 4000
$end

--------------------------------------------------------------
 Adding empirical dispersion correction 
 ----------------------------------------------------------------
 Doing -D3(op) with
 s6 =   1.00000
 s8 =   0.78311
 a1 =   0.30000
 a2 =   4.25000
 n  =  10.00000
 -D3 energy without 3body term =     -0.0411703493 hartrees
 ----------------------------------------------------------------
             Standard Nuclear Orientation (Angstroms)
    I     Atom           X                Y                Z
 ----------------------------------------------------------------
    1      C       0.0405485511     0.6575719166     0.6279970458
    2      C       0.4485580788    -0.8348816956     0.6210370951
    3      C      -1.2236982091     1.0027230799    -0.1363509142
    4      C      -0.5983616521    -1.7818052351     0.0614400192
    5      O      -1.8727982861     2.0215992616     0.5030999569
    6      O      -1.5961984503     0.4914952944    -1.1795899671
    7      O      -1.7171432315    -1.7052423029     0.8489213808
    8      O      -0.4521119641    -2.5882506495    -0.8430724586
    9      C      -2.7784272181    -2.5607562126     0.4228905721
   10      C      -3.0723596472     2.4436939349    -0.1485116050
   11      C       1.2695511140     1.3340043222    -0.0036499292
   12      C       2.4565832498     1.2598809157     0.9715246343
   13      C       2.8623527980    -0.2112841170     0.8761804153
   14      C       1.8144140588    -0.7767714946    -0.1070608698
   15      O       1.6672726917     0.3585939812    -0.9943351534
   16      H      -0.1006442077     0.9849117819     1.6665740614
   17      H       0.6216642017    -1.1903109685     1.6471434747
   18      H      -2.4797608129    -3.6105469360     0.5071865717
   19      H      -3.7802435395     1.6131239838    -0.2264214976
   20      H       3.2933331402     1.8856898890     0.6400661152
   21      H       2.1911460006     1.5619689502     1.9888730929
   22      H       3.8755559769    -0.2734341450     0.4624683269
   23      H       2.8636012425    -0.7181800102     1.8454378604
   24      H      -3.6353600821    -2.3906923623     1.0804841802
   25      H      -3.0783059100    -2.3222438675    -0.6028314328
   26      H      -2.8433670294     2.8555358485    -1.1364182905
   27      H      -3.5276066382     3.2308286629     0.4590820891
   28      C       2.3256610058    -2.0007489527    -0.8370654871
   29      H       3.3506780532    -1.8430305545    -1.1909001368
   30      H       2.3227728949    -2.8841446677    -0.1919820277
   31      H       1.7440132593    -2.2037087567    -1.7409123862
   32      C       1.0880301320     2.7130571330    -0.6079126850
   33      H       2.0289460417     3.0747186755    -1.0380047444
   34      H       0.3716132743     2.6999266795    -1.4356931372
   35      H       0.7526844869     3.4359215512     0.1425480610
 ----------------------------------------------------------------
 Molecular Point Group                 C1    NOp =  1
 Largest Abelian Subgroup              C1    NOp =  1
 Nuclear Repulsion Energy =  1395.7531872986 hartrees
 There are       65 alpha and       65 beta electrons
 Requested basis set is STO-3G
 There are 52 shells and 103 basis functions

 Total QAlloc Memory Limit   4000 MB
 Mega-Array Size       392 MB
 MEM_STATIC part       400 MB
 A cutoff of  1.0D-12 yielded   1204 shell pairs
 There are      5194 function pairs
 
 -------------------------------------------------------
 OpenMP Integral Computing Module                       
 Release: version 1.0, May 2013, Q-Chem Inc. Pittsburgh 
 -------------------------------------------------------
 Integral Job Info:
 Integral job number is                      11
 Integral operator is                         1
 short-range coefficients                     0
 long-range coefficients              100000000
 Omega coefficients                           0
 if combine SR and LR in K                    0
 Integral screening is                        0
 Integral computing path is                   2
 max size of driver memory is            800000
 size of driver memory is                 45569
 size of scratch memory is               945100
 max col of scratch BK array                289
 max len of scratch array in speh3           22
 max len of scratch index in speh4            8
 max int batch size is                      520
 min int batch size is                       52
 fixed nKL is                                52
 max L of basis functions is                  1
 order of int derivative is                   0
 number of shells is                         52
 number of basis is                         103
 number of cartesian basis is               103
 number of contracted shell pairs          1204
 number of primitive shell pairs           6556
 maxK2 (contraction) of shell pair            9
 max number of K2 of shell pair               1
 max number of CS2 of shell pair            185
 max number of PS2 of shell pair            828
 mem total for path MDJ                   33898
 -------------------------------------------------------
 Smallest overlap matrix eigenvalue = 1.95E-01

 Scale SEOQF with 1.000000e-01/1.000000e-01/1.000000e-01

 Standard Electronic Orientation quadrupole field applied
 Nucleus-field energy     =     0.0000000384 hartrees
 Guess from superposition of atomic densities
 Warning:  Energy on first SCF cycle will be non-variational
 A restricted hybrid HF-DFT SCF calculation will be
 performed using Pulay DIIS extrapolation
 Exchange:     0.2000 Hartree-Fock + 0.0800 Slater + 0.7200 B88
 Correlation:  0.1900 VWN1RPA + 0.8100 LYP
 Using SG-1 standard quadrature grid
 Dispersion:   Grimme D3
 SCF converges when DIIS error is below 1.0E-08
 -------------------------------------------------------
 OpenMP Integral computing Module                
 Release: version 1.0, May 2013, Q-Chem Inc. Pittsburgh 
 -------------------------------------------------------
 -------------------------------------------------------
 OpenMP BLAS3 based DFT computing Module                
 Release: version 1.0, May 2013, Q-Chem Inc. Pittsburgh 
 -------------------------------------------------------
 ---------------------------------------
  Cycle       Energy         DIIS Error
 ---------------------------------------
    1    -832.4613427662      1.05E-01
    2    -833.1370762580      1.27E-02
    3    -832.1370895692      3.08E-02
    4    -833.3782765538      4.55E-03
    5    -833.4066960607      1.46E-03
    6    -833.4098473704      2.71E-04
    7    -833.4099544728      7.62E-05
    8    -833.4099606041      4.17E-05
    9    -833.4099632398      4.63E-06
   10    -833.4099632746      1.22E-06
   11    -833.4099632769      3.03E-07
   12    -833.4099632770      8.71E-08
   13    -833.4099632770      1.56E-08
   14    -833.4099632771      3.41E-09 Convergence criterion met
 ---------------------------------------
 SCF time:  CPU 137.40 s  wall 7.06 s
 SCF   energy in the final basis set = -833.4099632771
 Total energy in the final basis set = -833.4099632771
 
 --------------------------------------------------------------
 
                    Orbital Energies (a.u.)
 --------------------------------------------------------------
 
 Alpha MOs
 -- Occupied --
-18.942 -18.934 -18.865 -18.864 -18.861 -10.107 -10.103 -10.074
-10.068 -10.064 -10.060 -10.030 -10.029 -10.013 -10.007 -10.005
-10.002  -1.042  -1.034  -0.985  -0.951  -0.945  -0.773  -0.753
 -0.733  -0.690  -0.680  -0.671  -0.624  -0.593  -0.545  -0.520
 -0.491  -0.482  -0.466  -0.447  -0.439  -0.429  -0.428  -0.422
 -0.411  -0.391  -0.387  -0.379  -0.371  -0.369  -0.364  -0.345
 -0.341  -0.334  -0.309  -0.305  -0.304  -0.292  -0.287  -0.281
 -0.271  -0.247  -0.241  -0.214  -0.181  -0.175  -0.151  -0.141
 -0.130
 -- Virtual --
  0.111   0.129   0.243   0.280   0.295   0.311   0.331   0.354
  0.372   0.379   0.388   0.400   0.403   0.413   0.419   0.432
  0.439   0.444   0.449   0.451   0.456   0.457   0.463   0.467
  0.475   0.480   0.487   0.492   0.498   0.506   0.510   0.513
  0.537   0.546   0.583   0.586   0.707   0.709
 --------------------------------------------------------------
 
          Ground-State Mulliken Net Atomic Charges

     Atom                 Charge (a.u.)
  ----------------------------------------
      1 C                    -0.084595
      2 C                    -0.084928
      3 C                     0.236932
      4 C                     0.238677
      5 O                    -0.187608
      6 O                    -0.231157
      7 O                    -0.194162
      8 O                    -0.225991
      9 C                    -0.126414
     10 C                    -0.126312
     11 C                     0.111091
     12 C                    -0.148495
     13 C                    -0.147098
     14 C                     0.111557
     15 O                    -0.214092
     16 H                     0.087026
     17 H                     0.085427
     18 H                     0.091170
     19 H                     0.093535
     20 H                     0.075293
     21 H                     0.069960
     22 H                     0.075299
     23 H                     0.068530
     24 H                     0.092479
     25 H                     0.096380
     26 H                     0.092817
     27 H                     0.095226
     28 C                    -0.230291
     29 H                     0.078853
     30 H                     0.081177
     31 H                     0.098540
     32 C                    -0.231645
     33 H                     0.084746
     34 H                     0.083765
     35 H                     0.084309
  ----------------------------------------
  Sum of atomic charges =    -0.000000

 -----------------------------------------------------------------
                    Cartesian Multipole Moments
 -----------------------------------------------------------------
    Charge (ESU x 10^10)
                 0.0000
    Dipole Moment (Debye)
         X      -0.8782      Y       1.1630      Z       2.3527
       Tot       2.7675
    Quadrupole Moments (Debye-Ang)
        XX     -83.8071     XY      -0.7113     YY     -88.8934
        XZ       0.9767     YZ      -3.9015     ZZ     -96.9292
    Octopole Moments (Debye-Ang^2)
       XXX     -46.3966    XXY      -1.7284    XYY     -21.3534
       YYY       5.1219    XXZ      -0.4018    XYZ       3.8207
       YYZ       2.3429    XZZ      -3.9993    YZZ      -0.3880
       ZZZ      -3.3241
    Hexadecapole Moments (Debye-Ang^3)
      XXXX   -2091.2066   XXXY      -6.0688   XXYY    -600.9185
      XYYY      -2.1704   YYYY   -1803.7757   XXXZ     -28.9029
      XXYZ      -4.3762   XYYZ      -7.7605   YYYZ     -36.1812
      XXZZ    -448.9289   XYZZ      -3.9821   YYZZ    -373.8865
      XZZZ      -5.3102   YZZZ       4.7161   ZZZZ    -389.6427
 -----------------------------------------------------------------
 Calculating analytic gradient of the SCF energy
 Gradient of SCF Energy
            1           2           3           4           5           6
    1   0.0068753  -0.0046877  -0.0166998  -0.0197001  -0.0083837   0.0221746
    2  -0.0061405   0.0027730   0.0136587  -0.0050542  -0.0333299   0.0277086
    3  -0.0439619  -0.0259477  -0.0049261   0.0059897  -0.0526228   0.0536548
            7           8           9          10          11          12
    1   0.0189254  -0.0015472   0.0137487   0.0155365  -0.0147881  -0.0140183
    2  -0.0354658   0.0374925   0.0122788  -0.0053058  -0.0088645  -0.0163340
    3  -0.0479698   0.0469183   0.0073292   0.0104380   0.0044710  -0.0276032
           13          14          15          16          17          18
    1  -0.0188788  -0.0134132   0.0002181   0.0010425   0.0008687  -0.0002796
    2   0.0098466   0.0013371  -0.0017583  -0.0047971  -0.0026952   0.0134481
    3  -0.0239240   0.0041002   0.0591838  -0.0036425  -0.0066526   0.0045960
           19          20          21          22          23          24
    1   0.0096437   0.0015668   0.0018289  -0.0016174   0.0000789   0.0064180
    2   0.0080000  -0.0065480  -0.0026222   0.0062579   0.0036352  -0.0035888
    3   0.0068064   0.0026614  -0.0056205   0.0037838  -0.0055836  -0.0080883
           25          26          27          28          29          30
    1   0.0035522   0.0029766   0.0019587  -0.0076661  -0.0055637   0.0022017
    2   0.0031584  -0.0020146  -0.0071906   0.0172553  -0.0035201   0.0034711
    3   0.0127123   0.0138624  -0.0075342   0.0224771  -0.0038969  -0.0029576
           31          32          33          34          35
    1   0.0094985   0.0042312  -0.0054129   0.0069380   0.0023733
    2   0.0036308  -0.0187618   0.0004390   0.0011666  -0.0015662
    3  -0.0003602   0.0173100  -0.0021302   0.0011114  -0.0039838
 Max gradient component =       5.918E-02
 RMS gradient           =       1.675E-02
 Gradient time:  CPU 25.68 s  wall 1.19 s
 Geometry Optimization Parameters
   NAtoms,    NIC,     NZ,  NCons,   NDum,   NFix, NCnnct, MaxDiis
       35     275       0       2       0       0       0       0


** CONSTRAINED OPTIMIZATION IN DELOCALIZED INTERNAL COORDINATES **
   Searching for a Minimum

   Optimization Cycle:   1

                       Coordinates (Angstroms)
     ATOM                X               Y               Z
      1  C         0.0405485511    0.6575719166    0.6279970458
      2  C         0.4485580788   -0.8348816956    0.6210370951
      3  C        -1.2236982091    1.0027230799   -0.1363509142
      4  C        -0.5983616521   -1.7818052351    0.0614400192
      5  O        -1.8727982861    2.0215992616    0.5030999569
      6  O        -1.5961984503    0.4914952944   -1.1795899671
      7  O        -1.7171432315   -1.7052423029    0.8489213808
      8  O        -0.4521119641   -2.5882506495   -0.8430724586
      9  C        -2.7784272181   -2.5607562126    0.4228905721
     10  C        -3.0723596472    2.4436939349   -0.1485116050
     11  C         1.2695511140    1.3340043222   -0.0036499292
     12  C         2.4565832498    1.2598809157    0.9715246343
     13  C         2.8623527980   -0.2112841170    0.8761804153
     14  C         1.8144140588   -0.7767714946   -0.1070608698
     15  O         1.6672726917    0.3585939812   -0.9943351534
     16  H        -0.1006442077    0.9849117819    1.6665740614
     17  H         0.6216642017   -1.1903109685    1.6471434747
     18  H        -2.4797608129   -3.6105469360    0.5071865717
     19  H        -3.7802435395    1.6131239838   -0.2264214976
     20  H         3.2933331402    1.8856898890    0.6400661152
     21  H         2.1911460006    1.5619689502    1.9888730929
     22  H         3.8755559769   -0.2734341450    0.4624683269
     23  H         2.8636012425   -0.7181800102    1.8454378604
     24  H        -3.6353600821   -2.3906923623    1.0804841802
     25  H        -3.0783059100   -2.3222438675   -0.6028314328
     26  H        -2.8433670294    2.8555358485   -1.1364182905
     27  H        -3.5276066382    3.2308286629    0.4590820891
     28  C         2.3256610058   -2.0007489527   -0.8370654871
     29  H         3.3506780532   -1.8430305545   -1.1909001368
     30  H         2.3227728949   -2.8841446677   -0.1919820277
     31  H         1.7440132593   -2.2037087567   -1.7409123862
     32  C         1.0880301320    2.7130571330   -0.6079126850
     33  H         2.0289460417    3.0747186755   -1.0380047444
     34  H         0.3716132743    2.6999266795   -1.4356931372
     35  H         0.7526844869    3.4359215512    0.1425480610
   Point Group: c1    Number of degrees of freedom:    99


   Energy is   -833.409963277

              Constraints and their Current Values
                                        Value     Constraint
   Dihedral:        2   1   3   5      145.794      142.300
   Dihedral:        1   2   4   7      -61.913      -69.600

 Attempting to Generate Delocalized Internal Coordinates

   Using Lagrange Multiplier Algorithm


101 Hessian modes will be used to form the next step
  Hessian Eigenvalues:
    -0.977753   -0.977753    0.045000    0.045000    0.045000    0.045000
     0.045000    0.045000    0.045023    0.045263    0.045502    0.048606
     0.060298    0.061777    0.067925    0.070278    0.071449    0.071695
     0.075522    0.076606    0.078244    0.080811    0.081377    0.081808
     0.083396    0.083502    0.083514    0.083675    0.084645    0.090017
     0.091538    0.091907    0.106339    0.109001    0.113820    0.113949
     0.116299    0.116905    0.116996    0.126894    0.131265    0.139894
     0.144501    0.160000    0.160000    0.160000    0.160000    0.160000
     0.160000    0.160000    0.160000    0.160000    0.160000    0.160000
     0.160000    0.165730    0.185925    0.241736    0.248635    0.249881
     0.250000    0.250000    0.250000    0.250000    0.250633    0.260748
     0.267050    0.282050    0.285547    0.305111    0.306449    0.307030
     0.309452    0.327325    0.337229    0.338979    0.340712    0.341060
     0.341086    0.341343    0.341531    0.342465    0.342607    0.342751
     0.342848    0.342936    0.343451    0.343609    0.343704    0.343747
     0.343768    0.343978    0.344143    0.411501    0.412503    0.509233
     0.515826    0.951140    0.953727    1.022753    1.022753

 Minimum Search - Taking P-RFO Step
 Searching for Lamda that Maximizes Along the Constraint modes Only
 Value Taken    Lamda =   0.01272864
 Searching for Lamda that Minimizes Along All other modes
 Value Taken    Lamda =  -0.07216871
 Calculated Step too Large.  Step scaled by  0.696967
 Step Taken.  Stepsize is  0.300000

                             Maximum     Tolerance    Cnvgd?
         Gradient            0.134155       0.000300      NO
         Displacement        0.098582       0.001200      NO
         Energy change     *********       0.000001      NO


 New Cartesian Coordinates Obtained by Inverse Iteration

 Displacement from previous Coordinates is:  0.750331
 Adding empirical dispersion correction 
 ----------------------------------------------------------------
 Doing -D3(op) with
 s6 =   1.00000
 s8 =   0.78311
 a1 =   0.30000
 a2 =   4.25000
 n  =  10.00000
 -D3 energy without 3body term =     -0.0405905447 hartrees
 ----------------------------------------------------------------
             Standard Nuclear Orientation (Angstroms)
    I     Atom           X                Y                Z
 ----------------------------------------------------------------
    1      C       0.0673742888     0.6944472594     0.6390369047
    2      C       0.4518524582    -0.8259653335     0.6469507352
    3      C      -1.2261618976     1.0234898051    -0.1461835152
    4      C      -0.6276687254    -1.7646595817     0.0398120601
    5      O      -1.9125236910     2.0463788056     0.5200930248
    6      O      -1.6127184853     0.4825561944    -1.1965800361
    7      O      -1.7426123260    -1.7318582560     0.8924722452
    8      O      -0.5085654547    -2.5593428570    -0.9073919918
    9      C      -2.8181768360    -2.6020923899     0.4364513007
   10      C      -3.1472467817     2.4243987591    -0.1565738416
   11      C       1.3271751197     1.3675462219    -0.0092527694
   12      C       2.5187637319     1.2840637542     1.0100962762
   13      C       2.9111256122    -0.2214087853     0.9149309635
   14      C       1.8468136224    -0.7740269487    -0.1076519172
   15      O       1.7185228841     0.3760778817    -1.0213922969
   16      H      -0.0764286832     1.0357602318     1.6775186231
   17      H       0.6264440839    -1.1948738245     1.6730791485
   18      H      -2.5125160848    -3.6648847590     0.4471947920
   19      H      -3.8391432398     1.5669177927    -0.2461552717
   20      H       3.3584137236     1.9141071824     0.6841567375
   21      H       2.2399947091     1.5939087049     2.0276719985
   22      H       3.9269658404    -0.3125987976     0.5053385290
   23      H       2.8919077184    -0.7381356023     1.8854650784
   24      H      -3.6600015719    -2.4712495214     1.1365982719
   25      H      -3.1587029828    -2.3276865909    -0.5791990535
   26      H      -2.9469344083     2.8416682998    -1.1608162694
   27      H      -3.6284804982     3.2026377417     0.4586899068
   28      C       2.3246225722    -2.0255280117    -0.8630940704
   29      H       3.3567511713    -1.8829482363    -1.2150129554
   30      H       2.2982022260    -2.9132672354    -0.2176518334
   31      H       1.7143400100    -2.2082731824    -1.7581551776
   32      C       1.1455848841     2.7599392096    -0.6387123555
   33      H       2.0968808728     3.1108589232    -1.0631642071
   34      H       0.4227342441     2.7352599113    -1.4669942092
   35      H       0.8060052674     3.4879961683     0.1106674060
 ----------------------------------------------------------------
 Molecular Point Group                 C1    NOp =  1
 Largest Abelian Subgroup              C1    NOp =  1
 Nuclear Repulsion Energy =  1373.5471716979 hartrees
 There are       65 alpha and       65 beta electrons
 Applying Cartesian multipole field
    Component          Value
    ---------          -----
     (2,0,0)        1.00000E-11
     (0,2,0)        2.00000E-11
     (0,0,2)       -3.00000E-11
 Nucleus-field energy     =     0.0000000390 hartrees
 Requested basis set is STO-3G
 There are 52 shells and 103 basis functions
 A cutoff of  1.0D-12 yielded   1201 shell pairs
 There are      5185 function pairs
 Smallest overlap matrix eigenvalue = 2.08E-01
 Guess MOs from SCF MO coefficient file
 Reading MOs from coefficient file
 Reading MOs from coefficient file
 A restricted hybrid HF-DFT SCF calculation will be
 performed using Pulay DIIS extrapolation
 Exchange:     0.2000 Hartree-Fock + 0.0800 Slater + 0.7200 B88
 Correlation:  0.1900 VWN1RPA + 0.8100 LYP
 Using SG-1 standard quadrature grid
 Dispersion:   Grimme D3
 SCF converges when DIIS error is below 1.0E-08
 Geometry optimization detected.  Setting ReadMinima to 0
 Setting SaveMinima to 0
 -------------------------------------------------------
 OpenMP Integral computing Module                
 Release: version 1.0, May 2013, Q-Chem Inc. Pittsburgh 
 -------------------------------------------------------
 -------------------------------------------------------
 OpenMP BLAS3 based DFT computing Module                
 Release: version 1.0, May 2013, Q-Chem Inc. Pittsburgh 
 -------------------------------------------------------
 ---------------------------------------
  Cycle       Energy         DIIS Error
 ---------------------------------------
    1    -833.2781217367      4.85E-03
    2    -833.4337753848      1.79E-03
    3    -833.4281107791      2.68E-03
    4    -833.4381552095      6.06E-04
    5    -833.4387264533      1.01E-04
    6    -833.4387428608      2.59E-05
    7    -833.4387433394      2.06E-05
    8    -833.4387439746      4.08E-06
    9    -833.4387440040      7.00E-07
   10    -833.4387440048      3.04E-07
   11    -833.4387440049      5.98E-08
   12    -833.4387440050      2.03E-08
   13    -833.4387440050      4.04E-09 Convergence criterion met
 ---------------------------------------
 SCF time:  CPU 123.04 s  wall 6.55 s
 SCF   energy in the final basis set = -833.4387440050
 Total energy in the final basis set = -833.4387440050
 
 --------------------------------------------------------------
 
                    Orbital Energies (a.u.)
 --------------------------------------------------------------
 
 Alpha MOs
 -- Occupied --
-18.940 -18.929 -18.868 -18.868 -18.863 -10.101 -10.096 -10.069
-10.063 -10.063 -10.057 -10.031 -10.030 -10.014 -10.010 -10.008
-10.003  -1.023  -1.014  -0.968  -0.940  -0.933  -0.763  -0.741
 -0.722  -0.679  -0.675  -0.662  -0.619  -0.589  -0.537  -0.515
 -0.483  -0.475  -0.456  -0.438  -0.429  -0.420  -0.419  -0.411
 -0.403  -0.385  -0.383  -0.378  -0.368  -0.365  -0.359  -0.342
 -0.338  -0.332  -0.307  -0.299  -0.295  -0.290  -0.286  -0.278
 -0.266  -0.249  -0.243  -0.218  -0.179  -0.172  -0.151  -0.141
 -0.132
 -- Virtual --
  0.102   0.119   0.235   0.265   0.277   0.294   0.315   0.337
  0.353   0.358   0.372   0.381   0.390   0.399   0.411   0.416
  0.426   0.428   0.432   0.433   0.439   0.442   0.445   0.450
  0.452   0.466   0.471   0.478   0.486   0.487   0.494   0.499
  0.520   0.524   0.560   0.564   0.668   0.672
 --------------------------------------------------------------
 
          Ground-State Mulliken Net Atomic Charges

     Atom                 Charge (a.u.)
  ----------------------------------------
      1 C                    -0.081534
      2 C                    -0.081388
      3 C                     0.220261
      4 C                     0.222454
      5 O                    -0.176847
      6 O                    -0.219679
      7 O                    -0.184450
      8 O                    -0.216001
      9 C                    -0.125550
     10 C                    -0.125403
     11 C                     0.107431
     12 C                    -0.146611
     13 C                    -0.145847
     14 C                     0.107532
     15 O                    -0.203439
     16 H                     0.085574
     17 H                     0.084087
     18 H                     0.088179
     19 H                     0.090748
     20 H                     0.074324
     21 H                     0.069943
     22 H                     0.074283
     23 H                     0.068352
     24 H                     0.089197
     25 H                     0.092697
     26 H                     0.089760
     27 H                     0.092153
     28 C                    -0.228021
     29 H                     0.077911
     30 H                     0.079587
     31 H                     0.098224
     32 C                    -0.228632
     33 H                     0.083981
     34 H                     0.083765
     35 H                     0.082961
  ----------------------------------------
  Sum of atomic charges =    -0.000000

 -----------------------------------------------------------------
                    Cartesian Multipole Moments
 -----------------------------------------------------------------
    Charge (ESU x 10^10)
                 0.0000
    Dipole Moment (Debye)
         X      -0.7496      Y       1.1303      Z       2.2888
       Tot       2.6605
    Quadrupole Moments (Debye-Ang)
        XX     -83.6109     XY      -0.7210     YY     -88.6413
        XZ       1.3474     YZ      -3.7837     ZZ     -96.9367
    Octopole Moments (Debye-Ang^2)
       XXX     -48.2832    XXY      -2.0719    XYY     -20.8696
       YYY       1.4424    XXZ      -0.4373    XYZ       4.2844
       YYZ       1.6493    XZZ      -3.9992    YZZ      -0.1779
       ZZZ      -2.8507
    Hexadecapole Moments (Debye-Ang^3)
      XXXX   -2162.7249   XXXY     -18.9822   XXYY    -615.2544
      XYYY      -9.7533   YYYY   -1826.0435   XXXZ     -28.2842
      XXYZ      -5.4492   XYYZ      -7.7161   YYYZ     -34.4442
      XXZZ    -465.1252   XYZZ      -8.5477   YYZZ    -382.5252
      XZZZ      -6.8999   YZZZ       3.9135   ZZZZ    -409.3778
 -----------------------------------------------------------------
 Calculating analytic gradient of the SCF energy
 Gradient of SCF Energy
            1           2           3           4           5           6
    1   0.0087265  -0.0083528  -0.0059645  -0.0150274  -0.0035088   0.0070047
    2  -0.0046018  -0.0001406   0.0130838   0.0087983  -0.0158944   0.0073815
    3  -0.0265199  -0.0015084   0.0059920   0.0072247  -0.0229452   0.0135849
            7           8           9          10          11          12
    1   0.0101608   0.0023177   0.0072468   0.0088025  -0.0114685  -0.0049235
    2  -0.0173124   0.0061725   0.0066968  -0.0020254  -0.0012673  -0.0023581
    3  -0.0220926   0.0151509   0.0050841   0.0065745   0.0032893  -0.0110306
           13          14          15          16          17          18
    1  -0.0045785  -0.0079701   0.0025080   0.0006235   0.0025550  -0.0006467
    2   0.0019391  -0.0017208   0.0023485  -0.0041921  -0.0037020   0.0032449
    3  -0.0101161   0.0017464   0.0209171  -0.0003549  -0.0025978   0.0024774
           19          20          21          22          23          24
    1   0.0017543   0.0010177   0.0022135  -0.0004181   0.0015955   0.0007681
    2   0.0025821  -0.0030327  -0.0001323   0.0034674   0.0009485  -0.0017355
    3   0.0027845   0.0020568  -0.0013003   0.0026374  -0.0016048  -0.0030742
           25          26          27          28          29          30
    1   0.0000932   0.0007734  -0.0005880  -0.0043596  -0.0021501   0.0013846
    2   0.0013212   0.0006399  -0.0018299   0.0059418  -0.0015436   0.0009352
    3   0.0037704   0.0039843  -0.0029410   0.0117344  -0.0029193  -0.0014157
           31          32          33          34          35
    1   0.0057965   0.0025875  -0.0024527   0.0034063   0.0010733
    2   0.0015759  -0.0074557   0.0005442   0.0014158  -0.0000927
    3  -0.0024795   0.0088429  -0.0020934  -0.0011715  -0.0016868
 Max gradient component =       2.652E-02
 RMS gradient           =       7.246E-03
 Gradient time:  CPU 27.35 s  wall 1.22 s
 Geometry Optimization Parameters
   NAtoms,    NIC,     NZ,  NCons,   NDum,   NFix, NCnnct, MaxDiis
       35     275       0       2       0       0       0       0

 Cartesian Hessian Update
 Hessian Updated using BFGS Update


** CONSTRAINED OPTIMIZATION IN DELOCALIZED INTERNAL COORDINATES **
   Searching for a Minimum

   Optimization Cycle:   2

                       Coordinates (Angstroms)
     ATOM                X               Y               Z
      1  C         0.0673742888    0.6944472594    0.6390369047
      2  C         0.4518524582   -0.8259653335    0.6469507352
      3  C        -1.2261618976    1.0234898051   -0.1461835152
      4  C        -0.6276687254   -1.7646595817    0.0398120601
      5  O        -1.9125236910    2.0463788056    0.5200930248
      6  O        -1.6127184853    0.4825561944   -1.1965800361
      7  O        -1.7426123260   -1.7318582560    0.8924722452
      8  O        -0.5085654547   -2.5593428570   -0.9073919918
      9  C        -2.8181768360   -2.6020923899    0.4364513007
     10  C        -3.1472467817    2.4243987591   -0.1565738416
     11  C         1.3271751197    1.3675462219   -0.0092527694
     12  C         2.5187637319    1.2840637542    1.0100962762
     13  C         2.9111256122   -0.2214087853    0.9149309635
     14  C         1.8468136224   -0.7740269487   -0.1076519172
     15  O         1.7185228841    0.3760778817   -1.0213922969
     16  H        -0.0764286832    1.0357602318    1.6775186231
     17  H         0.6264440839   -1.1948738245    1.6730791485
     18  H        -2.5125160848   -3.6648847590    0.4471947920
     19  H        -3.8391432398    1.5669177927   -0.2461552717
     20  H         3.3584137236    1.9141071824    0.6841567375
     21  H         2.2399947091    1.5939087049    2.0276719985
     22  H         3.9269658404   -0.3125987976    0.5053385290
     23  H         2.8919077184   -0.7381356023    1.8854650784
     24  H        -3.6600015719   -2.4712495214    1.1365982719
     25  H        -3.1587029828   -2.3276865909   -0.5791990535
     26  H        -2.9469344083    2.8416682998   -1.1608162694
     27  H        -3.6284804982    3.2026377417    0.4586899068
     28  C         2.3246225722   -2.0255280117   -0.8630940704
     29  H         3.3567511713   -1.8829482363   -1.2150129554
     30  H         2.2982022260   -2.9132672354   -0.2176518334
     31  H         1.7143400100   -2.2082731824   -1.7581551776
     32  C         1.1455848841    2.7599392096   -0.6387123555
     33  H         2.0968808728    3.1108589232   -1.0631642071
     34  H         0.4227342441    2.7352599113   -1.4669942092
     35  H         0.8060052674    3.4879961683    0.1106674060
   Point Group: c1    Number of degrees of freedom:    99


   Energy is   -833.438744005

              Constraints and their Current Values
                                        Value     Constraint
   Dihedral:        2   1   3   5      143.448      142.300
   Dihedral:        1   2   4   7      -67.072      -69.600
 Hessian Updated using BFGS Update

   Using Lagrange Multiplier Algorithm


 85 Hessian modes will be used to form the next step
  Hessian Eigenvalues:
    -0.977846   -0.977378    0.044908    0.045001    0.045030    0.045064
     0.045492    0.048588    0.060299    0.061458    0.067828    0.070228
     0.071429    0.071693    0.075527    0.076511    0.078279    0.080796
     0.081266    0.081785    0.083155    0.083417    0.083512    0.083633
     0.084741    0.090014    0.091439    0.091893    0.106233    0.109029
     0.113713    0.113909    0.116148    0.116907    0.116996    0.126428
     0.131556    0.139918    0.143951    0.158523    0.161657    0.165763
     0.185514    0.239164    0.244934    0.248811    0.249885    0.250074
     0.251045    0.260785    0.268799    0.283469    0.289866    0.305713
     0.306858    0.308802    0.317093    0.327244    0.337208    0.338983
     0.340990    0.341073    0.341340    0.341522    0.342122    0.342567
     0.342647    0.342838    0.342864    0.343318    0.343590    0.343690
     0.343720    0.343759    0.343911    0.344097    0.375074    0.411945
     0.418550    0.498652    0.514039    0.952330    0.975880    1.022692
     1.023779

 Minimum Search - Taking P-RFO Step
 Searching for Lamda that Maximizes Along the Constraint modes Only
 Value Taken    Lamda =   0.00105393
 Searching for Lamda that Minimizes Along All other modes
 Value Taken    Lamda =  -0.01529700
 Calculated Step too Large.  Step scaled by  0.981231
 Step Taken.  Stepsize is  0.300000

                             Maximum     Tolerance    Cnvgd?
         Gradient            0.044118       0.000300      NO
         Displacement        0.098764       0.001200      NO
         Energy change     -0.028781       0.000001      NO


 New Cartesian Coordinates Obtained by Inverse Iteration

 Displacement from previous Coordinates is:  0.982193
 Adding empirical dispersion correction 
 ----------------------------------------------------------------
 Doing -D3(op) with
 s6 =   1.00000
 s8 =   0.78311
 a1 =   0.30000
 a2 =   4.25000
 n  =  10.00000
 -D3 energy without 3body term =     -0.0407541491 hartrees
 ----------------------------------------------------------------
             Standard Nuclear Orientation (Angstroms)
    I     Atom           X                Y                Z
 ----------------------------------------------------------------
    1      C       0.1004688097     0.7323774154     0.6806528215
    2      C       0.4797452644    -0.7978194983     0.6904214112
    3      C      -1.2225035281     1.0136300680    -0.1023080243
    4      C      -0.6222085199    -1.7076053121     0.0384448262
    5      O      -1.9440208656     2.0353660087     0.5795742614
    6      O      -1.6307315840     0.4296273314    -1.1322264063
    7      O      -1.7444824110    -1.6908791318     0.9244240791
    8      O      -0.5487209094    -2.4444835020    -0.9691095475
    9      C      -2.8274191095    -2.5236723243     0.3687975915
   10      C      -3.2051810567     2.3169852841    -0.1345512730
   11      C       1.3733835706     1.3791119649    -0.0162985107
   12      C       2.5739409445     1.2961773945     1.0144697076
   13      C       2.9500251342    -0.2271311749     0.9362934953
   14      C       1.8731334463    -0.7734742766    -0.0930823258
   15      O       1.7390582530     0.3637597065    -1.0362783396
   16      H      -0.0358310719     1.1097935066     1.7103104763
   17      H       0.6531563055    -1.1602880099     1.7194334879
   18      H      -2.5272590447    -3.5894525623     0.2913899812
   19      H      -3.8413898532     1.4114235513    -0.2137188637
   20      H       3.4100861046     1.9271714773     0.6728494241
   21      H       2.2857701737     1.6219838844     2.0269841331
   22      H       3.9608689270    -0.3588923529     0.5178423886
   23      H       2.9121484537    -0.7364096028     1.9130154880
   24      H      -3.6758136368    -2.4314952927     1.0724626271
   25      H      -3.1407402426    -2.1721157509    -0.6360172142
   26      H      -3.0201598892     2.7074938183    -1.1566550428
   27      H      -3.7297826686     3.0855980331     0.4630143142
   28      C       2.2986098356    -2.0565267887    -0.8510755457
   29      H       3.3304730894    -1.9434105364    -1.2194595835
   30      H       2.2530905777    -2.9291338326    -0.1823654298
   31      H       1.6322374104    -2.2292076426    -1.7096301915
   32      C       1.1652364495     2.7640417581    -0.6798637691
   33      H       2.1129342436     3.1072067642    -1.1224205493
   34      H       0.4127650177     2.6999966071    -1.4814650325
   35      H       0.8317057538     3.4994659515     0.0683873654
 ----------------------------------------------------------------
 Molecular Point Group                 C1    NOp =  1
 Largest Abelian Subgroup              C1    NOp =  1
 Nuclear Repulsion Energy =  1370.5268584801 hartrees
 There are       65 alpha and       65 beta electrons
 Applying Cartesian multipole field
    Component          Value
    ---------          -----
     (2,0,0)        1.00000E-11
     (0,2,0)        2.00000E-11
     (0,0,2)       -3.00000E-11
 Nucleus-field energy     =     0.0000000381 hartrees
 Requested basis set is STO-3G
 There are 52 shells and 103 basis functions
 A cutoff of  1.0D-12 yielded   1201 shell pairs
 There are      5182 function pairs
 Smallest overlap matrix eigenvalue = 2.13E-01
 Guess MOs from SCF MO coefficient file
 Reading MOs from coefficient file
 Reading MOs from coefficient file
 A restricted hybrid HF-DFT SCF calculation will be
 performed using Pulay DIIS extrapolation
 Exchange:     0.2000 Hartree-Fock + 0.0800 Slater + 0.7200 B88
 Correlation:  0.1900 VWN1RPA + 0.8100 LYP
 Using SG-1 standard quadrature grid
 Dispersion:   Grimme D3
 SCF converges when DIIS error is below 1.0E-08
 Geometry optimization detected.  Setting ReadMinima to 0
 Setting SaveMinima to 0
 -------------------------------------------------------
 OpenMP Integral computing Module                
 Release: version 1.0, May 2013, Q-Chem Inc. Pittsburgh 
 -------------------------------------------------------
 -------------------------------------------------------
 OpenMP BLAS3 based DFT computing Module                
 Release: version 1.0, May 2013, Q-Chem Inc. Pittsburgh 
 -------------------------------------------------------
 ---------------------------------------
  Cycle       Energy         DIIS Error
 ---------------------------------------
    1    -833.3444340462      4.42E-03
    2    -833.4436215841      1.25E-03
    3    -833.4388449109      2.22E-03
    4    -833.4458358302      4.15E-04
    5    -833.4460995506      9.57E-05
    6    -833.4461138686      2.51E-05
    7    -833.4461142452      2.11E-05
    8    -833.4461149151      4.24E-06
    9    -833.4461149462      6.96E-07
   10    -833.4461149469      3.16E-07
   11    -833.4461149471      5.95E-08
   12    -833.4461149472      2.29E-08
   13    -833.4461149472      4.11E-09 Convergence criterion met
 ---------------------------------------
 SCF time:  CPU 131.22 s  wall 6.43 s
 SCF   energy in the final basis set = -833.4461149472
 Total energy in the final basis set = -833.4461149472
 
 --------------------------------------------------------------
 
                    Orbital Energies (a.u.)
 --------------------------------------------------------------
 
 Alpha MOs
 -- Occupied --
-18.938 -18.924 -18.872 -18.872 -18.866 -10.098 -10.092 -10.066
-10.062 -10.058 -10.056 -10.032 -10.029 -10.015 -10.013 -10.010
-10.003  -1.014  -1.003  -0.961  -0.936  -0.927  -0.760  -0.737
 -0.718  -0.673  -0.672  -0.655  -0.616  -0.587  -0.533  -0.511
 -0.479  -0.471  -0.452  -0.434  -0.424  -0.417  -0.414  -0.405
 -0.399  -0.384  -0.381  -0.378  -0.367  -0.363  -0.353  -0.342
 -0.336  -0.330  -0.310  -0.295  -0.292  -0.288  -0.287  -0.275
 -0.264  -0.253  -0.246  -0.222  -0.179  -0.170  -0.152  -0.142
 -0.135
 -- Virtual --
  0.095   0.116   0.234   0.258   0.271   0.288   0.305   0.324
  0.341   0.343   0.363   0.371   0.383   0.392   0.404   0.411
  0.414   0.420   0.427   0.427   0.431   0.433   0.438   0.440
  0.447   0.459   0.464   0.470   0.480   0.481   0.489   0.494
  0.509   0.516   0.549   0.557   0.651   0.658
 --------------------------------------------------------------
 
          Ground-State Mulliken Net Atomic Charges

     Atom                 Charge (a.u.)
  ----------------------------------------
      1 C                    -0.080813
      2 C                    -0.081212
      3 C                     0.212221
      4 C                     0.214687
      5 O                    -0.168961
      6 O                    -0.213869
      7 O                    -0.178328
      8 O                    -0.210812
      9 C                    -0.128082
     10 C                    -0.127423
     11 C                     0.105224
     12 C                    -0.145603
     13 C                    -0.145154
     14 C                     0.105243
     15 O                    -0.197746
     16 H                     0.085004
     17 H                     0.083372
     18 H                     0.086658
     19 H                     0.090038
     20 H                     0.074380
     21 H                     0.070733
     22 H                     0.073689
     23 H                     0.069120
     24 H                     0.086403
     25 H                     0.091619
     26 H                     0.088590
     27 H                     0.090267
     28 C                    -0.227878
     29 H                     0.077587
     30 H                     0.077812
     31 H                     0.100439
     32 C                    -0.227042
     33 H                     0.083582
     34 H                     0.084229
     35 H                     0.082024
  ----------------------------------------
  Sum of atomic charges =    -0.000000

 -----------------------------------------------------------------
                    Cartesian Multipole Moments
 -----------------------------------------------------------------
    Charge (ESU x 10^10)
                -0.0000
    Dipole Moment (Debye)
         X      -0.5696      Y       1.1142      Z       2.1695
       Tot       2.5045
    Quadrupole Moments (Debye-Ang)
        XX     -83.9496     XY      -0.7983     YY     -88.9698
        XZ       1.8127     YZ      -3.4844     ZZ     -96.9060
    Octopole Moments (Debye-Ang^2)
       XXX     -48.6965    XXY      -2.0296    XYY     -18.5116
       YYY      -3.2994    XXZ      -1.7466    XYZ       3.9105
       YYZ      -0.2120    XZZ      -4.2738    YZZ       0.0338
       ZZZ      -4.7893
    Hexadecapole Moments (Debye-Ang^3)
      XXXX   -2211.6860   XXXY     -24.7792   XXYY    -620.2162
      XYYY     -10.1400   YYYY   -1769.9986   XXXZ     -30.8541
      XXYZ      -7.9068   XYYZ      -6.8126   YYYZ     -35.6911
      XXZZ    -474.4361   XYZZ     -10.5068   YYZZ    -375.1841
      XZZZ      -8.2390   YZZZ      -5.2121   ZZZZ    -416.1004
 -----------------------------------------------------------------
 Calculating analytic gradient of the SCF energy
 Gradient of SCF Energy
            1           2           3           4           5           6
    1   0.0051131  -0.0060748  -0.0024931  -0.0078186  -0.0006817   0.0002063
    2  -0.0014159   0.0014947   0.0064230   0.0081616  -0.0030692  -0.0013184
    3  -0.0104884   0.0072463   0.0015479   0.0004750  -0.0010424  -0.0006757
            7           8           9          10          11          12
    1   0.0031873   0.0018187   0.0038657   0.0038943  -0.0044360  -0.0015514
    2  -0.0035762  -0.0040300   0.0018437  -0.0020075   0.0011287   0.0007009
    3  -0.0013190   0.0001623   0.0000263   0.0008042   0.0045621  -0.0013140
           13          14          15          16          17          18
    1  -0.0018022  -0.0032849   0.0037297  -0.0008605   0.0035696   0.0000900
    2  -0.0009507  -0.0014808  -0.0003339  -0.0018631  -0.0007177  -0.0003526
    3  -0.0011181  -0.0004406   0.0000830   0.0012522  -0.0007269   0.0002547
           19          20          21          22          23          24
    1  -0.0003831   0.0006595   0.0009460   0.0002154   0.0013447  -0.0000838
    2  -0.0001180  -0.0004537   0.0006845   0.0003378  -0.0001540   0.0002483
    3   0.0001780   0.0002648   0.0003411  -0.0001159   0.0004359   0.0001680
           25          26          27          28          29          30
    1  -0.0003476   0.0000096  -0.0000038  -0.0017912   0.0003166  -0.0001159
    2   0.0000075   0.0002756   0.0001270   0.0004412   0.0000991   0.0000257
    3  -0.0001260  -0.0001733   0.0002314   0.0023055  -0.0006974  -0.0000136
           31          32          33          34          35
    1   0.0017570   0.0001474   0.0002267   0.0004743   0.0001566
    2   0.0008819  -0.0009029  -0.0004204   0.0002185   0.0000653
    3  -0.0019611   0.0012551  -0.0005347  -0.0009663   0.0001201
 Max gradient component =       1.049E-02
 RMS gradient           =       2.446E-03
 Gradient time:  CPU 25.26 s  wall 1.17 s
 Geometry Optimization Parameters
   NAtoms,    NIC,     NZ,  NCons,   NDum,   NFix, NCnnct, MaxDiis
       35     275       0       2       0       0       0       0

 Cartesian Hessian Update
 Hessian Updated using BFGS Update


** CONSTRAINED OPTIMIZATION IN DELOCALIZED INTERNAL COORDINATES **
   Searching for a Minimum

   Optimization Cycle:   3

                       Coordinates (Angstroms)
     ATOM                X               Y               Z
      1  C         0.1004688097    0.7323774154    0.6806528215
      2  C         0.4797452644   -0.7978194983    0.6904214112
      3  C        -1.2225035281    1.0136300680   -0.1023080243
      4  C        -0.6222085199   -1.7076053121    0.0384448262
      5  O        -1.9440208656    2.0353660087    0.5795742614
      6  O        -1.6307315840    0.4296273314   -1.1322264063
      7  O        -1.7444824110   -1.6908791318    0.9244240791
      8  O        -0.5487209094   -2.4444835020   -0.9691095475
      9  C        -2.8274191095   -2.5236723243    0.3687975915
     10  C        -3.2051810567    2.3169852841   -0.1345512730
     11  C         1.3733835706    1.3791119649   -0.0162985107
     12  C         2.5739409445    1.2961773945    1.0144697076
     13  C         2.9500251342   -0.2271311749    0.9362934953
     14  C         1.8731334463   -0.7734742766   -0.0930823258
     15  O         1.7390582530    0.3637597065   -1.0362783396
     16  H        -0.0358310719    1.1097935066    1.7103104763
     17  H         0.6531563055   -1.1602880099    1.7194334879
     18  H        -2.5272590447   -3.5894525623    0.2913899812
     19  H        -3.8413898532    1.4114235513   -0.2137188637
     20  H         3.4100861046    1.9271714773    0.6728494241
     21  H         2.2857701737    1.6219838844    2.0269841331
     22  H         3.9608689270   -0.3588923529    0.5178423886
     23  H         2.9121484537   -0.7364096028    1.9130154880
     24  H        -3.6758136368   -2.4314952927    1.0724626271
     25  H        -3.1407402426   -2.1721157509   -0.6360172142
     26  H        -3.0201598892    2.7074938183   -1.1566550428
     27  H        -3.7297826686    3.0855980331    0.4630143142
     28  C         2.2986098356   -2.0565267887   -0.8510755457
     29  H         3.3304730894   -1.9434105364   -1.2194595835
     30  H         2.2530905777   -2.9291338326   -0.1823654298
     31  H         1.6322374104   -2.2292076426   -1.7096301915
     32  C         1.1652364495    2.7640417581   -0.6798637691
     33  H         2.1129342436    3.1072067642   -1.1224205493
     34  H         0.4127650177    2.6999966071   -1.4814650325
     35  H         0.8317057538    3.4994659515    0.0683873654
   Point Group: c1    Number of degrees of freedom:    99


   Energy is   -833.446114947

              Constraints and their Current Values
                                        Value     Constraint
   Dihedral:        2   1   3   5      142.329      142.300
   Dihedral:        1   2   4   7      -69.531      -69.600
 Hessian Updated using BFGS Update

   Using Lagrange Multiplier Algorithm


 88 Hessian modes will be used to form the next step
  Hessian Eigenvalues:
    -0.977724   -0.976956    0.041746    0.045000    0.045002    0.045035
     0.045159    0.045510    0.048404    0.059816    0.060449    0.067142
     0.070051    0.071393    0.071673    0.075395    0.075904    0.078295
     0.080626    0.081006    0.081737    0.082980    0.083416    0.083626
     0.083683    0.084916    0.090072    0.091457    0.092025    0.106437
     0.108619    0.113621    0.113901    0.116378    0.116909    0.116998
     0.126791    0.131584    0.139886    0.144926    0.158880    0.160764
     0.161855    0.169205    0.185659    0.239897    0.247049    0.249319
     0.249993    0.250065    0.250619    0.260748    0.267549    0.268861
     0.283425    0.289814    0.305664    0.306842    0.308794    0.315938
     0.329061    0.337176    0.339040    0.340998    0.341071    0.341335
     0.341402    0.341828    0.342542    0.342651    0.342843    0.342869
     0.343278    0.343591    0.343692    0.343707    0.343760    0.343924
     0.344100    0.383514    0.403419    0.412080    0.482201    0.513620
     0.952354    0.992241    1.022916    1.028324

 Minimum Search - Taking P-RFO Step
 Searching for Lamda that Maximizes Along the Constraint modes Only
 Value Taken    Lamda =   0.00002592
 Searching for Lamda that Minimizes Along All other modes
 Value Taken    Lamda =  -0.00187170
 Step Taken.  Stepsize is  0.174430

                             Maximum     Tolerance    Cnvgd?
         Gradient            0.007303       0.000300      NO
         Displacement        0.069053       0.001200      NO
         Energy change     -0.007371       0.000001      NO


 New Cartesian Coordinates Obtained by Inverse Iteration

 Displacement from previous Coordinates is:  0.470506
 Adding empirical dispersion correction 
 ----------------------------------------------------------------
 Doing -D3(op) with
 s6 =   1.00000
 s8 =   0.78311
 a1 =   0.30000
 a2 =   4.25000
 n  =  10.00000
 -D3 energy without 3body term =     -0.0409067677 hartrees
 ----------------------------------------------------------------
             Standard Nuclear Orientation (Angstroms)
    I     Atom           X                Y                Z
 ----------------------------------------------------------------
    1      C       0.1143787477     0.7300548326     0.7002816208
    2      C       0.5008350630    -0.8066058362     0.7081787003
    3      C      -1.2150932478     1.0001901610    -0.0813345356
    4      C      -0.6009231317    -1.7114082419     0.0375096383
    5      O      -1.9503086757     2.0231872448     0.6016624616
    6      O      -1.6274405555     0.4123994349    -1.1077464436
    7      O      -1.7410343358    -1.7016714346     0.9168947864
    8      O      -0.5424849593    -2.4011609132    -1.0029934369
    9      C      -2.8484001421    -2.4890300953     0.3246320489
   10      C      -3.2216201571     2.3035641089    -0.1108949273
   11      C       1.3825238695     1.3722148309    -0.0247581152
   12      C       2.5919525914     1.3060833864     1.0001142155
   13      C       2.9764687745    -0.2152326470     0.9381233298
   14      C       1.8947465421    -0.7789334587    -0.0800294972
   15      O       1.7339772594     0.3452505858    -1.0380315354
   16      H      -0.0153511944     1.1262771749     1.7226647901
   17      H       0.6595259032    -1.1643917468     1.7409315999
   18      H      -2.5742261775    -3.5575148536     0.2045850569
   19      H      -3.8508075873     1.3936559114    -0.1928175647
   20      H       3.4180664842     1.9440469360     0.6473755722
   21      H       2.2983867558     1.6376717217     2.0088821291
   22      H       3.9860504583    -0.3516092429     0.5183798411
   23      H       2.9356792380    -0.7144006965     1.9193214177
   24      H      -3.6984146009    -2.4031961324     1.0269507545
   25      H      -3.1435042717    -2.0908451986    -0.6681310087
   26      H      -3.0400417743     2.6949988647    -1.1330624729
   27      H      -3.7489497363     3.0680650544     0.4892453872
   28      C       2.3124956156    -2.0764034517    -0.8236001482
   29      H       3.3372136875    -1.9710582837    -1.2111846794
   30      H       2.2793041874    -2.9338813062    -0.1344841696
   31      H       1.6170396477    -2.2687763310    -1.6538273212
   32      C       1.1456426741     2.7505327441    -0.6992331505
   33      H       2.0788404574     3.1073448756    -1.1604478277
   34      H       0.3749272611     2.6636552876    -1.4803149229
   35      H       0.8131387034     3.4861396481     0.0494006374
 ----------------------------------------------------------------
 Molecular Point Group                 C1    NOp =  1
 Largest Abelian Subgroup              C1    NOp =  1
 Nuclear Repulsion Energy =  1369.6979301025 hartrees
 There are       65 alpha and       65 beta electrons
 Applying Cartesian multipole field
    Component          Value
    ---------          -----
     (2,0,0)        1.00000E-11
     (0,2,0)        2.00000E-11
     (0,0,2)       -3.00000E-11
 Nucleus-field energy     =     0.0000000380 hartrees
 Requested basis set is STO-3G
 There are 52 shells and 103 basis functions
 A cutoff of  1.0D-12 yielded   1200 shell pairs
 There are      5178 function pairs
 Smallest overlap matrix eigenvalue = 2.14E-01
 Guess MOs from SCF MO coefficient file
 Reading MOs from coefficient file
 Reading MOs from coefficient file
 A restricted hybrid HF-DFT SCF calculation will be
 performed using Pulay DIIS extrapolation
 Exchange:     0.2000 Hartree-Fock + 0.0800 Slater + 0.7200 B88
 Correlation:  0.1900 VWN1RPA + 0.8100 LYP
 Using SG-1 standard quadrature grid
 Dispersion:   Grimme D3
 SCF converges when DIIS error is below 1.0E-08
 Geometry optimization detected.  Setting ReadMinima to 0
 Setting SaveMinima to 0
 -------------------------------------------------------
 OpenMP Integral computing Module                
 Release: version 1.0, May 2013, Q-Chem Inc. Pittsburgh 
 -------------------------------------------------------
 -------------------------------------------------------
 OpenMP BLAS3 based DFT computing Module                
 Release: version 1.0, May 2013, Q-Chem Inc. Pittsburgh 
 -------------------------------------------------------
 ---------------------------------------
  Cycle       Energy         DIIS Error
 ---------------------------------------
    1    -833.4263246906      2.09E-03
    2    -833.4469357329      3.89E-04
    3    -833.4460560921      8.72E-04
    4    -833.4471837485      7.69E-05
    5    -833.4471925337      2.69E-05
    6    -833.4471934523      1.24E-05
    7    -833.4471936321      6.65E-06
    8    -833.4471936991      1.22E-06
    9    -833.4471937016      1.86E-07
   10    -833.4471937017      7.72E-08
   11    -833.4471937016      2.48E-08
   12    -833.4471937016      6.67E-09 Convergence criterion met
 ---------------------------------------
 SCF time:  CPU 114.90 s  wall 5.73 s
 SCF   energy in the final basis set = -833.4471937016
 Total energy in the final basis set = -833.4471937016
 
 --------------------------------------------------------------
 
                    Orbital Energies (a.u.)
 --------------------------------------------------------------
 
 Alpha MOs
 -- Occupied --
-18.935 -18.921 -18.873 -18.873 -18.868 -10.097 -10.092 -10.065
-10.062 -10.057 -10.056 -10.032 -10.030 -10.015 -10.014 -10.011
-10.003  -1.010  -0.999  -0.961  -0.934  -0.926  -0.759  -0.736
 -0.718  -0.673  -0.670  -0.653  -0.616  -0.588  -0.532  -0.511
 -0.478  -0.470  -0.451  -0.434  -0.423  -0.415  -0.413  -0.403
 -0.398  -0.385  -0.381  -0.378  -0.367  -0.363  -0.352  -0.342
 -0.335  -0.329  -0.311  -0.295  -0.293  -0.288  -0.286  -0.274
 -0.264  -0.252  -0.245  -0.223  -0.177  -0.168  -0.152  -0.142
 -0.135
 -- Virtual --
  0.095   0.115   0.231   0.254   0.267   0.287   0.304   0.322
  0.339   0.340   0.360   0.369   0.381   0.391   0.402   0.408
  0.413   0.420   0.425   0.426   0.431   0.432   0.438   0.440
  0.448   0.457   0.463   0.470   0.480   0.481   0.487   0.495
  0.506   0.514   0.547   0.556   0.648   0.657
 --------------------------------------------------------------
 
          Ground-State Mulliken Net Atomic Charges

     Atom                 Charge (a.u.)
  ----------------------------------------
      1 C                    -0.080525
      2 C                    -0.080751
      3 C                     0.210113
      4 C                     0.213503
      5 O                    -0.168783
      6 O                    -0.213338
      7 O                    -0.177584
      8 O                    -0.209098
      9 C                    -0.129638
     10 C                    -0.128793
     11 C                     0.105374
     12 C                    -0.145689
     13 C                    -0.145405
     14 C                     0.105217
     15 O                    -0.196639
     16 H                     0.085148
     17 H                     0.083256
     18 H                     0.086365
     19 H                     0.089780
     20 H                     0.074702
     21 H                     0.071196
     22 H                     0.074322
     23 H                     0.069996
     24 H                     0.086529
     25 H                     0.091659
     26 H                     0.088208
     27 H                     0.090369
     28 C                    -0.229380
     29 H                     0.077927
     30 H                     0.077074
     31 H                     0.101880
     32 C                    -0.227303
     33 H                     0.083571
     34 H                     0.084707
     35 H                     0.082032
  ----------------------------------------
  Sum of atomic charges =    -0.000000

 -----------------------------------------------------------------
                    Cartesian Multipole Moments
 -----------------------------------------------------------------
    Charge (ESU x 10^10)
                -0.0000
    Dipole Moment (Debye)
         X      -0.5047      Y       1.1071      Z       2.1562
       Tot       2.4758
    Quadrupole Moments (Debye-Ang)
        XX     -83.7956     XY      -0.7941     YY     -88.9012
        XZ       1.9523     YZ      -3.3884     ZZ     -96.9995
    Octopole Moments (Debye-Ang^2)
       XXX     -50.1438    XXY      -1.7748    XYY     -18.5505
       YYY      -3.4030    XXZ      -2.0969    XYZ       3.4683
       YYZ      -0.9278    XZZ      -4.5959    YZZ       0.5812
       ZZZ      -5.0325
    Hexadecapole Moments (Debye-Ang^3)
      XXXX   -2228.1901   XXXY     -21.8753   XXYY    -621.0798
      XYYY      -6.1584   YYYY   -1752.3053   XXXZ     -33.1686
      XXYZ      -8.8978   XYYZ      -6.8769   YYYZ     -36.8325
      XXZZ    -477.7860   XYZZ      -9.5658   YYZZ    -372.9482
      XZZZ      -9.6021   YZZZ      -9.6754   ZZZZ    -415.1031
 -----------------------------------------------------------------
 Calculating analytic gradient of the SCF energy
 Gradient of SCF Energy
            1           2           3           4           5           6
    1   0.0036746  -0.0032514   0.0026424   0.0001579  -0.0005245  -0.0008136
    2   0.0006354  -0.0008308   0.0026208   0.0045479  -0.0015589  -0.0018782
    3  -0.0039357   0.0060623  -0.0001528  -0.0014463   0.0013612  -0.0011491
            7           8           9          10          11          12
    1   0.0006910   0.0001481  -0.0017992  -0.0015385  -0.0013438  -0.0000806
    2  -0.0012596  -0.0023026  -0.0004319   0.0010947   0.0012120  -0.0000456
    3   0.0010654  -0.0006809   0.0004714   0.0001186   0.0029855   0.0004218
           13          14          15          16          17          18
    1   0.0004905  -0.0013116   0.0015962  -0.0012074   0.0023160  -0.0000227
    2  -0.0007766  -0.0006801  -0.0000713  -0.0005470   0.0002886  -0.0001560
    3   0.0008963  -0.0006447  -0.0019721   0.0000887  -0.0004576  -0.0001820
           19          20          21          22          23          24
    1  -0.0001206   0.0000910   0.0001914   0.0000899   0.0007190  -0.0004728
    2  -0.0000847  -0.0000902   0.0002974   0.0001610  -0.0001178  -0.0001264
    3  -0.0002151  -0.0002218   0.0001022  -0.0002786   0.0000532  -0.0000443
           25          26          27          28          29          30
    1  -0.0000965  -0.0001704  -0.0003729  -0.0003325   0.0003829  -0.0006119
    2  -0.0003309  -0.0001087   0.0002423  -0.0006151  -0.0000141  -0.0001555
    3  -0.0002579  -0.0002478  -0.0000587  -0.0006720   0.0004891  -0.0002587
           31          32          33          34          35
    1   0.0008399  -0.0001840   0.0001322   0.0000401   0.0000519
    2   0.0005775   0.0006404  -0.0000996  -0.0001132   0.0000768
    3  -0.0005930  -0.0006313   0.0000665  -0.0001051   0.0000235
 Max gradient component =       6.062E-03
 RMS gradient           =       1.297E-03
 Gradient time:  CPU 24.69 s  wall 1.14 s
 Geometry Optimization Parameters
   NAtoms,    NIC,     NZ,  NCons,   NDum,   NFix, NCnnct, MaxDiis
       35     275       0       2       0       0       0       0

 Cartesian Hessian Update
 Hessian Updated using BFGS Update


** CONSTRAINED OPTIMIZATION IN DELOCALIZED INTERNAL COORDINATES **
   Searching for a Minimum

   Optimization Cycle:   4

                       Coordinates (Angstroms)
     ATOM                X               Y               Z
      1  C         0.1143787477    0.7300548326    0.7002816208
      2  C         0.5008350630   -0.8066058362    0.7081787003
      3  C        -1.2150932478    1.0001901610   -0.0813345356
      4  C        -0.6009231317   -1.7114082419    0.0375096383
      5  O        -1.9503086757    2.0231872448    0.6016624616
      6  O        -1.6274405555    0.4123994349   -1.1077464436
      7  O        -1.7410343358   -1.7016714346    0.9168947864
      8  O        -0.5424849593   -2.4011609132   -1.0029934369
      9  C        -2.8484001421   -2.4890300953    0.3246320489
     10  C        -3.2216201571    2.3035641089   -0.1108949273
     11  C         1.3825238695    1.3722148309   -0.0247581152
     12  C         2.5919525914    1.3060833864    1.0001142155
     13  C         2.9764687745   -0.2152326470    0.9381233298
     14  C         1.8947465421   -0.7789334587   -0.0800294972
     15  O         1.7339772594    0.3452505858   -1.0380315354
     16  H        -0.0153511944    1.1262771749    1.7226647901
     17  H         0.6595259032   -1.1643917468    1.7409315999
     18  H        -2.5742261775   -3.5575148536    0.2045850569
     19  H        -3.8508075873    1.3936559114   -0.1928175647
     20  H         3.4180664842    1.9440469360    0.6473755722
     21  H         2.2983867558    1.6376717217    2.0088821291
     22  H         3.9860504583   -0.3516092429    0.5183798411
     23  H         2.9356792380   -0.7144006965    1.9193214177
     24  H        -3.6984146009   -2.4031961324    1.0269507545
     25  H        -3.1435042717   -2.0908451986   -0.6681310087
     26  H        -3.0400417743    2.6949988647   -1.1330624729
     27  H        -3.7489497363    3.0680650544    0.4892453872
     28  C         2.3124956156   -2.0764034517   -0.8236001482
     29  H         3.3372136875   -1.9710582837   -1.2111846794
     30  H         2.2793041874   -2.9338813062   -0.1344841696
     31  H         1.6170396477   -2.2687763310   -1.6538273212
     32  C         1.1456426741    2.7505327441   -0.6992331505
     33  H         2.0788404574    3.1073448756   -1.1604478277
     34  H         0.3749272611    2.6636552876   -1.4803149229
     35  H         0.8131387034    3.4861396481    0.0494006374
   Point Group: c1    Number of degrees of freedom:    99


   Energy is   -833.447193702

              Constraints and their Current Values
                                        Value     Constraint
   Dihedral:        2   1   3   5      142.300      142.300
   Dihedral:        1   2   4   7      -69.599      -69.600
 Hessian Updated using BFGS Update

   Using Lagrange Multiplier Algorithm


 91 Hessian modes will be used to form the next step
  Hessian Eigenvalues:
    -0.977726   -0.973140    0.024290    0.045000    0.045001    0.045002
     0.045047    0.045298    0.046397    0.048184    0.059249    0.060672
     0.066574    0.069959    0.071339    0.071801    0.074948    0.075692
     0.078271    0.080769    0.081084    0.081764    0.083160    0.083416
     0.083637    0.083838    0.084934    0.090071    0.091622    0.092040
     0.106446    0.108076    0.113878    0.114427    0.116263    0.116919
     0.116999    0.127850    0.131493    0.139834    0.145075    0.158727
     0.160322    0.161024    0.162300    0.168767    0.186885    0.238954
     0.246301    0.249254    0.249999    0.250062    0.250170    0.250755
     0.260746    0.268343    0.283391    0.285537    0.289934    0.306168
     0.306913    0.308849    0.320284    0.328197    0.337381    0.339255
     0.341067    0.341126    0.341374    0.341618    0.342503    0.342643
     0.342818    0.342867    0.343084    0.343479    0.343605    0.343690
     0.343750    0.343885    0.344091    0.345031    0.382337    0.411996
     0.448496    0.513273    0.546708    0.952654    0.988572    1.023053
     1.037963

 Minimum Search - Taking P-RFO Step
 Searching for Lamda that Maximizes Along the Constraint modes Only
 Value Taken    Lamda =   0.00000222
 Searching for Lamda that Minimizes Along All other modes
 Value Taken    Lamda =  -0.00074181
 Step Taken.  Stepsize is  0.154686

                             Maximum     Tolerance    Cnvgd?
         Gradient            0.003843       0.000300      NO
         Displacement        0.048995       0.001200      NO
         Energy change     -0.001079       0.000001      NO


 New Cartesian Coordinates Obtained by Inverse Iteration

 Displacement from previous Coordinates is:  0.456001
 Adding empirical dispersion correction 
 ----------------------------------------------------------------
 Doing -D3(op) with
 s6 =   1.00000
 s8 =   0.78311
 a1 =   0.30000
 a2 =   4.25000
 n  =  10.00000
 -D3 energy without 3body term =     -0.0410761486 hartrees
 ----------------------------------------------------------------
             Standard Nuclear Orientation (Angstroms)
    I     Atom           X                Y                Z
 ----------------------------------------------------------------
    1      C       0.1172849630     0.7217420217     0.7139644640
    2      C       0.5095624809    -0.8166470627     0.7217065519
    3      C      -1.2170842131     0.9932632444    -0.0587576083
    4      C      -0.5862370545    -1.7193529257     0.0389614234
    5      O      -1.9435109178     2.0176691319     0.6352795886
    6      O      -1.6382133101     0.4195045253    -1.0886875262
    7      O      -1.7337961763    -1.7122460010     0.9114649220
    8      O      -0.5331758340    -2.3738224804    -1.0233210672
    9      C      -2.8413085805    -2.4637078051     0.2752047079
   10      C      -3.2114547488     2.3030881778    -0.0809559224
   11      C       1.3766365711     1.3607221218    -0.0373988234
   12      C       2.5939032306     1.3172102488     0.9796405852
   13      C       2.9857205542    -0.2010346418     0.9364499880
   14      C       1.9023922264    -0.7854229310    -0.0671894457
   15      O       1.7166310607     0.3225785407    -1.0402434374
   16      H      -0.0005289817     1.1294626699     1.7330079017
   17      H       0.6527651576    -1.1708818790     1.7584412495
   18      H      -2.5800856319    -3.5308839194     0.1200097772
   19      H      -3.8415506924     1.3943908625    -0.1694055136
   20      H       3.4117567928     1.9598765327     0.6167032707
   21      H       2.2980595502     1.6564865316     1.9850351954
   22      H       3.9946294030    -0.3418515464     0.5173354929
   23      H       2.9433105109    -0.6869932144     1.9240642236
   24      H      -3.6980988776    -2.3895965617     0.9700009152
   25      H      -3.1147673979    -2.0231141610    -0.7059039095
   26      H      -3.0246703561     2.7000399945    -1.1000864617
   27      H      -3.7367595981     3.0650761617     0.5234939755
   28      C       2.3177686553    -2.0957665590    -0.7896490884
   29      H       3.3327536586    -1.9946675535    -1.2017638905
   30      H       2.3058442692    -2.9343450453    -0.0765849322
   31      H       1.5982874110    -2.3161651522    -1.5924508594
   32      C       1.1173057336     2.7310363045    -0.7203393760
   33      H       2.0384551711     3.0964937975    -1.1983832794
   34      H       0.3332288662     2.6293669012    -1.4859727023
   35      H       0.7875394784     3.4677046048     0.0285718418
 ----------------------------------------------------------------
 Molecular Point Group                 C1    NOp =  1
 Largest Abelian Subgroup              C1    NOp =  1
 Nuclear Repulsion Energy =  1371.4627872962 hartrees
 There are       65 alpha and       65 beta electrons
 Applying Cartesian multipole field
    Component          Value
    ---------          -----
     (2,0,0)        1.00000E-11
     (0,2,0)        2.00000E-11
     (0,0,2)       -3.00000E-11
 Nucleus-field energy     =     0.0000000378 hartrees
 Requested basis set is STO-3G
 There are 52 shells and 103 basis functions
 A cutoff of  1.0D-12 yielded   1200 shell pairs
 There are      5178 function pairs
 Smallest overlap matrix eigenvalue = 2.14E-01
 Guess MOs from SCF MO coefficient file
 Reading MOs from coefficient file
 Reading MOs from coefficient file
 A restricted hybrid HF-DFT SCF calculation will be
 performed using Pulay DIIS extrapolation
 Exchange:     0.2000 Hartree-Fock + 0.0800 Slater + 0.7200 B88
 Correlation:  0.1900 VWN1RPA + 0.8100 LYP
 Using SG-1 standard quadrature grid
 Dispersion:   Grimme D3
 SCF converges when DIIS error is below 1.0E-08
 Geometry optimization detected.  Setting ReadMinima to 0
 Setting SaveMinima to 0
 -------------------------------------------------------
 OpenMP Integral computing Module                
 Release: version 1.0, May 2013, Q-Chem Inc. Pittsburgh 
 -------------------------------------------------------
 -------------------------------------------------------
 OpenMP BLAS3 based DFT computing Module                
 Release: version 1.0, May 2013, Q-Chem Inc. Pittsburgh 
 -------------------------------------------------------
 ---------------------------------------
  Cycle       Energy         DIIS Error
 ---------------------------------------
    1    -833.4426034825      1.63E-03
    2    -833.4476264352      1.57E-04
    3    -833.4475614192      2.85E-04
    4    -833.4476749946      6.31E-05
    5    -833.4476803897      2.27E-05
    6    -833.4476811767      6.85E-06
    7    -833.4476812447      2.32E-06
    8    -833.4476812514      1.10E-06
    9    -833.4476812533      1.48E-07
   10    -833.4476812533      6.27E-08
   11    -833.4476812533      1.35E-08
   12    -833.4476812532      4.54E-09 Convergence criterion met
 ---------------------------------------
 SCF time:  CPU 116.83 s  wall 5.66 s
 SCF   energy in the final basis set = -833.4476812532
 Total energy in the final basis set = -833.4476812532
 
 --------------------------------------------------------------
 
                    Orbital Energies (a.u.)
 --------------------------------------------------------------
 
 Alpha MOs
 -- Occupied --
-18.934 -18.922 -18.874 -18.873 -18.870 -10.096 -10.092 -10.064
-10.061 -10.057 -10.056 -10.031 -10.030 -10.015 -10.014 -10.012
-10.002  -1.011  -1.000  -0.961  -0.934  -0.927  -0.759  -0.736
 -0.718  -0.674  -0.670  -0.653  -0.615  -0.588  -0.531  -0.511
 -0.478  -0.470  -0.451  -0.434  -0.423  -0.416  -0.413  -0.403
 -0.399  -0.385  -0.381  -0.378  -0.368  -0.363  -0.351  -0.342
 -0.335  -0.329  -0.311  -0.296  -0.293  -0.288  -0.286  -0.274
 -0.263  -0.253  -0.246  -0.223  -0.177  -0.169  -0.152  -0.143
 -0.136
 -- Virtual --
  0.095   0.114   0.232   0.255   0.268   0.288   0.303   0.322
  0.338   0.340   0.359   0.369   0.381   0.391   0.401   0.408
  0.414   0.420   0.424   0.426   0.431   0.432   0.438   0.440
  0.448   0.456   0.462   0.470   0.480   0.481   0.486   0.496
  0.505   0.514   0.546   0.556   0.649   0.658
 --------------------------------------------------------------
 
          Ground-State Mulliken Net Atomic Charges

     Atom                 Charge (a.u.)
  ----------------------------------------
      1 C                    -0.080645
      2 C                    -0.080768
      3 C                     0.209579
      4 C                     0.213869
      5 O                    -0.168802
      6 O                    -0.213953
      7 O                    -0.176544
      8 O                    -0.208017
      9 C                    -0.130055
     10 C                    -0.129141
     11 C                     0.105731
     12 C                    -0.145749
     13 C                    -0.145597
     14 C                     0.105304
     15 O                    -0.196226
     16 H                     0.084909
     17 H                     0.082898
     18 H                     0.086577
     19 H                     0.089642
     20 H                     0.074821
     21 H                     0.071403
     22 H                     0.074783
     23 H                     0.070444
     24 H                     0.086329
     25 H                     0.092161
     26 H                     0.087988
     27 H                     0.089969
     28 C                    -0.230611
     29 H                     0.077973
     30 H                     0.076242
     31 H                     0.102755
     32 C                    -0.227549
     33 H                     0.083500
[...]
 C          0.000  0.000 -0.000    0.000  0.000 -0.000   -0.001  0.000 -0.001
 C         -0.000 -0.000  0.000    0.015  0.031  0.021    0.020  0.039  0.021
 C         -0.001  0.001 -0.001   -0.032  0.023 -0.029    0.009 -0.012  0.017
 C          0.000  0.000 -0.000    0.000  0.000  0.000   -0.001 -0.000 -0.001
 O         -0.000 -0.000  0.000   -0.000 -0.000 -0.000    0.000 -0.000  0.000
 H          0.001 -0.001 -0.003   -0.007  0.023  0.063    0.004 -0.011 -0.031
 H         -0.003  0.007 -0.023   -0.045  0.089 -0.302    0.088 -0.176  0.599
 H         -0.105  0.408  0.010    0.007 -0.027 -0.001   -0.005  0.022  0.000
 H          0.275  0.362  0.047    0.001  0.002  0.000    0.001  0.001  0.000
 H          0.001  0.001 -0.000   -0.297 -0.240  0.149   -0.374 -0.303  0.186
 H          0.000 -0.000 -0.001    0.131 -0.132 -0.390    0.147 -0.147 -0.431
 H          0.017 -0.001 -0.007    0.413 -0.031 -0.162   -0.117  0.007  0.050
 H         -0.002 -0.009  0.020   -0.044 -0.239  0.504    0.021  0.122 -0.251
 H          0.223 -0.051 -0.203   -0.015  0.003  0.014    0.012 -0.003 -0.011
 H          0.109 -0.136  0.379   -0.008  0.009 -0.026    0.006 -0.007  0.020
 H         -0.105 -0.198  0.431   -0.000 -0.001  0.002   -0.000 -0.000  0.000
 H          0.133 -0.220 -0.201    0.001 -0.001 -0.001    0.000 -0.000 -0.000
 C          0.001 -0.001  0.000   -0.005  0.005  0.000    0.000  0.000  0.000
 H         -0.010 -0.003  0.004    0.074  0.019 -0.030    0.002  0.000 -0.001
 H         -0.001  0.010 -0.008    0.005 -0.067  0.054    0.000 -0.000  0.000
 H          0.003  0.001  0.004   -0.023 -0.010 -0.030   -0.002  0.000 -0.001
 C         -0.000  0.000  0.000   -0.001  0.003 -0.002   -0.001  0.003 -0.001
 H         -0.001 -0.000  0.001   -0.036 -0.015  0.019   -0.027 -0.011  0.014
 H          0.003  0.001  0.003    0.032  0.006  0.034    0.029  0.005  0.031
 H          0.002 -0.004 -0.004    0.017 -0.033 -0.031    0.014 -0.027 -0.025
 TransDip  -0.226 -0.013 -0.045   -0.067  0.162 -0.003    0.082  0.121  0.046

 Mode:                88                     89                     90
 Frequency:      3067.32                3090.50                3099.83
 Force Cnst:      5.9371                 6.2293                 6.2403
 Red. Mass:       1.0710                 1.1070                 1.1023
 IR Active:          YES                    YES                    YES
 IR Intens:       29.541                  0.155                 12.357
 Raman Active:       YES                    YES                    YES
               X      Y      Z        X      Y      Z        X      Y      Z
 C         -0.001  0.003  0.010   -0.001  0.002  0.007   -0.001  0.002  0.006
 C         -0.007  0.016 -0.053    0.001 -0.003  0.009    0.000 -0.000  0.000
 C          0.000 -0.000  0.000   -0.000  0.000  0.000   -0.000  0.000  0.000
 C          0.000 -0.000 -0.001   -0.000  0.000  0.000    0.000 -0.000 -0.000
 O         -0.000  0.000 -0.000    0.000 -0.000 -0.000   -0.000 -0.000 -0.000
 O         -0.000 -0.000 -0.000    0.000 -0.000  0.000    0.000 -0.000 -0.000
 O         -0.000 -0.000  0.000   -0.000 -0.000 -0.000   -0.000  0.000  0.000
 O         -0.000  0.000  0.000    0.000 -0.000 -0.000   -0.000  0.000  0.000
 C         -0.000 -0.000 -0.000    0.000  0.000 -0.000   -0.000  0.000  0.000
 C          0.000 -0.000  0.000   -0.000 -0.000  0.000    0.000  0.000 -0.000
 C          0.001 -0.001  0.000    0.001  0.000 -0.000    0.000  0.000 -0.000
 C         -0.008 -0.021 -0.013    0.042  0.011 -0.052    0.017  0.005 -0.020
 C         -0.035  0.018 -0.018   -0.041 -0.012  0.046    0.003  0.001 -0.004
 C         -0.000  0.001  0.000   -0.000 -0.000  0.000   -0.001 -0.001  0.001
 O          0.000 -0.000  0.000   -0.000  0.000  0.000   -0.000  0.000 -0.000
 H          0.013 -0.042 -0.116    0.007 -0.029 -0.077    0.007 -0.026 -0.070
 H          0.093 -0.186  0.635   -0.016  0.034 -0.115   -0.001  0.003 -0.010
 H         -0.002  0.009  0.000    0.000 -0.001 -0.000    0.001 -0.003 -0.000
 H         -0.004 -0.005 -0.001    0.000  0.000  0.000   -0.001 -0.001 -0.000
 H          0.182  0.147 -0.092   -0.359 -0.299  0.164   -0.143 -0.120  0.066
 H         -0.083  0.084  0.244   -0.143  0.166  0.456   -0.055  0.064  0.174
 H          0.433 -0.035 -0.165    0.468 -0.042 -0.166   -0.030  0.004  0.012
 H         -0.033 -0.177  0.371    0.020  0.184 -0.385   -0.002 -0.019  0.035
 H          0.004 -0.001 -0.004   -0.001  0.000  0.001    0.000 -0.000 -0.000
 H          0.002 -0.002  0.007   -0.000  0.000 -0.001    0.000 -0.000  0.000
 H          0.002  0.003 -0.007    0.000  0.000 -0.001    0.000  0.000 -0.000
 H         -0.002  0.003  0.003   -0.000  0.000  0.000   -0.000  0.000  0.000
 C         -0.003  0.004  0.000    0.008  0.011 -0.010   -0.043 -0.055  0.054
 H          0.053  0.013 -0.021   -0.110 -0.027  0.039    0.606  0.144 -0.222
 H          0.005 -0.052  0.041    0.013 -0.107  0.087   -0.064  0.529 -0.427
 H         -0.020 -0.009 -0.026   -0.002  0.001 -0.009   -0.022 -0.019 -0.000
 C          0.000 -0.001  0.001   -0.006 -0.000  0.002   -0.003  0.000  0.001
 H          0.010  0.004 -0.005    0.044  0.017 -0.021    0.026  0.011 -0.013
 H         -0.010 -0.001 -0.011    0.014  0.003  0.017    0.007  0.002  0.008
 H         -0.005  0.009  0.009    0.010 -0.022 -0.021    0.006 -0.014 -0.013
 TransDip  -0.121  0.050 -0.115    0.004  0.009 -0.008   -0.071 -0.061  0.063

 Mode:                91                     92                     93
 Frequency:      3108.45                3110.56                3115.99
 Force Cnst:      6.2819                 6.2753                 6.3081
 Red. Mass:       1.1034                 1.1008                 1.1027
 IR Active:          YES                    YES                    YES
 IR Intens:       15.340                 28.735                 20.745
 Raman Active:       YES                    YES                    YES
               X      Y      Z        X      Y      Z        X      Y      Z
 C          0.003 -0.009 -0.025   -0.003  0.008  0.023    0.000  0.001  0.001
 C          0.000 -0.000  0.002    0.000 -0.001  0.001    0.000 -0.000  0.001
 C          0.000 -0.001 -0.001   -0.001  0.000  0.000    0.000  0.000 -0.000
 C          0.000  0.000  0.000   -0.000 -0.000 -0.000   -0.000  0.000  0.000
 O         -0.000  0.000  0.000    0.000  0.000 -0.000    0.000 -0.000 -0.000
 O          0.000  0.000  0.000   -0.000 -0.000  0.000   -0.000 -0.000  0.000
 O         -0.000 -0.000  0.000    0.000  0.000 -0.000    0.000 -0.000  0.000
 O         -0.000 -0.000 -0.000    0.000  0.000  0.000    0.000 -0.000 -0.000
 C         -0.000  0.000 -0.000   -0.000  0.000 -0.000    0.000 -0.001  0.000
 C          0.000  0.001 -0.001    0.000  0.001 -0.001   -0.001 -0.002  0.002
 C         -0.000 -0.000 -0.000    0.001 -0.000 -0.002   -0.002 -0.001 -0.001
 C         -0.028 -0.009  0.033    0.015  0.005 -0.017   -0.008 -0.003  0.010
 C         -0.039 -0.012  0.045    0.016  0.005 -0.018   -0.005 -0.002  0.006
 C         -0.001 -0.001  0.001    0.000  0.000 -0.001   -0.000 -0.000  0.000
 O          0.000  0.000 -0.000   -0.000  0.000  0.000    0.000  0.000  0.000
 H         -0.032  0.108  0.295    0.029 -0.100 -0.271    0.002 -0.007 -0.019
 H         -0.002  0.006 -0.023   -0.003  0.004 -0.011   -0.001  0.003 -0.011
 H          0.001 -0.004 -0.000    0.000 -0.000 -0.000   -0.001  0.004  0.000
 H         -0.003 -0.004 -0.001   -0.004 -0.005 -0.001    0.011  0.015  0.003
 H          0.250  0.210 -0.116   -0.139 -0.116  0.063    0.074  0.060 -0.032
 H          0.088 -0.105 -0.278   -0.046  0.054  0.147    0.025 -0.029 -0.079
 H          0.453 -0.042 -0.160   -0.189  0.018  0.067    0.062 -0.006 -0.022
 H          0.019  0.182 -0.374   -0.008 -0.074  0.153    0.003  0.026 -0.052
 H         -0.000 -0.000 -0.000    0.000 -0.000 -0.000   -0.000  0.000  0.000
 H          0.000 -0.000  0.001    0.001 -0.001  0.002   -0.001  0.002 -0.005
 H         -0.002 -0.004  0.009   -0.002 -0.003  0.006    0.005  0.009 -0.020
 H          0.001 -0.001 -0.001    0.000  0.000  0.000    0.001 -0.003 -0.002
 C         -0.009 -0.012  0.013    0.004  0.004 -0.005   -0.001 -0.001  0.001
 H          0.142  0.032 -0.053   -0.055 -0.013  0.021    0.014  0.003 -0.005
 H         -0.014  0.113 -0.091    0.005 -0.042  0.034   -0.001  0.011 -0.009
 H         -0.011 -0.007 -0.009    0.005  0.003  0.004   -0.002 -0.001 -0.002
 C          0.033 -0.007 -0.028    0.042 -0.024 -0.065   -0.074 -0.036 -0.041
 H         -0.296 -0.124  0.145   -0.450 -0.193  0.218    0.426  0.173 -0.231
 H         -0.000 -0.003 -0.015    0.165  0.027  0.145    0.552  0.108  0.573
 H         -0.102  0.217  0.205   -0.217  0.450  0.425   -0.094  0.153  0.148
 TransDip  -0.082 -0.065  0.069    0.122  0.025 -0.118   -0.135 -0.055 -0.012

 Mode:                94                     95                     96
 Frequency:      3118.71                3122.03                3123.48
 Force Cnst:      6.2419                 6.3571                 6.3641
 Red. Mass:       1.0892                 1.1070                 1.1071
 IR Active:          YES                    YES                    YES
 IR Intens:       25.927                 20.122                 14.355
 Raman Active:       YES                    YES                    YES
               X      Y      Z        X      Y      Z        X      Y      Z
 C          0.007 -0.026 -0.070    0.000  0.000 -0.001   -0.000  0.000  0.000
 C         -0.002  0.004 -0.010   -0.000  0.000 -0.000    0.000 -0.000  0.000
 C          0.001 -0.001 -0.001   -0.000 -0.000  0.000    0.000  0.000  0.000
 C          0.000  0.000 -0.000    0.000  0.000 -0.000   -0.000 -0.000 -0.000
 O         -0.000  0.000  0.000   -0.000 -0.000  0.000   -0.000 -0.000  0.000
 O          0.000  0.000  0.001   -0.000 -0.000  0.000   -0.000 -0.000 -0.000
 O         -0.000 -0.000  0.000   -0.000 -0.000  0.000   -0.000  0.000 -0.000
 O         -0.000  0.000  0.000   -0.000 -0.000  0.000    0.000  0.000 -0.000
 C          0.000 -0.001  0.001   -0.003  0.007 -0.004    0.031 -0.075  0.048
 C         -0.001 -0.000  0.000    0.049  0.066 -0.046    0.005  0.006 -0.005
 C          0.000 -0.001 -0.001   -0.000 -0.000  0.000    0.000  0.000 -0.000
 C          0.018  0.002 -0.026    0.000 -0.000 -0.000   -0.000  0.000  0.000
 C          0.013  0.005 -0.017    0.000  0.000 -0.000   -0.000 -0.000  0.000
 C         -0.000  0.001 -0.001    0.000  0.000 -0.000    0.000 -0.000  0.000
 O         -0.000  0.000  0.001    0.000 -0.000  0.000   -0.000  0.000 -0.000
 H         -0.092  0.302  0.825   -0.001  0.002  0.005    0.001 -0.002 -0.006
 H          0.019 -0.041  0.129    0.000 -0.001  0.002   -0.000  0.001 -0.002
 H         -0.001  0.005  0.000    0.017 -0.066 -0.003   -0.180  0.684  0.031
 H          0.006  0.007  0.001   -0.419 -0.562 -0.092   -0.039 -0.052 -0.009
 H         -0.143 -0.120  0.066   -0.000 -0.000  0.000    0.000  0.000 -0.000
 H         -0.078  0.091  0.249   -0.000  0.001  0.001    0.000 -0.000 -0.001
 H         -0.155  0.015  0.055   -0.002  0.000  0.001    0.001 -0.000 -0.000
 H         -0.008 -0.075  0.153   -0.000 -0.001  0.003    0.000  0.001 -0.002
 H          0.001 -0.000 -0.001    0.004  0.000 -0.005   -0.020 -0.008  0.033
 H         -0.001  0.002 -0.005    0.015 -0.019  0.057   -0.171  0.212 -0.636
 H          0.000 -0.001  0.001   -0.145 -0.268  0.622   -0.014 -0.026  0.059
 H          0.002 -0.004 -0.004   -0.009  0.043  0.018   -0.002  0.006  0.003
 C          0.002  0.002 -0.002    0.000  0.000 -0.000   -0.000 -0.000  0.000
 H         -0.026 -0.006  0.010   -0.002 -0.000  0.001    0.002  0.000 -0.001
 H          0.003 -0.021  0.016    0.000 -0.001  0.001   -0.000  0.002 -0.002
 H          0.001  0.001  0.001    0.000  0.000 -0.000   -0.000 -0.000 -0.000
 C         -0.000 -0.006 -0.012   -0.003 -0.001 -0.000    0.000  0.000  0.000
 H         -0.020 -0.009  0.008    0.019  0.008 -0.010   -0.003 -0.001  0.001
 H          0.062  0.011  0.062    0.016  0.003  0.017   -0.003 -0.000 -0.003
 H         -0.038  0.077  0.071    0.000 -0.002 -0.002    0.000 -0.000 -0.000
 TransDip   0.057 -0.027 -0.150    0.070  0.102 -0.073    0.037 -0.102  0.054

 Mode:                97                     98                     99
 Frequency:      3152.51                3156.15                3165.66
 Force Cnst:      6.4790                 6.4916                 6.4741
 Red. Mass:       1.1065                 1.1061                 1.0965
 IR Active:          YES                    YES                    YES
 IR Intens:       14.023                 14.408                  2.257
 Raman Active:       YES                    YES                    YES
               X      Y      Z        X      Y      Z        X      Y      Z
 C         -0.000  0.000  0.000    0.000  0.000 -0.000    0.000 -0.000 -0.000
 C          0.000 -0.000 -0.000   -0.000  0.000 -0.000    0.000 -0.000 -0.000
 C         -0.000  0.000  0.000   -0.001 -0.000 -0.001    0.000 -0.000 -0.000
 C          0.000  0.001  0.001   -0.000  0.000 -0.000    0.000 -0.000 -0.000
 O          0.000 -0.000 -0.000   -0.000  0.000  0.000   -0.000  0.000  0.000
 O         -0.000 -0.000 -0.000    0.000  0.000  0.000    0.000  0.000  0.000
 O          0.000 -0.000 -0.000    0.000 -0.000  0.000   -0.000  0.000  0.000
 O         -0.000 -0.000 -0.000    0.000 -0.000  0.000   -0.001 -0.000  0.000
 C         -0.052  0.026  0.075    0.000  0.000 -0.001    0.000 -0.000 -0.000
 C         -0.000 -0.001 -0.000    0.019 -0.062 -0.068    0.000 -0.000 -0.000
 C          0.000  0.000  0.000   -0.000 -0.000  0.000    0.000 -0.000 -0.000
 C         -0.000  0.000  0.000    0.000 -0.000 -0.000   -0.000  0.000 -0.000
 C         -0.000 -0.000  0.000   -0.000  0.000 -0.000   -0.001  0.000  0.001
 C          0.000  0.000  0.000   -0.000  0.000 -0.000   -0.001  0.000 -0.001
 O         -0.000 -0.000 -0.000    0.000  0.000  0.000    0.000 -0.000  0.000
 H          0.000 -0.001 -0.002    0.000  0.000  0.002   -0.000  0.001  0.002
 H         -0.000 -0.000 -0.001    0.000 -0.000  0.000   -0.000 -0.001  0.003
 H          0.067 -0.282  0.009    0.000 -0.001 -0.000   -0.000  0.001 -0.000
 H          0.003  0.004  0.001    0.202  0.256  0.022    0.000  0.000  0.000
 H         -0.000 -0.000  0.000    0.000  0.000 -0.000    0.000  0.000 -0.000
 H          0.000 -0.000 -0.001   -0.000  0.000  0.001   -0.000  0.000  0.001
 H          0.000 -0.000 -0.000    0.000 -0.000 -0.000    0.011  0.000 -0.003
 H          0.000  0.000 -0.000   -0.000 -0.000  0.000    0.000  0.002 -0.005
 H          0.647 -0.149 -0.591   -0.004  0.001  0.003   -0.003  0.001  0.002
 H         -0.099  0.121 -0.304    0.001 -0.001  0.004    0.000 -0.000  0.001
 H          0.000  0.000 -0.001   -0.061 -0.127  0.239   -0.000 -0.000  0.000
 H         -0.002  0.003  0.003   -0.364  0.607  0.553   -0.000  0.001  0.001
 C         -0.000  0.000 -0.000    0.000  0.000  0.000   -0.063 -0.014 -0.063
 H         -0.000 -0.000  0.000    0.000  0.000 -0.000    0.198  0.052 -0.086
 H          0.000 -0.001  0.001   -0.000  0.000 -0.000    0.003 -0.154  0.113
 H          0.003  0.001  0.003   -0.001 -0.000 -0.001    0.566  0.261  0.720
 C         -0.000  0.000  0.000   -0.000 -0.000 -0.000   -0.000 -0.000 -0.000
 H         -0.000 -0.000  0.000    0.001  0.001 -0.001    0.000  0.000 -0.000
 H         -0.000  0.000 -0.000    0.001  0.000  0.002    0.001  0.000  0.001
 H          0.000 -0.000 -0.000   -0.000  0.001  0.001   -0.000  0.001  0.000
 TransDip  -0.083  0.022  0.084    0.045 -0.085 -0.075   -0.024 -0.004 -0.041

 STANDARD THERMODYNAMIC QUANTITIES AT   298.15 K  AND     1.00 ATM

   This Molecule has  0 Imaginary Frequencies
   Zero point vibrational energy:      183.643 kcal/mol

   Atom    1 Element C  Has Mass   12.00000
   Atom    2 Element C  Has Mass   12.00000
   Atom    3 Element C  Has Mass   12.00000
   Atom    4 Element C  Has Mass   12.00000
   Atom    5 Element O  Has Mass   15.99491
   Atom    6 Element O  Has Mass   15.99491
   Atom    7 Element O  Has Mass   15.99491
   Atom    8 Element O  Has Mass   15.99491
   Atom    9 Element C  Has Mass   12.00000
   Atom   10 Element C  Has Mass   12.00000
   Atom   11 Element C  Has Mass   12.00000
   Atom   12 Element C  Has Mass   12.00000
   Atom   13 Element C  Has Mass   12.00000
   Atom   14 Element C  Has Mass   12.00000
   Atom   15 Element O  Has Mass   15.99491
   Atom   16 Element H  Has Mass    1.00783
   Atom   17 Element H  Has Mass    1.00783
   Atom   18 Element H  Has Mass    1.00783
   Atom   19 Element H  Has Mass    1.00783
   Atom   20 Element H  Has Mass    1.00783
   Atom   21 Element H  Has Mass    1.00783
   Atom   22 Element H  Has Mass    1.00783
   Atom   23 Element H  Has Mass    1.00783
   Atom   24 Element H  Has Mass    1.00783
   Atom   25 Element H  Has Mass    1.00783
   Atom   26 Element H  Has Mass    1.00783
   Atom   27 Element H  Has Mass    1.00783
   Atom   28 Element C  Has Mass   12.00000
   Atom   29 Element H  Has Mass    1.00783
   Atom   30 Element H  Has Mass    1.00783
   Atom   31 Element H  Has Mass    1.00783
   Atom   32 Element C  Has Mass   12.00000
   Atom   33 Element H  Has Mass    1.00783
   Atom   34 Element H  Has Mass    1.00783
   Atom   35 Element H  Has Mass    1.00783
   Molecular Mass:   242.115490 amu
   Principal axes and moments of inertia in amu*Bohr^2:
                             1           2           3
    Eigenvalues --     2979.74177  3613.60000  5612.33424
          X               0.99991    -0.01218     0.00559
          Y               0.01220     0.99991    -0.00465
          Z              -0.00553     0.00472     0.99997
   Rotational Symmetry Number is   1
   The Molecule is an Asymmetric Top
   Translational Enthalpy:        0.889 kcal/mol
   Rotational Enthalpy:           0.889 kcal/mol
   Vibrational Enthalpy:        192.696 kcal/mol
   gas constant (RT):             0.592 kcal/mol
   Translational Entropy:        42.354  cal/mol.K
   Rotational Entropy:           32.469  cal/mol.K
   Vibrational Entropy:          58.090  cal/mol.K

   Total Enthalpy:              195.066 kcal/mol
   Total Entropy:               132.912  cal/mol.K
Archival summary:
1\1\nid04253\FREQ\ProcedureUnspecified\BasisUnspecified\51218\junteng\WedOct422:38:502017WedOct422:38:502017\0\\#,FREQ,ProcedureUnspecified,BasisUnspecified,\\0,1\O\C,1,1.43112\C,1,1.44173,2,99.1245\C,2,1.51291,1,110.864,3,179.325,0\H,4,1.09149,2,110.82,1,56.7834,0\H,4,1.0919,2,109.698,1,-62.7357,0\H,4,1.09285,2,110.551,1,177.518,0\C,3,1.51347,1,110.703,2,-176.417,0\H,8,1.08659,3,111.095,1,-55.4382,0\H,8,1.09259,3,109.161,1,65.5609,0\H,8,1.09334,3,110.348,1,-175.338,0\C,2,1.55023,1,102.623,3,55.0681,0\H,12,1.09167,2,112.511,1,-155.289,0\H,12,1.09181,2,109.587,1,84.6755,0\C,12,1.5498,2,101.461,1,-33.1913,0\H,15,1.09128,12,111.244,2,116.871,0\H,15,1.09198,12,113.742,2,-121.185,0\C,3,1.56408,1,102.187,2,55.554,0\H,18,1.09303,3,109.978,1,-147.587,0\C,18,1.52252,3,118.02,1,92.7833,0\O,20,1.2018,18,128.209,3,3.48332,0\O,20,1.35679,18,108.571,3,-179.728,0\C,22,1.43913,20,115.76,18,174.793,0\H,23,1.08806,22,105.474,20,-179.481,0\H,23,1.09095,22,110.728,20,60.8814,0\H,23,1.0912,22,109.84,20,-60.1267,0\C,18,1.56704,3,101.759,1,-32.7131,0\H,27,1.08838,18,111.746,3,-117.928,0\C,27,1.51201,18,115.318,3,118.866,0\O,29,1.20569,27,126.44,18,-38.3646,0\O,29,1.35287,27,110.242,18,144.455,0\C,31,1.43956,29,115.897,27,176.728,0\H,32,1.08777,31,105.473,29,178.051,0\H,32,1.0909,31,110.466,29,58.4554,0\H,32,1.09129,31,110.493,29,-62.4089,0\\\@

 Total job time:  14266.41s(wall), 84776.87s(cpu) 
 Wed Oct  4 22:38:51 2017

        *************************************************************
        *                                                           *
        *  Thank you very much for using Q-Chem.  Have a nice day.  *
        *                                                           *
        *************************************************************


