                  Welcome to Q-Chem
     A Quantum Leap Into The Future Of Chemistry


 Q-Chem 4.4, Q-Chem, Inc., Pleasanton, CA (2016)

 Y. Shao,  Z. Gan,  E. Epifanovsky,  A. T. B. Gilbert,  M. Wormit,  
 J. Kussmann,  A. W. Lange,  A. Behn,  J. Deng,  X. Feng,  D. Ghosh,  
 M. Goldey,  P. R. Horn,  L. D. Jacobson,  I. Kaliman,  R. Z. Khaliullin,  
 T. Kus,  A. Landau,  J. Liu,  E. I. Proynov,  Y. M. Rhee,  R. M. Richard,  
 M. A. Rohrdanz,  R. P. Steele,  E. J. Sundstrom,  H. L. Woodcock III,  
 P. M. Zimmerman,  D. Zuev,  B. Albrecht,  E. Alguire,  B. Austin,  
 S. A. Baeppler,  G. J. O. Beran,  Y. A. Bernard,  E. Berquist,  
 K. Brandhorst,  K. B. Bravaya,  S. T. Brown,  D. Casanova,  C.-M. Chang,  
 Y. Chen,  S. H. Chien,  K. D. Closser,  M. P. Coons,  D. L. Crittenden,  
 S. Dasgupta,  M. Diedenhofen,  R. A. DiStasio Jr.,  H. Do,  A. D. Dutoi,  
 R. G. Edgar,  P.-T. Fang,  S. Fatehi,  Q. Feng,  L. Fusti-Molnar,  
 A. Ghysels,  A. Golubeva-Zadorozhnaya,  J. Gomes,  A. Gunina,  
 M. W. D. Hanson-Heine,  P. H. P. Harbach,  A. W. Hauser,  E. G. Hohenstein,  
 Z. C. Holden,  K. Hui,  T.-C. Jagau,  H. Ji,  B. Kaduk,  K. Khistyaev,  
 Jaehoon Kim,  Jihan Kim,  R. A. King,  P. Klunzinger,  D. Kosenkov,  
 T. Kowalczyk,  C. M. Krauter,  A. Kunitsa,  K. U. Lao,  A. Laurent,  
 K. V. Lawler,  D. Lefrancois,  S. Lehtola,  S. V. Levchenko,  C. Y. Lin,  
 Y.-S. Lin,  F. Liu,  E. Livshits,  R. C. Lochan,  A. Luenser,  P. Manohar,  
 S. F. Manzer,  S.-P. Mao,  Y. Mao,  N. Mardirossian,  A. V. Marenich,  
 L. A. Martinez-Martinez,  S. A. Maurer,  N. J. Mayhall,  J.-M. Mewes,  
 A. F. Morrison,  K. Nanda,  C. M. Oana,  R. Olivares-Amaya,  D. P. O'Neill,  
 J. A. Parkhill,  T. M. Perrine,  R. Peverati,  P. A. Pieniazek,  F. Plasser,  
 A. Prociuk,  D. R. Rehn,  E. Rosta,  N. J. Russ,  N. Sergueev,  
 S. M. Sharada,  S. Sharma,  D. W. Small,  A. Sodt,  T. Stauch,  T. Stein,  
 D. Stuck,  Y.-C. Su,  A. J. W. Thom,  T. Tsuchimochi,  L. Vogt,  O. Vydrov,  
 T. Wang,  M. A. Watson,  J. Wenzel,  A. White,  C. F. Williams,  
 V. Vanovschi,  S. Yeganeh,  S. R. Yost,  Z.-Q. You,  I. Y. Zhang,  X. Zhang,  
 Y. Zhao,  B. R. Brooks,  G. K. L. Chan,  D. M. Chipman,  C. J. Cramer,  
 W. A. Goddard III,  M. S. Gordon,  W. J. Hehre,  A. Klamt,  
 H. F. Schaefer III,  M. W. Schmidt,  C. D. Sherrill,  D. G. Truhlar,  
 A. Warshel,  X. Xu,  A. Aspuru-Guzik,  R. Baer,  A. T. Bell,  N. A. Besley,  
 J.-D. Chai,  A. Dreuw,  B. D. Dunietz,  T. R. Furlani,  S. R. Gwaltney,  
 C.-P. Hsu,  Y. Jung,  J. Kong,  D. S. Lambrecht,  W. Liang,  C. Ochsenfeld,  
 V. A. Rassolov,  L. V. Slipchenko,  J. E. Subotnik,  T. Van Voorhis,  
 J. M. Herbert,  A. I. Krylov,  P. M. W. Gill,  M. Head-Gordon

 Contributors to earlier versions of Q-Chem not listed above: 
 R. D. Adamson,  J. Baker,  E. F. C. Byrd,  A. K. Chakraborty,  C.-L. Cheng,  
 H. Dachsel,  R. J. Doerksen,  G. Hawkins,  A. Heyden,  S. Hirata,  
 G. Kedziora,  F. J. Keil,  C. Kelley,  P. P. Korambath,  W. Kurlancheek,  
 A. M. Lee,  M. S. Lee,  D. Liotard,  I. Lotan,  P. E. Maslen,  N. Nair,  
 D. Neuhauser,  R. Olson,  B. Peters,  J. Ritchie,  N. E. Schultz,  
 N. Shenvi,  A. C. Simmonett,  K. S. Thanthiriwatte,  Q. Wu,  W. Zhang

 Please cite Q-Chem as follows:
 Y. Shao et al., Mol. Phys. 113, 184-215 (2015)
 DOI: 10.1080/00268976.2014.952696

 Q-Chem 4.3.0 for Intel X86 EM64T Linux

 Parts of Q-Chem use Armadillo 5.200.1 (Boston Tea Smuggler).
 http://arma.sourceforge.net/

 Q-Chem begins on Mon Oct  2 23:21:01 2017  

Host: nid06079
0

     Scratch files written to /global/cscratch1/sd/junteng/scratch/16/opt_10n01.save//

Checking the input file for inconsistencies... 	...done.

--------------------------------------------------------------
User input:
--------------------------------------------------------------
$molecule
0  1
C    0.355  -2.424   0.293
C   -0.264  -2.685   1.524
C    0.749  -1.045  -0.086
C   -0.385  -1.681   2.598
O    1.805  -1.090  -0.938
O    0.175  -0.038   0.291
O    0.833  -1.128   2.820
O   -1.397  -1.517   3.259
C    0.836  -0.152   3.862
C    2.258   0.195  -1.365
C    0.489  -3.469  -0.639
C    0.011  -4.748  -0.345
C   -0.620  -4.996   0.872
C   -0.760  -3.969   1.804
H    0.142   0.662   3.629
H    1.480   0.699  -1.947
H   -1.003  -5.990   1.096
H    0.581  -0.616   4.820
H    1.845   0.263   3.935
H    3.132   0.050  -2.006
H    2.557   0.804  -0.506
H    0.116  -5.548  -1.075
H   -1.248  -4.169   2.757
H    0.945  -3.290  -1.611
$end


$opt
CONSTRAINT
tors    2    1    3    5    155.0
tors    1    2    4    7    -50.0
ENDCONSTRAINT
$end

$rem
JOBTYPE                   OPT
METHOD                    B3LYP
DFT_D                     EMPIRICAL_GRIMME3
BASIS                     6-31G*
GEOM_OPT_MAX_CYCLES       500
GEOM_OPT_TOL_GRADIENT     5
GEOM_OPT_TOL_DISPLACEMENT 5
GEOM_OPT_TOL_ENERGY       5
SYMMETRY                  False
THRESH                    12
SCF_CONVERGENCE           8
MAX_SUB_FILE_NUM          128
MEM_STATIC                400
MEM_TOTAL                 4000
$end

--------------------------------------------------------------
 ----------------------------------------------------------------
             Standard Nuclear Orientation (Angstroms)
    I     Atom           X                Y                Z
 ----------------------------------------------------------------
    1      C       0.0048685472    -0.8715632622    -0.0674007052
    2      C      -1.0919198482     0.0016590604    -0.1017662538
    3      C       1.3789608532    -0.3820370773    -0.3371273238
    4      C      -0.9567219841     1.4673235547    -0.2001640574
    5      O       2.2778658221    -1.1635542316     0.3142295632
    6      O       1.6428666882     0.5580963624    -1.0666181229
    7      O      -0.0793961891     1.8906553810     0.7430785488
    8      O      -1.6538448556     2.1636006328    -0.9193155941
    9      C       0.1112497942     3.3055484230     0.7520668044
   10      C       3.6362803702    -0.7724170820     0.1130215962
   11      C      -0.2239907215    -2.2487533468     0.1045757645
   12      C      -1.5242777058    -2.7411486134     0.2370961776
   13      C      -2.6105318253    -1.8705883996     0.1829583704
   14      C      -2.3975725218    -0.5036921638     0.0120899544
   15      H       0.4798571535     3.6504889134    -0.2193577541
   16      H       3.9131930930    -0.8856432273    -0.9398426800
   17      H      -3.6244084650    -2.2560700247     0.2743863539
   18      H      -0.8213882332     3.8144524380     1.0152929683
   19      H       0.8618027747     3.5417630810     1.5113479505
   20      H       4.2706392529    -1.4319291517     0.7116990033
   21      H       3.7952127220     0.2573747806     0.4483307479
   22      H      -1.6901414468    -3.8088449794     0.3653096299
   23      H      -3.2494252071     0.1741533752    -0.0229161569
   24      H       0.6066568830    -2.9521169215     0.1126528134
 ----------------------------------------------------------------
 Molecular Point Group                 C1    NOp =  1
 Largest Abelian Subgroup              C1    NOp =  1
 Nuclear Repulsion Energy =   889.7634191615 hartrees
 There are       51 alpha and       51 beta electrons
 Requested basis set is 6-31G(d)
 There are 76 shells and 230 basis functions

 Total QAlloc Memory Limit   4000 MB
 Mega-Array Size       392 MB
 MEM_STATIC part       400 MB
 A cutoff of  1.0D-12 yielded   2326 shell pairs
 There are     23169 function pairs
 
 -------------------------------------------------------
 OpenMP Integral Computing Module                       
 Release: version 1.0, May 2013, Q-Chem Inc. Pittsburgh 
 -------------------------------------------------------
 Integral Job Info:
 Integral job number is                      11
 Integral operator is                         1
 short-range coefficients                     0
 long-range coefficients              100000000
 Omega coefficients                           0
 if combine SR and LR in K                    0
 Integral screening is                        0
 Integral computing path is                   2
 max size of driver memory is            800000
 size of driver memory is                593474
 size of scratch memory is              2260544
 max col of scratch BK array               1296
 max len of scratch array in speh3          155
 max len of scratch index in speh4           18
 max int batch size is                      520
 min int batch size is                       52
 fixed nKL is                                52
 max L of basis functions is                  2
 order of int derivative is                   0
 number of shells is                         76
 number of basis is                         230
 number of cartesian basis is               230
 number of contracted shell pairs          2326
 number of primitive shell pairs           8446
 maxK2 (contraction) of shell pair           36
 max number of K2 of shell pair               1
 max number of CS2 of shell pair            259
 max number of PS2 of shell pair           1464
 mem total for path MDJ                   71128
 -------------------------------------------------------
 Smallest overlap matrix eigenvalue = 3.88E-04

 Scale SEOQF with 1.000000e-01/1.000000e-01/1.000000e+00

 Standard Electronic Orientation quadrupole field applied
 Nucleus-field energy     =     0.0000000031 hartrees
 Guess from superposition of atomic densities
 Warning:  Energy on first SCF cycle will be non-variational
 A restricted hybrid HF-DFT SCF calculation will be
 performed using Pulay DIIS extrapolation
 Exchange:     0.2000 Hartree-Fock + 0.0800 Slater + 0.7200 B88
 Correlation:  0.1900 VWN1RPA + 0.8100 LYP
 Using SG-1 standard quadrature grid
 Dispersion:   Grimme D3
 SCF converges when DIIS error is below 1.0E-08
 using 24 threads for integral computing 
 -------------------------------------------------------
 OpenMP BLAS3 based DFT computing Module                
 Release: version 1.0, May 2013, Q-Chem Inc. Pittsburgh 
 -------------------------------------------------------
 ---------------------------------------
  Cycle       Energy         DIIS Error
 ---------------------------------------
    1    -690.9174573013      5.30E-02
    2    -687.7629770859      6.70E-03
    3    -687.2325569999      1.24E-02
    4    -687.9728261032      2.59E-03
    5    -688.0095263121      7.44E-04
    6    -688.0119962572      2.55E-04
    7    -688.0123427966      7.03E-05
    8    -688.0123698048      2.61E-05
    9    -688.0123742147      7.80E-06
   10    -688.0123745786      2.52E-06
   11    -688.0123746016      1.52E-06
   12    -688.0123746137      1.74E-07
   13    -688.0123746139      5.55E-08
   14    -688.0123746139      2.85E-08
   15    -688.0123746139      8.48E-09 Convergence criterion met
 ---------------------------------------
 SCF time:  CPU 123.74 s  wall 8.98 s
 SCF   energy in the final basis set = -688.0123746139
 Total energy in the final basis set = -688.0123746139
 
 --------------------------------------------------------------
 
                    Orbital Energies (a.u.)
 --------------------------------------------------------------
 
 Alpha MOs
 -- Occupied --
-19.201 -19.192 -19.141 -19.135 -10.322 -10.315 -10.244 -10.235
-10.217 -10.215 -10.208 -10.207 -10.206 -10.206  -1.107  -1.098
 -1.019  -1.012  -0.874  -0.786  -0.776  -0.729  -0.717  -0.645
 -0.629  -0.584  -0.564  -0.540  -0.510  -0.493  -0.482  -0.479
 -0.474  -0.469  -0.452  -0.444  -0.422  -0.418  -0.406  -0.389
 -0.376  -0.368  -0.363  -0.360  -0.352  -0.310  -0.296  -0.283
 -0.278  -0.263  -0.257
 -- Virtual --
 -0.052  -0.026   0.028   0.046   0.089   0.109   0.120   0.126
  0.135   0.144   0.153   0.160   0.164   0.170   0.173   0.181
  0.182   0.244   0.249   0.271   0.285   0.297   0.314   0.347
  0.385   0.387   0.412   0.489   0.501   0.504   0.516   0.526
  0.531   0.536   0.543   0.553   0.559   0.567   0.577   0.591
  0.593   0.600   0.611   0.626   0.640   0.646   0.668   0.681
  0.703   0.716   0.725   0.735   0.764   0.804   0.817   0.824
  0.827   0.834   0.844   0.849   0.856   0.866   0.875   0.884
  0.906   0.915   0.930   0.939   0.942   0.959   0.973   1.001
  1.027   1.046   1.053   1.078   1.094   1.104   1.121   1.152
  1.178   1.192   1.214   1.234   1.242   1.262   1.268   1.334
  1.371   1.380   1.401   1.430   1.435   1.458   1.460   1.471
  1.488   1.516   1.533   1.558   1.637   1.648   1.666   1.691
  1.719   1.734   1.773   1.792   1.799   1.816   1.838   1.852
  1.865   1.884   1.909   1.912   1.966   1.977   1.999   2.006
  2.015   2.019   2.037   2.055   2.085   2.096   2.102   2.110
  2.131   2.156   2.167   2.185   2.251   2.268   2.289   2.294
  2.300   2.317   2.328   2.379   2.401   2.415   2.480   2.533
  2.548   2.581   2.600   2.635   2.665   2.672   2.684   2.702
  2.750   2.784   2.797   2.828   2.842   2.917   2.953   2.975
  3.059   3.123   3.144   3.258   3.431   3.975   4.016   4.063
  4.083   4.108   4.200   4.236   4.251   4.264   4.360   4.399
  4.438   4.561   4.772
 --------------------------------------------------------------
 
          Ground-State Mulliken Net Atomic Charges

     Atom                 Charge (a.u.)
  ----------------------------------------
      1 C                     0.065811
      2 C                     0.070761
      3 C                     0.574602
      4 C                     0.554614
      5 O                    -0.450804
      6 O                    -0.487719
      7 O                    -0.439969
      8 O                    -0.483323
      9 C                    -0.221201
     10 C                    -0.220977
     11 C                    -0.169181
     12 C                    -0.122819
     13 C                    -0.122836
     14 C                    -0.163780
     15 H                     0.178793
     16 H                     0.170815
     17 H                     0.142917
     18 H                     0.166379
     19 H                     0.160960
     20 H                     0.165291
     21 H                     0.171969
     22 H                     0.140839
     23 H                     0.161352
     24 H                     0.157504
  ----------------------------------------
  Sum of atomic charges =     0.000000

 -----------------------------------------------------------------
                    Cartesian Multipole Moments
 -----------------------------------------------------------------
    Charge (ESU x 10^10)
                -0.0000
    Dipole Moment (Debye)
         X       1.2680      Y      -2.0721      Z       2.3337
       Tot       3.3687
    Quadrupole Moments (Debye-Ang)
        XX     -67.8293     XY       4.0291     YY     -70.5856
        XZ      -1.2721     YZ       6.0559     ZZ     -84.5296
    Octopole Moments (Debye-Ang^2)
       XXX      37.7058    XXY     -19.9126    XYY       9.6539
       YYY      17.1591    XXZ      11.1418    XYZ      -0.7264
       YYZ      16.4164    XZZ       9.5248    YZZ       6.0242
       ZZZ      -0.1972
    Hexadecapole Moments (Debye-Ang^3)
      XXXX   -1450.7773   XXXY     -20.5218   XXYY    -541.0101
      XYYY      39.6287   YYYY   -1452.6070   XXXZ       1.6620
      XXYZ      13.8824   XYYZ     -18.0985   YYYZ      31.6801
      XXZZ    -332.4929   XYZZ      -9.3738   YYZZ    -313.7842
      XZZZ       3.1587   YZZZ       6.2248   ZZZZ    -211.2932
 -----------------------------------------------------------------
 Calculating analytic gradient of the SCF energy
 Gradient of SCF Energy
            1           2           3           4           5           6
    1   0.0057362   0.0099237   0.0038338   0.0092723  -0.0025773  -0.0052355
    2   0.0108259   0.0112327  -0.0017462  -0.0047123  -0.0082204   0.0094626
    3   0.0001276   0.0024344   0.0028331  -0.0008564   0.0035563  -0.0089346
            7           8           9          10          11          12
    1   0.0041913  -0.0139303  -0.0050980  -0.0111800   0.0024114  -0.0027226
    2  -0.0080219   0.0009636  -0.0102412   0.0013492   0.0018467   0.0010405
    3   0.0076796  -0.0108180  -0.0029425  -0.0003819  -0.0005069   0.0008320
           13          14          15          16          17          18
    1   0.0019641  -0.0012925   0.0033695   0.0003116  -0.0011060   0.0005310
    2  -0.0008458   0.0007867   0.0001445  -0.0039332  -0.0008014  -0.0003419
    3  -0.0005728   0.0007722   0.0003573   0.0002095   0.0000702   0.0035175
           19          20          21          22          23          24
    1   0.0002164   0.0050200   0.0010228  -0.0008591  -0.0041443   0.0003418
    2   0.0054718   0.0022473  -0.0006145  -0.0009284  -0.0005417  -0.0044225
    3  -0.0006037  -0.0011618   0.0038177   0.0001179   0.0005821  -0.0001288
 Max gradient component =       1.393E-02
 RMS gradient           =       4.864E-03
 Gradient time:  CPU 45.00 s  wall 4.58 s
 Geometry Optimization Parameters
   NAtoms,    NIC,     NZ,  NCons,   NDum,   NFix, NCnnct, MaxDiis
       24     152       0       2       0       0       0       0


** CONSTRAINED OPTIMIZATION IN DELOCALIZED INTERNAL COORDINATES **
   Searching for a Minimum

   Optimization Cycle:   1

                       Coordinates (Angstroms)
     ATOM                X               Y               Z
      1  C         0.0048685472   -0.8715632622   -0.0674007052
      2  C        -1.0919198482    0.0016590604   -0.1017662538
      3  C         1.3789608532   -0.3820370773   -0.3371273238
      4  C        -0.9567219841    1.4673235547   -0.2001640574
      5  O         2.2778658221   -1.1635542316    0.3142295632
      6  O         1.6428666882    0.5580963624   -1.0666181229
      7  O        -0.0793961891    1.8906553810    0.7430785488
      8  O        -1.6538448556    2.1636006328   -0.9193155941
      9  C         0.1112497942    3.3055484230    0.7520668044
     10  C         3.6362803702   -0.7724170820    0.1130215962
     11  C        -0.2239907215   -2.2487533468    0.1045757645
     12  C        -1.5242777058   -2.7411486134    0.2370961776
     13  C        -2.6105318253   -1.8705883996    0.1829583704
     14  C        -2.3975725218   -0.5036921638    0.0120899544
     15  H         0.4798571535    3.6504889134   -0.2193577541
     16  H         3.9131930930   -0.8856432273   -0.9398426800
     17  H        -3.6244084650   -2.2560700247    0.2743863539
     18  H        -0.8213882332    3.8144524380    1.0152929683
     19  H         0.8618027747    3.5417630810    1.5113479505
     20  H         4.2706392529   -1.4319291517    0.7116990033
     21  H         3.7952127220    0.2573747806    0.4483307479
     22  H        -1.6901414468   -3.8088449794    0.3653096299
     23  H        -3.2494252071    0.1741533752   -0.0229161569
     24  H         0.6066568830   -2.9521169215    0.1126528134
   Point Group: c1    Number of degrees of freedom:    66


   Energy is   -688.012374614

              Constraints and their Current Values
                                        Value     Constraint
   Dihedral:        2   1   3   5      152.312      155.000
   Dihedral:        1   2   4   7      -50.252      -50.000

 Attempting to Generate Delocalized Internal Coordinates

   Using Lagrange Multiplier Algorithm


 68 Hessian modes will be used to form the next step
  Hessian Eigenvalues:
    -0.977753   -0.977753    0.045000    0.045000    0.045000    0.045000
     0.045000    0.045000    0.045001    0.045001    0.045002    0.045005
     0.045013    0.045027    0.045031    0.045181    0.045530    0.113864
     0.113915    0.116869    0.116916    0.159954    0.159981    0.159993
     0.160000    0.160000    0.160000    0.160000    0.160000    0.160000
     0.160000    0.219995    0.224790    0.244310    0.248434    0.248766
     0.249810    0.249910    0.250000    0.250000    0.250000    0.250000
     0.341816    0.342672    0.342857    0.342897    0.342929    0.344092
     0.344169    0.349054    0.349829    0.349904    0.350351    0.351283
     0.412994    0.413052    0.413205    0.417941    0.448645    0.456536
     0.460014    0.465920    0.534366    0.537734    0.954630    0.958839
     1.022753    1.022753

 Minimum Search - Taking P-RFO Step
 Searching for Lamda that Maximizes Along the Constraint modes Only
 Value Taken    Lamda =   0.00112760
 Searching for Lamda that Minimizes Along All other modes
 Value Taken    Lamda =  -0.00879932
 Step Taken.  Stepsize is  0.199391

                             Maximum     Tolerance    Cnvgd?
         Gradient            0.046907       0.000005      NO
         Displacement        0.072487       0.000005      NO
         Energy change     *********       0.000000      NO


 New Cartesian Coordinates Obtained by Inverse Iteration

 Displacement from previous Coordinates is:  0.593738
 ----------------------------------------------------------------
             Standard Nuclear Orientation (Angstroms)
    I     Atom           X                Y                Z
 ----------------------------------------------------------------
    1      C      -0.0103539980    -0.9022254063    -0.0148302928
    2      C      -1.1074328075    -0.0201809473    -0.0567525636
    3      C       1.3775500266    -0.4016149181    -0.2649056810
    4      C      -0.9703104181     1.4706429724    -0.1401026589
    5      O       2.3190799333    -1.1817199903     0.3175860984
    6      O       1.6583576232     0.5511291313    -0.9604453235
    7      O      -0.1158314763     1.9563553160     0.7888977547
    8      O      -1.6098527590     2.1797988592    -0.8858649998
    9      C       0.1009721400     3.3727910679     0.7325213224
   10      C       3.6748453234    -0.7807623266     0.0754241501
   11      C      -0.2435734962    -2.2775534950     0.1254091010
   12      C      -1.5431291502    -2.7722774530     0.2196495708
   13      C      -2.6282563593    -1.8970680467     0.1568432011
   14      C      -2.4082419559    -0.5281958862     0.0128242049
   15      H       0.4951219293     3.6616248274    -0.2456936932
   16      H       3.9191997453    -0.8474840311    -0.9889707601
   17      H      -3.6437459620    -2.2790059176     0.2165471083
   18      H      -0.8279714220     3.9161166706     0.9304941137
   19      H       0.8354218512     3.5917953989     1.5104942449
   20      H       4.2947498629    -1.4765130618     0.6449795654
   21      H       3.8431543926     0.2419028352     0.4241075207
   22      H      -1.7071896565    -3.8412007710     0.3247238187
   23      H      -3.2431010749     0.1628835938    -0.0369717618
   24      H       0.5963726586    -2.9624809002     0.1376635582
 ----------------------------------------------------------------
 Molecular Point Group                 C1    NOp =  1
 Largest Abelian Subgroup              C1    NOp =  1
 Nuclear Repulsion Energy =   885.8134404671 hartrees
 There are       51 alpha and       51 beta electrons
 Applying Cartesian multipole field
    Component          Value
    ---------          -----
     (2,0,0)        1.00000E-11
     (0,2,0)        2.00000E-11
     (0,0,2)       -3.00000E-10
 Nucleus-field energy     =     0.0000000068 hartrees
 Requested basis set is 6-31G(d)
 There are 76 shells and 230 basis functions
 A cutoff of  1.0D-12 yielded   2311 shell pairs
 There are     23018 function pairs
 Smallest overlap matrix eigenvalue = 3.87E-04
 Guess MOs from SCF MO coefficient file
 Reading MOs from coefficient file
 Reading MOs from coefficient file
 A restricted hybrid HF-DFT SCF calculation will be
 performed using Pulay DIIS extrapolation
 Exchange:     0.2000 Hartree-Fock + 0.0800 Slater + 0.7200 B88
 Correlation:  0.1900 VWN1RPA + 0.8100 LYP
 Using SG-1 standard quadrature grid
 Dispersion:   Grimme D3
 SCF converges when DIIS error is below 1.0E-08
 Geometry optimization detected.  Setting ReadMinima to 0
 Setting SaveMinima to 0
 using 24 threads for integral computing 
 -------------------------------------------------------
 OpenMP BLAS3 based DFT computing Module                
 Release: version 1.0, May 2013, Q-Chem Inc. Pittsburgh 
 -------------------------------------------------------
 ---------------------------------------
  Cycle       Energy         DIIS Error
 ---------------------------------------
    1    -688.0139399727      1.84E-03
    2    -688.0155552350      1.84E-04
    3    -688.0154577024      2.55E-04
    4    -688.0158254515      3.68E-05
    5    -688.0158281936      3.00E-05
    6    -688.0158331395      8.99E-06
    7    -688.0158335158      3.16E-06
    8    -688.0158335712      7.58E-07
    9    -688.0158335745      3.17E-07
   10    -688.0158335751      8.83E-08
   11    -688.0158335752      4.09E-08
   12    -688.0158335752      1.72E-08
   13    -688.0158335752      5.08E-09 Convergence criterion met
 ---------------------------------------
 SCF time:  CPU 104.27 s  wall 7.28 s
 SCF   energy in the final basis set = -688.0158335752
 Total energy in the final basis set = -688.0158335752
 
 --------------------------------------------------------------
 
                    Orbital Energies (a.u.)
 --------------------------------------------------------------
 
 Alpha MOs
 -- Occupied --
-19.197 -19.187 -19.138 -19.132 -10.320 -10.314 -10.244 -10.234
-10.220 -10.219 -10.209 -10.209 -10.208 -10.207  -1.106  -1.097
 -1.016  -1.009  -0.875  -0.785  -0.776  -0.729  -0.717  -0.645
 -0.629  -0.583  -0.562  -0.540  -0.512  -0.490  -0.479  -0.476
 -0.474  -0.465  -0.452  -0.445  -0.424  -0.419  -0.405  -0.389
 -0.379  -0.369  -0.365  -0.359  -0.348  -0.307  -0.294  -0.282
 -0.278  -0.265  -0.258
 -- Virtual --
 -0.053  -0.026   0.031   0.046   0.088   0.111   0.122   0.124
  0.133   0.144   0.153   0.161   0.162   0.171   0.174   0.180
  0.182   0.240   0.249   0.279   0.287   0.301   0.310   0.347
  0.379   0.381   0.410   0.491   0.499   0.507   0.518   0.527
  0.529   0.534   0.541   0.552   0.559   0.567   0.580   0.589
  0.593   0.599   0.610   0.626   0.640   0.643   0.669   0.676
  0.704   0.709   0.726   0.732   0.765   0.806   0.818   0.824
  0.827   0.837   0.845   0.853   0.856   0.866   0.877   0.885
  0.907   0.913   0.930   0.941   0.944   0.959   0.977   1.002
  1.028   1.045   1.048   1.079   1.088   1.100   1.120   1.145
  1.178   1.186   1.220   1.225   1.243   1.260   1.275   1.329
  1.362   1.376   1.399   1.430   1.441   1.460   1.467   1.470
  1.486   1.512   1.536   1.569   1.640   1.656   1.663   1.681
  1.706   1.732   1.771   1.790   1.794   1.804   1.840   1.851
  1.863   1.881   1.910   1.913   1.972   1.991   1.995   2.011
  2.018   2.023   2.037   2.052   2.089   2.101   2.103   2.110
  2.128   2.150   2.159   2.180   2.250   2.267   2.285   2.292
  2.297   2.314   2.328   2.378   2.413   2.415   2.470   2.526
  2.547   2.561   2.597   2.628   2.660   2.670   2.678   2.698
  2.748   2.778   2.795   2.824   2.847   2.919   2.962   2.977
  3.051   3.124   3.139   3.243   3.430   3.974   4.015   4.056
  4.081   4.105   4.200   4.239   4.248   4.268   4.341   4.393
  4.436   4.536   4.769
 --------------------------------------------------------------
 
          Ground-State Mulliken Net Atomic Charges

     Atom                 Charge (a.u.)
  ----------------------------------------
      1 C                     0.061806
      2 C                     0.071504
      3 C                     0.569149
      4 C                     0.547221
      5 O                    -0.456841
      6 O                    -0.482724
      7 O                    -0.444544
      8 O                    -0.475920
      9 C                    -0.215663
     10 C                    -0.216720
     11 C                    -0.170175
     12 C                    -0.123183
     13 C                    -0.123768
     14 C                    -0.163137
     15 H                     0.179190
     16 H                     0.171307
     17 H                     0.144413
     18 H                     0.166503
     19 H                     0.160521
     20 H                     0.164697
     21 H                     0.173012
     22 H                     0.142499
     23 H                     0.161654
     24 H                     0.159200
  ----------------------------------------
  Sum of atomic charges =     0.000000

 -----------------------------------------------------------------
                    Cartesian Multipole Moments
 -----------------------------------------------------------------
    Charge (ESU x 10^10)
                 0.0000
    Dipole Moment (Debye)
         X       1.0803      Y      -2.1748      Z       2.1044
       Tot       3.2134
    Quadrupole Moments (Debye-Ang)
        XX     -67.4777     XY       4.1701     YY     -70.2997
        XZ      -1.4178     YZ       5.7947     ZZ     -84.3752
    Octopole Moments (Debye-Ang^2)
       XXX      37.2621    XXY     -19.1371    XYY       8.4378
       YYY      18.6915    XXZ       7.6014    XYZ      -0.9628
       YYZ      14.0296    XZZ      10.1316    YZZ       6.3830
       ZZZ      -5.7937
    Hexadecapole Moments (Debye-Ang^3)
      XXXX   -1466.1306   XXXY     -21.1597   XXYY    -549.9907
      XYYY      37.8160   YYYY   -1485.6622   XXXZ       0.4248
      XXYZ      12.2894   XYYZ     -16.3352   YYYZ      26.5507
      XXZZ    -333.6108   XYZZ      -9.4458   YYZZ    -321.0549
      XZZZ       2.6742   YZZZ       0.0906   ZZZZ    -199.2120
 -----------------------------------------------------------------
 Calculating analytic gradient of the SCF energy
 Gradient of SCF Energy
            1           2           3           4           5           6
    1  -0.0008629  -0.0001963  -0.0032865  -0.0028581   0.0037003   0.0025053
    2   0.0007475  -0.0011445   0.0028788  -0.0060099   0.0006831  -0.0033684
    3   0.0001363  -0.0005243   0.0019669  -0.0027473  -0.0020963  -0.0001451
            7           8           9          10          11          12
    1   0.0004806   0.0025831  -0.0018506  -0.0031268  -0.0002098   0.0007071
    2   0.0053832   0.0024393  -0.0019266   0.0015513  -0.0006489  -0.0001962
    3   0.0007755   0.0017983  -0.0013733  -0.0010155  -0.0002414   0.0004258
           13          14          15          16          17          18
    1  -0.0000510  -0.0009270   0.0010511   0.0009859  -0.0000618   0.0002043
    2   0.0006397  -0.0002548   0.0004474  -0.0011303  -0.0000931   0.0004022
    3   0.0000311  -0.0000048   0.0004624   0.0001643  -0.0000123   0.0012821
           19          20          21          22          23          24
    1   0.0004938   0.0011855   0.0006416  -0.0000055  -0.0000306  -0.0010718
    2   0.0011984   0.0000796  -0.0003311  -0.0001042  -0.0005283  -0.0007141
    3   0.0001622   0.0001249   0.0011076  -0.0000791   0.0002138  -0.0004116
 Max gradient component =       6.010E-03
 RMS gradient           =       1.655E-03
 Gradient time:  CPU 44.49 s  wall 3.11 s
 Geometry Optimization Parameters
   NAtoms,    NIC,     NZ,  NCons,   NDum,   NFix, NCnnct, MaxDiis
       24     152       0       2       0       0       0       0

 Cartesian Hessian Update
 Hessian Updated using BFGS Update


** CONSTRAINED OPTIMIZATION IN DELOCALIZED INTERNAL COORDINATES **
   Searching for a Minimum

   Optimization Cycle:   2

                       Coordinates (Angstroms)
     ATOM                X               Y               Z
      1  C        -0.0103539980   -0.9022254063   -0.0148302928
      2  C        -1.1074328075   -0.0201809473   -0.0567525636
      3  C         1.3775500266   -0.4016149181   -0.2649056810
      4  C        -0.9703104181    1.4706429724   -0.1401026589
      5  O         2.3190799333   -1.1817199903    0.3175860984
      6  O         1.6583576232    0.5511291313   -0.9604453235
      7  O        -0.1158314763    1.9563553160    0.7888977547
      8  O        -1.6098527590    2.1797988592   -0.8858649998
      9  C         0.1009721400    3.3727910679    0.7325213224
     10  C         3.6748453234   -0.7807623266    0.0754241501
     11  C        -0.2435734962   -2.2775534950    0.1254091010
     12  C        -1.5431291502   -2.7722774530    0.2196495708
     13  C        -2.6282563593   -1.8970680467    0.1568432011
     14  C        -2.4082419559   -0.5281958862    0.0128242049
     15  H         0.4951219293    3.6616248274   -0.2456936932
     16  H         3.9191997453   -0.8474840311   -0.9889707601
     17  H        -3.6437459620   -2.2790059176    0.2165471083
     18  H        -0.8279714220    3.9161166706    0.9304941137
     19  H         0.8354218512    3.5917953989    1.5104942449
     20  H         4.2947498629   -1.4765130618    0.6449795654
     21  H         3.8431543926    0.2419028352    0.4241075207
     22  H        -1.7071896565   -3.8412007710    0.3247238187
     23  H        -3.2431010749    0.1628835938   -0.0369717618
     24  H         0.5963726586   -2.9624809002    0.1376635582
   Point Group: c1    Number of degrees of freedom:    66


   Energy is   -688.015833575

              Constraints and their Current Values
                                        Value     Constraint
   Dihedral:        2   1   3   5      154.987      155.000
   Dihedral:        1   2   4   7      -50.002      -50.000
 Hessian Updated using BFGS Update

   Using Lagrange Multiplier Algorithm


 60 Hessian modes will be used to form the next step
  Hessian Eigenvalues:
    -0.977939   -0.977675    0.043191    0.045000    0.045000    0.045000
     0.045001    0.045001    0.045004    0.045007    0.045013    0.045029
     0.045090    0.045180    0.046261    0.110987    0.113894    0.116857
     0.116922    0.149859    0.159965    0.159983    0.159994    0.160000
     0.160595    0.219995    0.224855    0.243757    0.247696    0.248868
     0.249527    0.249877    0.249978    0.306926    0.342580    0.342786
     0.342879    0.342923    0.343620    0.344133    0.344524    0.349119
     0.349800    0.349959    0.350330    0.373466    0.411268    0.413071
     0.413264    0.421840    0.446570    0.456524    0.460494    0.466661
     0.533409    0.537717    0.954417    0.964037    1.022614    1.022896

 Minimum Search - Taking P-RFO Step
 Searching for Lamda that Maximizes Along the Constraint modes Only
 Value Taken    Lamda =   0.00000052
 Searching for Lamda that Minimizes Along All other modes
 Value Taken    Lamda =  -0.00068650
 Step Taken.  Stepsize is  0.077436

                             Maximum     Tolerance    Cnvgd?
         Gradient            0.005007       0.000005      NO
         Displacement        0.023595       0.000005      NO
         Energy change     -0.003459       0.000000      NO


 New Cartesian Coordinates Obtained by Inverse Iteration

 Displacement from previous Coordinates is:  0.258351
 ----------------------------------------------------------------
             Standard Nuclear Orientation (Angstroms)
    I     Atom           X                Y                Z
 ----------------------------------------------------------------
    1      C      -0.0167731490    -0.8980678711    -0.0128908961
    2      C      -1.1158829822    -0.0200049241    -0.0472303323
    3      C       1.3647763185    -0.3858343857    -0.2597706505
    4      C      -0.9778239538     1.4697608511    -0.1335409879
    5      O       2.3038695916    -1.1701158957     0.3181490253
    6      O       1.6304973842     0.5913337341    -0.9277213353
    7      O      -0.1154337167     1.9417628430     0.7908118843
    8      O      -1.6213593943     2.1709394333    -0.8832861282
    9      C       0.1318498733     3.3529735796     0.7211683783
   10      C       3.6608506551    -0.7667787184     0.0817542974
   11      C      -0.2402820906    -2.2732809274     0.1214664414
   12      C      -1.5378794405    -2.7748469180     0.2125003366
   13      C      -2.6271792702    -1.9038133717     0.1549809698
   14      C      -2.4132745314    -0.5324254346     0.0193848993
   15      H       0.5306961149     3.6182121518    -0.2615803562
   16      H       3.8989070098    -0.8169519297    -0.9847568549
   17      H      -3.6408743839    -2.2900838383     0.2124112419
   18      H      -0.7884495422     3.9159073200     0.9019397511
   19      H       0.8667040484     3.5564588706     1.5014900760
   20      H       4.2744820188    -1.4710189065     0.6456325845
   21      H       3.8238759668     0.2550092584     0.4346699831
   22      H      -1.6965894184    -3.8447154687     0.3136408078
   23      H      -3.2483795658     0.1585899768    -0.0296712588
   24      H       0.6095074082    -2.9462519071     0.1340757218
 ----------------------------------------------------------------
 Molecular Point Group                 C1    NOp =  1
 Largest Abelian Subgroup              C1    NOp =  1
 Nuclear Repulsion Energy =   887.8782806574 hartrees
 There are       51 alpha and       51 beta electrons
 Applying Cartesian multipole field
    Component          Value
    ---------          -----
     (2,0,0)        1.00000E-11
     (0,2,0)        2.00000E-11
     (0,0,2)       -3.00000E-10
 Nucleus-field energy     =     0.0000000074 hartrees
 Requested basis set is 6-31G(d)
 There are 76 shells and 230 basis functions
 A cutoff of  1.0D-12 yielded   2314 shell pairs
 There are     23050 function pairs
 Smallest overlap matrix eigenvalue = 3.85E-04
 Guess MOs from SCF MO coefficient file
 Reading MOs from coefficient file
 Reading MOs from coefficient file
 A restricted hybrid HF-DFT SCF calculation will be
 performed using Pulay DIIS extrapolation
 Exchange:     0.2000 Hartree-Fock + 0.0800 Slater + 0.7200 B88
 Correlation:  0.1900 VWN1RPA + 0.8100 LYP
 Using SG-1 standard quadrature grid
 Dispersion:   Grimme D3
 SCF converges when DIIS error is below 1.0E-08
 Geometry optimization detected.  Setting ReadMinima to 0
 Setting SaveMinima to 0
 using 24 threads for integral computing 
 -------------------------------------------------------
 OpenMP BLAS3 based DFT computing Module                
 Release: version 1.0, May 2013, Q-Chem Inc. Pittsburgh 
 -------------------------------------------------------
 ---------------------------------------
  Cycle       Energy         DIIS Error
 ---------------------------------------
    1    -688.0212223731      6.72E-04
    2    -688.0161722116      4.81E-05
    3    -688.0161789526      5.52E-05
    4    -688.0161936948      2.19E-05
    5    -688.0161958422      8.61E-06
    6    -688.0161962146      2.94E-06
    7    -688.0161962558      1.14E-06
    8    -688.0161962634      2.61E-07
    9    -688.0161962639      9.39E-08
   10    -688.0161962639      2.92E-08
   11    -688.0161962639      9.47E-09 Convergence criterion met
 ---------------------------------------
 SCF time:  CPU 89.34 s  wall 6.17 s
 SCF   energy in the final basis set = -688.0161962639
 Total energy in the final basis set = -688.0161962639
 
 --------------------------------------------------------------
 
                    Orbital Energies (a.u.)
 --------------------------------------------------------------
 
 Alpha MOs
 -- Occupied --
-19.197 -19.187 -19.139 -19.132 -10.320 -10.313 -10.244 -10.234
-10.218 -10.217 -10.208 -10.208 -10.207 -10.206  -1.106  -1.097
 -1.017  -1.010  -0.875  -0.784  -0.776  -0.730  -0.717  -0.644
 -0.628  -0.583  -0.563  -0.540  -0.511  -0.490  -0.480  -0.476
 -0.474  -0.465  -0.452  -0.445  -0.424  -0.418  -0.405  -0.389
 -0.379  -0.369  -0.364  -0.360  -0.349  -0.308  -0.293  -0.281
 -0.277  -0.264  -0.257
 -- Virtual --
 -0.053  -0.025   0.033   0.047   0.089   0.111   0.122   0.125
  0.135   0.145   0.153   0.162   0.162   0.171   0.174   0.180
  0.182   0.242   0.251   0.278   0.288   0.301   0.312   0.347
  0.381   0.382   0.412   0.492   0.499   0.506   0.518   0.528
  0.530   0.534   0.542   0.552   0.558   0.567   0.581   0.590
  0.594   0.600   0.609   0.626   0.641   0.644   0.670   0.678
  0.702   0.709   0.725   0.730   0.767   0.806   0.818   0.825
  0.828   0.838   0.845   0.854   0.857   0.866   0.878   0.886
  0.908   0.914   0.931   0.941   0.945   0.960   0.979   1.000
  1.029   1.043   1.049   1.079   1.091   1.100   1.120   1.147
  1.178   1.188   1.222   1.232   1.250   1.262   1.281   1.332
  1.364   1.377   1.401   1.431   1.443   1.461   1.468   1.470
  1.485   1.513   1.539   1.569   1.642   1.654   1.661   1.681
  1.704   1.735   1.772   1.794   1.796   1.806   1.842   1.852
  1.867   1.884   1.911   1.915   1.971   1.992   1.996   2.010
  2.019   2.024   2.038   2.054   2.092   2.103   2.105   2.111
  2.131   2.150   2.163   2.182   2.250   2.269   2.285   2.292
  2.296   2.313   2.328   2.381   2.415   2.420   2.472   2.528
  2.550   2.565   2.598   2.630   2.663   2.673   2.680   2.702
  2.751   2.782   2.798   2.831   2.845   2.920   2.961   2.979
  3.055   3.127   3.142   3.247   3.434   3.975   4.015   4.059
  4.082   4.107   4.210   4.240   4.249   4.267   4.352   4.396
  4.436   4.549   4.771
 --------------------------------------------------------------
 
          Ground-State Mulliken Net Atomic Charges

     Atom                 Charge (a.u.)
  ----------------------------------------
      1 C                     0.061807
      2 C                     0.072069
      3 C                     0.571960
      4 C                     0.548100
      5 O                    -0.456539
      6 O                    -0.485541
      7 O                    -0.442922
      8 O                    -0.476885
      9 C                    -0.216541
     10 C                    -0.217309
     11 C                    -0.169906
     12 C                    -0.124473
     13 C                    -0.124190
     14 C                    -0.163817
     15 H                     0.179814
     16 H                     0.171432
     17 H                     0.144020
     18 H                     0.167048
     19 H                     0.160826
     20 H                     0.165604
     21 H                     0.173542
     22 H                     0.142012
     23 H                     0.161002
     24 H                     0.158887
  ----------------------------------------
  Sum of atomic charges =    -0.000000

 -----------------------------------------------------------------
                    Cartesian Multipole Moments
 -----------------------------------------------------------------
    Charge (ESU x 10^10)
                -0.0000
    Dipole Moment (Debye)
         X       1.2079      Y      -2.1672      Z       2.0614
       Tot       3.2257
    Quadrupole Moments (Debye-Ang)
        XX     -67.4847     XY       4.1736     YY     -70.5074
        XZ      -1.4583     YZ       5.7392     ZZ     -84.2270
    Octopole Moments (Debye-Ang^2)
       XXX      38.4426    XXY     -19.2228    XYY       9.0252
       YYY      17.9640    XXZ       7.3032    XYZ      -1.0483
       YYZ      13.5573    XZZ      10.8084    YZZ       6.2573
       ZZZ      -6.6379
    Hexadecapole Moments (Debye-Ang^3)
      XXXX   -1461.3229   XXXY     -25.9079   XXYY    -547.2321
      XYYY      31.9511   YYYY   -1480.5713   XXXZ      -1.8204
      XXYZ      12.2789   XYYZ     -16.0793   YYYZ      26.3463
      XXZZ    -331.0844   XYZZ     -11.1336   YYZZ    -319.3650
      XZZZ       0.2798   YZZZ       0.8516   ZZZZ    -195.6999
 -----------------------------------------------------------------
 Calculating analytic gradient of the SCF energy
 Gradient of SCF Energy
            1           2           3           4           5           6
    1  -0.0006088   0.0000994  -0.0005534  -0.0016677   0.0016523  -0.0007631
    2  -0.0000964  -0.0007283   0.0010653  -0.0011014  -0.0003672  -0.0004687
    3   0.0006238   0.0004359  -0.0004989  -0.0020290  -0.0000368   0.0005622
            7           8           9          10          11          12
    1   0.0019238   0.0011478  -0.0009648  -0.0012378   0.0002054   0.0004688
    2   0.0018343   0.0000195  -0.0008386   0.0007219   0.0001865  -0.0001552
    3   0.0007332   0.0004034  -0.0006271  -0.0002936  -0.0003989   0.0001177
           13          14          15          16          17          18
    1  -0.0003118  -0.0002097  -0.0000341   0.0001804   0.0000759   0.0000481
    2   0.0003303   0.0001886   0.0001404  -0.0002342   0.0000785   0.0000419
    3   0.0000311  -0.0000038   0.0001364   0.0001323  -0.0000107   0.0002793
           19          20          21          22          23          24
    1   0.0002396  -0.0000333   0.0000722   0.0001399   0.0002975  -0.0001667
    2  -0.0002669  -0.0002658  -0.0001276   0.0000568  -0.0000698   0.0000562
    3   0.0002341   0.0003175   0.0001115  -0.0000307   0.0000443  -0.0002332
 Max gradient component =       2.029E-03
 RMS gradient           =       6.471E-04
 Gradient time:  CPU 44.23 s  wall 2.90 s
 Geometry Optimization Parameters
   NAtoms,    NIC,     NZ,  NCons,   NDum,   NFix, NCnnct, MaxDiis
       24     152       0       2       0       0       0       0

 Cartesian Hessian Update
 Hessian Updated using BFGS Update


** CONSTRAINED OPTIMIZATION IN DELOCALIZED INTERNAL COORDINATES **
   Searching for a Minimum

   Optimization Cycle:   3

                       Coordinates (Angstroms)
     ATOM                X               Y               Z
      1  C        -0.0167731490   -0.8980678711   -0.0128908961
      2  C        -1.1158829822   -0.0200049241   -0.0472303323
      3  C         1.3647763185   -0.3858343857   -0.2597706505
      4  C        -0.9778239538    1.4697608511   -0.1335409879
      5  O         2.3038695916   -1.1701158957    0.3181490253
      6  O         1.6304973842    0.5913337341   -0.9277213353
      7  O        -0.1154337167    1.9417628430    0.7908118843
      8  O        -1.6213593943    2.1709394333   -0.8832861282
      9  C         0.1318498733    3.3529735796    0.7211683783
     10  C         3.6608506551   -0.7667787184    0.0817542974
     11  C        -0.2402820906   -2.2732809274    0.1214664414
     12  C        -1.5378794405   -2.7748469180    0.2125003366
     13  C        -2.6271792702   -1.9038133717    0.1549809698
     14  C        -2.4132745314   -0.5324254346    0.0193848993
     15  H         0.5306961149    3.6182121518   -0.2615803562
     16  H         3.8989070098   -0.8169519297   -0.9847568549
     17  H        -3.6408743839   -2.2900838383    0.2124112419
     18  H        -0.7884495422    3.9159073200    0.9019397511
     19  H         0.8667040484    3.5564588706    1.5014900760
     20  H         4.2744820188   -1.4710189065    0.6456325845
     21  H         3.8238759668    0.2550092584    0.4346699831
     22  H        -1.6965894184   -3.8447154687    0.3136408078
     23  H        -3.2483795658    0.1585899768   -0.0296712588
     24  H         0.6095074082   -2.9462519071    0.1340757218
   Point Group: c1    Number of degrees of freedom:    66


   Energy is   -688.016196264

              Constraints and their Current Values
                                        Value     Constraint
   Dihedral:        2   1   3   5      155.000      155.000
   Dihedral:        1   2   4   7      -50.000      -50.000
 Hessian Updated using BFGS Update

 57 Hessian modes will be used to form the next step
  Hessian Eigenvalues:
     0.036158    0.045000    0.045000    0.045001    0.045001    0.045004
     0.045005    0.045012    0.045013    0.045036    0.045176    0.045974
     0.050569    0.105736    0.113894    0.116850    0.116918    0.153657
     0.159966    0.159987    0.159994    0.160115    0.160399    0.219994
     0.225091    0.240062    0.244639    0.249017    0.249707    0.249905
     0.249973    0.249993    0.310096    0.342550    0.342706    0.342863
     0.342924    0.343095    0.344133    0.346762    0.349027    0.349797
     0.349902    0.350329    0.370835    0.410236    0.413088    0.413349
     0.445664    0.454305    0.456614    0.465726    0.487436    0.525343
     0.535167    0.953104    0.958694

 Minimum Search - Taking Simple RFO Step
 Searching for Lamda that Minimizes Along All modes
 Value Taken    Lamda =  -0.00014918
 Step Taken.  Stepsize is  0.046651

                             Maximum     Tolerance    Cnvgd?
         Gradient           0.002766      0.000005      NO
         Displacement       0.018620      0.000005      NO
         Energy change     -0.000363      0.000000      NO


 New Cartesian Coordinates Obtained by Inverse Iteration

 Displacement from previous Coordinates is:  0.151684
 ----------------------------------------------------------------
             Standard Nuclear Orientation (Angstroms)
    I     Atom           X                Y                Z
 ----------------------------------------------------------------
    1      C      -0.0127081486    -0.8892526757    -0.0130066449
    2      C      -1.1153953749    -0.0132221186    -0.0474523660
    3      C       1.3714697846    -0.3823622932    -0.2587644560
    4      C      -0.9886248114     1.4778821825    -0.1264059634
    5      O       2.3022820178    -1.1724345442     0.3223681042
    6      O       1.6452220603     0.5916623662    -0.9291239447
    7      O      -0.1340708821     1.9486755053     0.8024880603
    8      O      -1.6399882714     2.1734180479    -0.8753877699
    9      C       0.1227684069     3.3592545661     0.7256373752
   10      C       3.6639701737    -0.7855444725     0.0767155172
   11      C      -0.2339256994    -2.2646485438     0.1264669414
   12      C      -1.5302829381    -2.7708008748     0.2133322109
   13      C      -2.6213966902    -1.9037010232     0.1497001969
   14      C      -2.4108104265    -0.5315359461     0.0151019469
   15      H       0.5359407957     3.6105264410    -0.2549879783
   16      H       3.8913720676    -0.8411469464    -0.9919259731
   17      H      -3.6341369750    -2.2931330394     0.2043064436
   18      H      -0.7983575399     3.9275407711     0.8833141636
   19      H       0.8461692425     3.5677002071     1.5143661648
   20      H       4.2746707321    -1.4922448208     0.6392994466
   21      H       3.8375211130     0.2377462593     0.4203612577
   22      H      -1.6865787742    -3.8408473753     0.3171271722
   23      H      -3.2486392495     0.1567247495    -0.0358845233
   24      H       0.6193643375    -2.9334989006     0.1459822171
 ----------------------------------------------------------------
 Molecular Point Group                 C1    NOp =  1
 Largest Abelian Subgroup              C1    NOp =  1
 Nuclear Repulsion Energy =   887.2504028031 hartrees
 There are       51 alpha and       51 beta electrons
 Applying Cartesian multipole field
    Component          Value
    ---------          -----
     (2,0,0)        1.00000E-11
     (0,2,0)        2.00000E-11
     (0,0,2)       -3.00000E-10
 Nucleus-field energy     =     0.0000000073 hartrees
 Requested basis set is 6-31G(d)
 There are 76 shells and 230 basis functions
 A cutoff of  1.0D-12 yielded   2313 shell pairs
 There are     23046 function pairs
 Smallest overlap matrix eigenvalue = 3.85E-04
 Guess MOs from SCF MO coefficient file
 Reading MOs from coefficient file
 Reading MOs from coefficient file
 A restricted hybrid HF-DFT SCF calculation will be
 performed using Pulay DIIS extrapolation
 Exchange:     0.2000 Hartree-Fock + 0.0800 Slater + 0.7200 B88
 Correlation:  0.1900 VWN1RPA + 0.8100 LYP
 Using SG-1 standard quadrature grid
 Dispersion:   Grimme D3
 SCF converges when DIIS error is below 1.0E-08
 Geometry optimization detected.  Setting ReadMinima to 0
 Setting SaveMinima to 0
 using 24 threads for integral computing 
 -------------------------------------------------------
 OpenMP BLAS3 based DFT computing Module                
 Release: version 1.0, May 2013, Q-Chem Inc. Pittsburgh 
 -------------------------------------------------------
 ---------------------------------------
  Cycle       Energy         DIIS Error
 ---------------------------------------
    1    -688.0139868550      3.24E-04
    2    -688.0162170809      4.09E-05
    3    -688.0162056410      6.29E-05
    4    -688.0162295078      1.22E-05
    5    -688.0162302947      4.36E-06
    6    -688.0162303736      2.53E-06
    7    -688.0162304071      7.39E-07
    8    -688.0162304103      1.81E-07
    9    -688.0162304105      5.48E-08
   10    -688.0162304105      2.25E-08
   11    -688.0162304105      1.00E-08
   12    -688.0162304105      4.20E-09 Convergence criterion met
 ---------------------------------------
 SCF time:  CPU 94.15 s  wall 6.65 s
 SCF   energy in the final basis set = -688.0162304105
 Total energy in the final basis set = -688.0162304105
 
 --------------------------------------------------------------
 
                    Orbital Energies (a.u.)
 --------------------------------------------------------------
 
 Alpha MOs
 -- Occupied --
-19.198 -19.188 -19.139 -19.132 -10.320 -10.314 -10.244 -10.234
-10.218 -10.217 -10.208 -10.208 -10.207 -10.206  -1.106  -1.098
 -1.017  -1.010  -0.874  -0.784  -0.776  -0.730  -0.718  -0.644
 -0.628  -0.583  -0.563  -0.541  -0.511  -0.490  -0.480  -0.477
 -0.474  -0.466  -0.452  -0.444  -0.424  -0.419  -0.405  -0.389
 -0.379  -0.369  -0.364  -0.360  -0.349  -0.308  -0.294  -0.282
 -0.277  -0.264  -0.257
 -- Virtual --
 -0.052  -0.025   0.032   0.048   0.089   0.111   0.122   0.124
  0.134   0.145   0.154   0.161   0.162   0.171   0.174   0.180
  0.182   0.242   0.251   0.278   0.288   0.301   0.312   0.347
  0.381   0.382   0.413   0.492   0.499   0.506   0.517   0.527
  0.530   0.534   0.542   0.552   0.558   0.566   0.580   0.590
  0.594   0.600   0.609   0.626   0.640   0.644   0.669   0.677
  0.702   0.709   0.725   0.730   0.766   0.806   0.818   0.825
  0.828   0.838   0.845   0.853   0.857   0.864   0.878   0.887
  0.908   0.914   0.931   0.941   0.945   0.961   0.978   1.001
  1.029   1.044   1.049   1.078   1.090   1.100   1.121   1.146
  1.177   1.187   1.222   1.232   1.250   1.262   1.280   1.331
  1.364   1.375   1.399   1.432   1.441   1.462   1.468   1.470
  1.485   1.513   1.537   1.569   1.643   1.654   1.661   1.681
  1.705   1.735   1.770   1.795   1.795   1.805   1.842   1.851
  1.867   1.883   1.911   1.916   1.971   1.989   1.996   2.009
  2.019   2.023   2.037   2.053   2.094   2.102   2.104   2.111
  2.132   2.150   2.162   2.182   2.250   2.269   2.285   2.291
  2.295   2.312   2.326   2.380   2.416   2.419   2.472   2.527
  2.550   2.565   2.597   2.629   2.662   2.674   2.679   2.701
  2.751   2.782   2.798   2.830   2.844   2.921   2.961   2.977
  3.055   3.127   3.141   3.247   3.433   3.974   4.014   4.058
  4.082   4.107   4.210   4.240   4.249   4.268   4.349   4.396
  4.437   4.550   4.769
 --------------------------------------------------------------
 
          Ground-State Mulliken Net Atomic Charges

     Atom                 Charge (a.u.)
  ----------------------------------------
      1 C                     0.060083
      2 C                     0.071335
      3 C                     0.572534
      4 C                     0.548240
      5 O                    -0.456132
      6 O                    -0.486748
      7 O                    -0.441993
      8 O                    -0.477336
      9 C                    -0.217749
     10 C                    -0.217597
     11 C                    -0.169693
     12 C                    -0.124422
     13 C                    -0.123700
     14 C                    -0.164101
     15 H                     0.180205
     16 H                     0.171627
     17 H                     0.143865
     18 H                     0.168189
     19 H                     0.161600
     20 H                     0.165992
     21 H                     0.173837
     22 H                     0.141897
     23 H                     0.161044
     24 H                     0.159023
  ----------------------------------------
  Sum of atomic charges =    -0.000000

 -----------------------------------------------------------------
                    Cartesian Multipole Moments
 -----------------------------------------------------------------
    Charge (ESU x 10^10)
                -0.0000
    Dipole Moment (Debye)
         X       1.2446      Y      -2.1503      Z       2.0571
       Tot       3.2256
    Quadrupole Moments (Debye-Ang)
        XX     -67.5833     XY       4.1043     YY     -70.4021
        XZ      -1.4320     YZ       5.7356     ZZ     -84.2291
    Octopole Moments (Debye-Ang^2)
       XXX      39.0375    XXY     -19.9825    XYY       9.3622
       YYY      18.1317    XXZ       7.1899    XYZ      -1.0457
       YYZ      13.5959    XZZ      10.8041    YZZ       6.1459
       ZZZ      -6.9680
    Hexadecapole Moments (Debye-Ang^3)
      XXXX   -1464.3740   XXXY     -22.1802   XXYY    -548.0080
      XYYY      36.5106   YYYY   -1481.4874   XXXZ      -1.1840
      XXYZ      12.1878   XYYZ     -15.7419   YYYZ      25.5931
      XXZZ    -331.8492   XYZZ      -9.4193   YYZZ    -319.4741
      XZZZ       0.8547   YZZZ      -0.0884   ZZZZ    -195.9619
 -----------------------------------------------------------------
 Calculating analytic gradient of the SCF energy
 Gradient of SCF Energy
            1           2           3           4           5           6
    1   0.0002987  -0.0002698   0.0006117  -0.0001398  -0.0002670  -0.0000312
    2  -0.0005283   0.0003956   0.0002223   0.0010653  -0.0004000  -0.0002473
    3   0.0001215   0.0005458  -0.0003457  -0.0008265  -0.0000694  -0.0002536
            7           8           9          10          11          12
    1   0.0000275  -0.0000577   0.0000214  -0.0000671   0.0000844  -0.0000180
    2   0.0002723  -0.0006907  -0.0005670  -0.0001423   0.0002703   0.0000300
    3   0.0008883  -0.0001487   0.0001293   0.0003608  -0.0000562  -0.0000078
           13          14          15          16          17          18
    1   0.0000010   0.0001155  -0.0003418  -0.0001003   0.0000515  -0.0000495
    2  -0.0000225   0.0000856   0.0000108   0.0000706  -0.0000070  -0.0000067
    3  -0.0000313   0.0000149  -0.0000756   0.0000209   0.0000389  -0.0000575
           19          20          21          22          23          24
    1   0.0000318  -0.0000689  -0.0001365   0.0000042   0.0000470   0.0002530
    2  -0.0001533   0.0000195   0.0000768   0.0000270   0.0000961   0.0001228
    3  -0.0000135   0.0000711  -0.0002040  -0.0000225  -0.0000035  -0.0000756
 Max gradient component =       1.065E-03
 RMS gradient           =       2.879E-04
 Gradient time:  CPU 44.68 s  wall 3.02 s
 Geometry Optimization Parameters
   NAtoms,    NIC,     NZ,  NCons,   NDum,   NFix, NCnnct, MaxDiis
       24     152       0       2       0       0       0       0

 Cartesian Hessian Update
 Hessian Updated using BFGS Update


** CONSTRAINED OPTIMIZATION IN DELOCALIZED INTERNAL COORDINATES **
   Searching for a Minimum

   Optimization Cycle:   4

                       Coordinates (Angstroms)
     ATOM                X               Y               Z
      1  C        -0.0127081486   -0.8892526757   -0.0130066449
      2  C        -1.1153953749   -0.0132221186   -0.0474523660
      3  C         1.3714697846   -0.3823622932   -0.2587644560
      4  C        -0.9886248114    1.4778821825   -0.1264059634
      5  O         2.3022820178   -1.1724345442    0.3223681042
      6  O         1.6452220603    0.5916623662   -0.9291239447
      7  O        -0.1340708821    1.9486755053    0.8024880603
      8  O        -1.6399882714    2.1734180479   -0.8753877699
      9  C         0.1227684069    3.3592545661    0.7256373752
     10  C         3.6639701737   -0.7855444725    0.0767155172
     11  C        -0.2339256994   -2.2646485438    0.1264669414
     12  C        -1.5302829381   -2.7708008748    0.2133322109
     13  C        -2.6213966902   -1.9037010232    0.1497001969
     14  C        -2.4108104265   -0.5315359461    0.0151019469
     15  H         0.5359407957    3.6105264410   -0.2549879783
     16  H         3.8913720676   -0.8411469464   -0.9919259731
     17  H        -3.6341369750   -2.2931330394    0.2043064436
     18  H        -0.7983575399    3.9275407711    0.8833141636
     19  H         0.8461692425    3.5677002071    1.5143661648
     20  H         4.2746707321   -1.4922448208    0.6392994466
     21  H         3.8375211130    0.2377462593    0.4203612577
     22  H        -1.6865787742   -3.8408473753    0.3171271722
     23  H        -3.2486392495    0.1567247495   -0.0358845233
     24  H         0.6193643375   -2.9334989006    0.1459822171
   Point Group: c1    Number of degrees of freedom:    66


   Energy is   -688.016230410

              Constraints and their Current Values
                                        Value     Constraint
   Dihedral:        2   1   3   5      155.000      155.000
   Dihedral:        1   2   4   7      -50.000      -50.000
 Hessian Updated using BFGS Update

 61 Hessian modes will be used to form the next step
  Hessian Eigenvalues:
     0.026713    0.044997    0.045000    0.045000    0.045000    0.045001
     0.045001    0.045003    0.045005    0.045013    0.045025    0.045100
     0.045169    0.046062    0.053239    0.109721    0.113897    0.116813
     0.116921    0.152990    0.159327    0.159972    0.159989    0.159998
     0.160126    0.160503    0.219996    0.225063    0.243924    0.245943
     0.249397    0.249601    0.249906    0.249979    0.249996    0.306245
     0.341954    0.342602    0.342744    0.342866    0.342914    0.344113
     0.344159    0.348596    0.349517    0.349764    0.350312    0.364133
     0.370662    0.408713    0.413078    0.415528    0.442487    0.455375
     0.458050    0.465920    0.509590    0.521200    0.539051    0.949668
     0.958353

 Minimum Search - Taking Simple RFO Step
 Searching for Lamda that Minimizes Along All modes
 Value Taken    Lamda =  -0.00004343
 Step Taken.  Stepsize is  0.023395

                             Maximum     Tolerance    Cnvgd?
         Gradient           0.002241      0.000005      NO
         Displacement       0.009524      0.000005      NO
         Energy change     -0.000034      0.000000      NO


 New Cartesian Coordinates Obtained by Inverse Iteration

 Displacement from previous Coordinates is:  0.109139
 ----------------------------------------------------------------
             Standard Nuclear Orientation (Angstroms)
    I     Atom           X                Y                Z
 ----------------------------------------------------------------
    1      C      -0.0165606169    -0.8914218791    -0.0113421982
    2      C      -1.1194170799    -0.0161373801    -0.0442744251
    3      C       1.3667688689    -0.3792710566    -0.2529967710
    4      C      -0.9898555216     1.4749118399    -0.1219557879
    5      O       2.3019641801    -1.1665464378     0.3245994863
    6      O       1.6373075976     0.5998728440    -0.9174847728
    7      O      -0.1346604693     1.9443395870     0.8059225069
    8      O      -1.6393660343     2.1730807639    -0.8704883470
    9      C       0.1354984444     3.3531747478     0.7213779660
   10      C       3.6623377829    -0.7738145161     0.0762971615
   11      C      -0.2375779672    -2.2676154502     0.1265734033
   12      C      -1.5339702304    -2.7743729537     0.2111272228
   13      C      -2.6252317957    -1.9076663111     0.1473123656
   14      C      -2.4149685371    -0.5351148373     0.0156702744
   15      H       0.5596567154     3.5930933910    -0.2575187832
   16      H       3.8864321902    -0.8234479803    -0.9934139427
   17      H      -3.6379808905    -2.2976036814     0.1997028547
   18      H      -0.7818536053     3.9306445882     0.8668711501
   19      H       0.8540482403     3.5622491252     1.5141676392
   20      H       4.2777064363    -1.4808470589     0.6330507934
   21      H       3.8339649390     0.2483569645     0.4243817196
   22      H      -1.6901577756    -3.8446161802     0.3137216161
   23      H      -3.2535117795     0.1523821026    -0.0354270891
   24      H       0.6152618586    -2.9368727100     0.1477535554
 ----------------------------------------------------------------
 Molecular Point Group                 C1    NOp =  1
 Largest Abelian Subgroup              C1    NOp =  1
 Nuclear Repulsion Energy =   887.4991007599 hartrees
 There are       51 alpha and       51 beta electrons
 Applying Cartesian multipole field
    Component          Value
    ---------          -----
     (2,0,0)        1.00000E-11
     (0,2,0)        2.00000E-11
     (0,0,2)       -3.00000E-10
 Nucleus-field energy     =     0.0000000076 hartrees
 Requested basis set is 6-31G(d)
 There are 76 shells and 230 basis functions
 A cutoff of  1.0D-12 yielded   2314 shell pairs
 There are     23047 function pairs
 Smallest overlap matrix eigenvalue = 3.85E-04
 Guess MOs from SCF MO coefficient file
 Reading MOs from coefficient file
 Reading MOs from coefficient file
 A restricted hybrid HF-DFT SCF calculation will be
 performed using Pulay DIIS extrapolation
 Exchange:     0.2000 Hartree-Fock + 0.0800 Slater + 0.7200 B88
 Correlation:  0.1900 VWN1RPA + 0.8100 LYP
 Using SG-1 standard quadrature grid
 Dispersion:   Grimme D3
 SCF converges when DIIS error is below 1.0E-08
 Geometry optimization detected.  Setting ReadMinima to 0
 Setting SaveMinima to 0
 using 24 threads for integral computing 
 -------------------------------------------------------
 OpenMP BLAS3 based DFT computing Module                
 Release: version 1.0, May 2013, Q-Chem Inc. Pittsburgh 
 -------------------------------------------------------
 ---------------------------------------
  Cycle       Energy         DIIS Error
 ---------------------------------------
    1    -688.0151952112      2.05E-04
    2    -688.0162661774      1.80E-05
    3    -688.0162645641      2.95E-05
    4    -688.0162688144      6.51E-06
    5    -688.0162689951      2.63E-06
    6    -688.0162690313      9.27E-07
    7    -688.0162690362      3.04E-07
    8    -688.0162690368      7.81E-08
    9    -688.0162690368      3.17E-08
   10    -688.0162690368      1.13E-08
   11    -688.0162690368      5.86E-09 Convergence criterion met
 ---------------------------------------
 SCF time:  CPU 85.74 s  wall 6.13 s
 SCF   energy in the final basis set = -688.0162690368
 Total energy in the final basis set = -688.0162690368
 
 --------------------------------------------------------------
 
                    Orbital Energies (a.u.)
 --------------------------------------------------------------
 
 Alpha MOs
 -- Occupied --
-19.198 -19.187 -19.139 -19.132 -10.320 -10.313 -10.244 -10.234
-10.218 -10.217 -10.208 -10.208 -10.207 -10.206  -1.106  -1.097
 -1.017  -1.009  -0.874  -0.784  -0.776  -0.730  -0.718  -0.644
 -0.628  -0.582  -0.563  -0.540  -0.511  -0.490  -0.480  -0.477
 -0.474  -0.465  -0.452  -0.444  -0.424  -0.419  -0.405  -0.389
 -0.379  -0.369  -0.364  -0.360  -0.349  -0.308  -0.293  -0.282
 -0.277  -0.264  -0.256
 -- Virtual --
 -0.053  -0.025   0.033   0.048   0.089   0.111   0.122   0.124
  0.134   0.145   0.154   0.161   0.163   0.171   0.174   0.180
  0.182   0.242   0.251   0.278   0.287   0.302   0.312   0.347
  0.381   0.382   0.413   0.492   0.499   0.506   0.517   0.527
  0.530   0.534   0.542   0.553   0.558   0.566   0.581   0.590
  0.594   0.600   0.609   0.626   0.640   0.644   0.669   0.677
  0.701   0.710   0.725   0.730   0.767   0.806   0.818   0.825
  0.827   0.838   0.845   0.853   0.857   0.864   0.878   0.886
  0.908   0.914   0.931   0.941   0.946   0.961   0.979   1.001
  1.030   1.044   1.050   1.078   1.090   1.100   1.120   1.147
  1.177   1.188   1.222   1.233   1.251   1.262   1.281   1.331
  1.363   1.375   1.400   1.431   1.441   1.462   1.468   1.470
  1.485   1.512   1.538   1.570   1.643   1.653   1.661   1.680
  1.706   1.735   1.770   1.794   1.796   1.806   1.842   1.851
  1.867   1.884   1.911   1.916   1.970   1.989   1.996   2.009
  2.018   2.022   2.036   2.053   2.094   2.101   2.103   2.111
  2.131   2.150   2.162   2.182   2.250   2.269   2.285   2.291
  2.296   2.312   2.326   2.380   2.418   2.420   2.473   2.527
  2.550   2.565   2.597   2.628   2.661   2.674   2.678   2.701
  2.750   2.783   2.798   2.831   2.844   2.921   2.961   2.978
  3.055   3.126   3.141   3.246   3.433   3.974   4.014   4.058
  4.083   4.107   4.211   4.240   4.249   4.268   4.350   4.396
  4.436   4.550   4.769
 --------------------------------------------------------------
 
          Ground-State Mulliken Net Atomic Charges

     Atom                 Charge (a.u.)
  ----------------------------------------
      1 C                     0.060570
      2 C                     0.071364
      3 C                     0.572925
      4 C                     0.548082
      5 O                    -0.456400
      6 O                    -0.487094
      7 O                    -0.442068
      8 O                    -0.477702
      9 C                    -0.217829
     10 C                    -0.217570
     11 C                    -0.170106
     12 C                    -0.124345
     13 C                    -0.123702
     14 C                    -0.164009
     15 H                     0.180343
     16 H                     0.171705
     17 H                     0.143928
     18 H                     0.168543
     19 H                     0.161505
     20 H                     0.166073
     21 H                     0.173911
     22 H                     0.141968
     23 H                     0.161061
     24 H                     0.158845
  ----------------------------------------
  Sum of atomic charges =     0.000000

 -----------------------------------------------------------------
                    Cartesian Multipole Moments
 -----------------------------------------------------------------
    Charge (ESU x 10^10)
                -0.0000
    Dipole Moment (Debye)
         X       1.2629      Y      -2.1648      Z       2.0325
       Tot       3.2268
    Quadrupole Moments (Debye-Ang)
        XX     -67.5278     XY       4.2154     YY     -70.4525
        XZ      -1.4496     YZ       5.7108     ZZ     -84.2059
    Octopole Moments (Debye-Ang^2)
       XXX      39.3902    XXY     -19.8555    XYY       9.5072
       YYY      17.9338    XXZ       6.8992    XYZ      -1.0195
       YYZ      13.3921    XZZ      10.9974    YZZ       6.1862
       ZZZ      -7.4465
    Hexadecapole Moments (Debye-Ang^3)
      XXXX   -1463.9550   XXXY     -24.8108   XXYY    -547.8914
      XYYY      33.7835   YYYY   -1479.9271   XXXZ      -1.9216
      XXYZ      12.1581   XYYZ     -15.7004   YYYZ      25.4378
      XXZZ    -331.6303   XYZZ     -10.5131   YYZZ    -319.1841
      XZZZ       0.1088   YZZZ      -0.1944   ZZZZ    -194.6312
 -----------------------------------------------------------------
 Calculating analytic gradient of the SCF energy
 Gradient of SCF Energy
            1           2           3           4           5           6
    1   0.0000192   0.0000170   0.0001570   0.0004629  -0.0002667   0.0000559
    2   0.0000013   0.0002401  -0.0000194   0.0003551   0.0000280  -0.0000181
    3  -0.0002352   0.0006364  -0.0002434  -0.0004791  -0.0000570   0.0000605
            7           8           9          10          11          12
    1  -0.0005567  -0.0000022   0.0003760   0.0002638  -0.0000563  -0.0002258
    2  -0.0003482  -0.0002134  -0.0001201  -0.0002559  -0.0000867   0.0000349
    3   0.0001758  -0.0000101   0.0003015   0.0003957  -0.0000366  -0.0000191
           13          14          15          16          17          18
    1   0.0000901   0.0000614  -0.0002624  -0.0000144   0.0000020  -0.0000460
    2  -0.0001919  -0.0000182   0.0001208   0.0000579  -0.0000378   0.0000498
    3  -0.0000196   0.0000506  -0.0000985  -0.0000347   0.0000325  -0.0000286
           19          20          21          22          23          24
    1  -0.0000122   0.0000113  -0.0000483  -0.0000398  -0.0000583   0.0000727
    2   0.0000773   0.0001498   0.0001133  -0.0000138   0.0000399   0.0000555
    3  -0.0001443  -0.0000294  -0.0001889  -0.0000053  -0.0000279   0.0000047
 Max gradient component =       6.364E-04
 RMS gradient           =       1.915E-04
 Gradient time:  CPU 44.56 s  wall 3.07 s
 Geometry Optimization Parameters
   NAtoms,    NIC,     NZ,  NCons,   NDum,   NFix, NCnnct, MaxDiis
       24     152       0       2       0       0       0       0

 Cartesian Hessian Update
 Hessian Updated using BFGS Update


** CONSTRAINED OPTIMIZATION IN DELOCALIZED INTERNAL COORDINATES **
   Searching for a Minimum

   Optimization Cycle:   5

                       Coordinates (Angstroms)
     ATOM                X               Y               Z
      1  C        -0.0165606169   -0.8914218791   -0.0113421982
      2  C        -1.1194170799   -0.0161373801   -0.0442744251
      3  C         1.3667688689   -0.3792710566   -0.2529967710
      4  C        -0.9898555216    1.4749118399   -0.1219557879
      5  O         2.3019641801   -1.1665464378    0.3245994863
      6  O         1.6373075976    0.5998728440   -0.9174847728
      7  O        -0.1346604693    1.9443395870    0.8059225069
      8  O        -1.6393660343    2.1730807639   -0.8704883470
      9  C         0.1354984444    3.3531747478    0.7213779660
     10  C         3.6623377829   -0.7738145161    0.0762971615
     11  C        -0.2375779672   -2.2676154502    0.1265734033
     12  C        -1.5339702304   -2.7743729537    0.2111272228
     13  C        -2.6252317957   -1.9076663111    0.1473123656
     14  C        -2.4149685371   -0.5351148373    0.0156702744
     15  H         0.5596567154    3.5930933910   -0.2575187832
     16  H         3.8864321902   -0.8234479803   -0.9934139427
     17  H        -3.6379808905   -2.2976036814    0.1997028547
     18  H        -0.7818536053    3.9306445882    0.8668711501
     19  H         0.8540482403    3.5622491252    1.5141676392
     20  H         4.2777064363   -1.4808470589    0.6330507934
     21  H         3.8339649390    0.2483569645    0.4243817196
     22  H        -1.6901577756   -3.8446161802    0.3137216161
     23  H        -3.2535117795    0.1523821026   -0.0354270891
     24  H         0.6152618586   -2.9368727100    0.1477535554
   Point Group: c1    Number of degrees of freedom:    66


   Energy is   -688.016269037

              Constraints and their Current Values
                                        Value     Constraint
   Dihedral:        2   1   3   5      155.000      155.000
   Dihedral:        1   2   4   7      -50.000      -50.000
 Hessian Updated using BFGS Update

 61 Hessian modes will be used to form the next step
  Hessian Eigenvalues:
     0.019016    0.043400    0.045000    0.045000    0.045001    0.045002
     0.045004    0.045006    0.045012    0.045029    0.045117    0.045316
     0.046034    0.054635    0.104995    0.113881    0.116629    0.116919
     0.156495    0.159034    0.159972    0.159992    0.159999    0.160059
     0.160251    0.161328    0.219996    0.225481    0.243898    0.246696
     0.248910    0.249736    0.249905    0.249987    0.250161    0.299590
     0.341772    0.342540    0.342670    0.342848    0.342935    0.344132
     0.346622    0.348815    0.349256    0.349797    0.350312    0.358570
     0.373109    0.411875    0.413024    0.425028    0.452130    0.456631
     0.461876    0.475792    0.513330    0.523756    0.548744    0.948873
     0.958399

 Minimum Search - Taking Simple RFO Step
 Searching for Lamda that Minimizes Along All modes
 Value Taken    Lamda =  -0.00001638
 Step Taken.  Stepsize is  0.024688

                             Maximum     Tolerance    Cnvgd?
         Gradient           0.000421      0.000005      NO
         Displacement       0.013228      0.000005      NO
         Energy change     -0.000039      0.000000      NO


 New Cartesian Coordinates Obtained by Inverse Iteration

 Displacement from previous Coordinates is:  0.081304
 ----------------------------------------------------------------
             Standard Nuclear Orientation (Angstroms)
    I     Atom           X                Y                Z
 ----------------------------------------------------------------
    1      C      -0.0188984864    -0.8911651303    -0.0106401387
    2      C      -1.1226349371    -0.0171594816    -0.0419084063
    3      C       1.3634968913    -0.3758700138    -0.2496312920
    4      C      -0.9930043523     1.4741133391    -0.1175408011
    5      O       2.3004422662    -1.1624962521     0.3258373495
    6      O       1.6320109611     0.6054008033    -0.9120483613
    7      O      -0.1378395707     1.9435628506     0.8100990053
    8      O      -1.6413090546     2.1735781315    -0.8662338921
    9      C       0.1428749832     3.3500989995     0.7179566431
   10      C       3.6600606167    -0.7682661133     0.0753944140
   11      C      -0.2379539594    -2.2677040557     0.1266065279
   12      C      -1.5336739581    -2.7759216981     0.2099709776
   13      C      -2.6261417420    -1.9104215339     0.1459274532
   14      C      -2.4176492147    -0.5375236753     0.0162163265
   15      H       0.5815661112     3.5783124234    -0.2573435414
   16      H       3.8814499719    -0.8124487520    -0.9950804473
   17      H      -3.6385099635    -2.3015476826     0.1968128138
   18      H      -0.7716039518     3.9352898320     0.8489426276
   19      H       0.8538552086     3.5588477032     1.5177248608
   20      H       4.2759640664    -1.4792565575     0.6266684112
   21      H       3.8334648502     0.2513876626     0.4298094255
   22      H      -1.6883306989    -3.8464423103     0.3119207749
   23      H      -3.2570441129     0.1488277658    -0.0344090769
   24      H       0.6152430262    -2.9364387329     0.1485759448
 ----------------------------------------------------------------
 Molecular Point Group                 C1    NOp =  1
 Largest Abelian Subgroup              C1    NOp =  1
 Nuclear Repulsion Energy =   887.6741878690 hartrees
 There are       51 alpha and       51 beta electrons
 Applying Cartesian multipole field
    Component          Value
    ---------          -----
     (2,0,0)        1.00000E-11
     (0,2,0)        2.00000E-11
     (0,0,2)       -3.00000E-10
 Nucleus-field energy     =     0.0000000078 hartrees
 Requested basis set is 6-31G(d)
 There are 76 shells and 230 basis functions
 A cutoff of  1.0D-12 yielded   2314 shell pairs
 There are     23047 function pairs
 Smallest overlap matrix eigenvalue = 3.85E-04
 Guess MOs from SCF MO coefficient file
 Reading MOs from coefficient file
 Reading MOs from coefficient file
 A restricted hybrid HF-DFT SCF calculation will be
 performed using Pulay DIIS extrapolation
 Exchange:     0.2000 Hartree-Fock + 0.0800 Slater + 0.7200 B88
 Correlation:  0.1900 VWN1RPA + 0.8100 LYP
 Using SG-1 standard quadrature grid
 Dispersion:   Grimme D3
 SCF converges when DIIS error is below 1.0E-08
 Geometry optimization detected.  Setting ReadMinima to 0
 Setting SaveMinima to 0
 using 24 threads for integral computing 
 -------------------------------------------------------
 OpenMP BLAS3 based DFT computing Module                
 Release: version 1.0, May 2013, Q-Chem Inc. Pittsburgh 
 -------------------------------------------------------
 ---------------------------------------
  Cycle       Energy         DIIS Error
 ---------------------------------------
    1    -688.0161823832      1.41E-04
    2    -688.0162842266      1.26E-05
    3    -688.0162841974      1.73E-05
    4    -688.0162857251      5.29E-06
    5    -688.0162858395      2.32E-06
    6    -688.0162858670      5.62E-07
    7    -688.0162858686      1.55E-07
    8    -688.0162858687      4.63E-08
    9    -688.0162858688      2.30E-08
   10    -688.0162858687      6.77E-09 Convergence criterion met
 ---------------------------------------
 SCF time:  CPU 78.81 s  wall 5.57 s
 SCF   energy in the final basis set = -688.0162858687
 Total energy in the final basis set = -688.0162858687
 
 --------------------------------------------------------------
 
                    Orbital Energies (a.u.)
[...]
    Component          Value
    ---------          -----
     (2,0,0)        1.00000E-11
     (0,2,0)        2.00000E-11
     (0,0,2)       -3.00000E-10
 Nucleus-field energy     =     0.0000000082 hartrees
 Requested basis set is 6-31G(d)
 There are 76 shells and 230 basis functions
 A cutoff of  1.0D-12 yielded   2314 shell pairs
 There are     23047 function pairs
 Smallest overlap matrix eigenvalue = 3.86E-04
 Guess MOs from SCF MO coefficient file
 Reading MOs from coefficient file
 Reading MOs from coefficient file
 A restricted hybrid HF-DFT SCF calculation will be
 performed using Pulay DIIS extrapolation
 Exchange:     0.2000 Hartree-Fock + 0.0800 Slater + 0.7200 B88
 Correlation:  0.1900 VWN1RPA + 0.8100 LYP
 Using SG-1 standard quadrature grid
 Dispersion:   Grimme D3
 SCF converges when DIIS error is below 1.0E-08
 Geometry optimization detected.  Setting ReadMinima to 0
 Setting SaveMinima to 0
 using 24 threads for integral computing 
 -------------------------------------------------------
 OpenMP BLAS3 based DFT computing Module                
 Release: version 1.0, May 2013, Q-Chem Inc. Pittsburgh 
 -------------------------------------------------------
 ---------------------------------------
  Cycle       Energy         DIIS Error
 ---------------------------------------
    1    -688.0162376947      2.35E-06
    2    -688.0162342515      1.18E-07
    3    -688.0162342516      1.37E-07
    4    -688.0162342516      6.19E-08
    5    -688.0162342517      1.76E-08
    6    -688.0162342517      1.01E-08
    7    -688.0162342517      1.68E-09 Convergence criterion met
 ---------------------------------------
 SCF time:  CPU 100.37 s  wall 4.22 s
 SCF   energy in the final basis set = -688.0162342517
 Total energy in the final basis set = -688.0162342517
 
 --------------------------------------------------------------
 
                    Orbital Energies (a.u.)
 --------------------------------------------------------------
 
 Alpha MOs
 -- Occupied --
-19.197 -19.187 -19.138 -19.131 -10.320 -10.313 -10.244 -10.234
-10.219 -10.217 -10.208 -10.208 -10.207 -10.206  -1.106  -1.097
 -1.017  -1.009  -0.874  -0.784  -0.776  -0.730  -0.718  -0.644
 -0.628  -0.582  -0.562  -0.540  -0.511  -0.490  -0.480  -0.477
 -0.474  -0.465  -0.452  -0.444  -0.424  -0.419  -0.405  -0.389
 -0.379  -0.369  -0.364  -0.360  -0.349  -0.308  -0.293  -0.281
 -0.277  -0.264  -0.257
 -- Virtual --
 -0.053  -0.025   0.033   0.048   0.089   0.111   0.122   0.124
  0.134   0.145   0.154   0.161   0.163   0.171   0.174   0.180
  0.182   0.242   0.251   0.279   0.287   0.301   0.311   0.347
  0.381   0.382   0.414   0.492   0.499   0.507   0.517   0.526
  0.530   0.534   0.542   0.553   0.558   0.567   0.581   0.590
  0.594   0.600   0.609   0.626   0.641   0.644   0.670   0.677
  0.699   0.712   0.724   0.731   0.767   0.806   0.818   0.825
  0.827   0.838   0.844   0.853   0.858   0.864   0.878   0.887
  0.908   0.914   0.931   0.941   0.946   0.961   0.979   1.002
  1.033   1.043   1.050   1.077   1.091   1.101   1.121   1.146
  1.179   1.191   1.222   1.234   1.252   1.262   1.280   1.330
  1.362   1.374   1.398   1.431   1.442   1.460   1.468   1.470
  1.485   1.511   1.537   1.572   1.643   1.652   1.660   1.679
  1.705   1.736   1.769   1.794   1.795   1.805   1.843   1.851
  1.868   1.883   1.911   1.915   1.970   1.990   1.996   2.010
  2.019   2.023   2.037   2.053   2.095   2.103   2.105   2.109
  2.131   2.150   2.160   2.180   2.250   2.269   2.285   2.289
  2.296   2.313   2.327   2.377   2.418   2.420   2.475   2.526
  2.549   2.564   2.598   2.628   2.661   2.674   2.679   2.701
  2.750   2.782   2.798   2.830   2.846   2.920   2.962   2.978
  3.055   3.126   3.140   3.248   3.433   3.974   4.011   4.058
  4.083   4.107   4.212   4.239   4.248   4.269   4.351   4.397
  4.436   4.549   4.769
 --------------------------------------------------------------
 
          Ground-State Mulliken Net Atomic Charges

     Atom                 Charge (a.u.)
  ----------------------------------------
      1 C                     0.058915
      2 C                     0.070127
      3 C                     0.574693
      4 C                     0.550405
      5 O                    -0.456838
      6 O                    -0.487385
      7 O                    -0.442718
      8 O                    -0.478549
      9 C                    -0.218484
     10 C                    -0.217531
     11 C                    -0.170085
     12 C                    -0.124153
     13 C                    -0.123646
     14 C                    -0.163795
     15 H                     0.179530
     16 H                     0.172063
     17 H                     0.143997
     18 H                     0.170090
     19 H                     0.161307
     20 H                     0.165874
     21 H                     0.173412
     22 H                     0.142004
     23 H                     0.161563
     24 H                     0.159204
  ----------------------------------------
  Sum of atomic charges =    -0.000000

 -----------------------------------------------------------------
                    Cartesian Multipole Moments
 -----------------------------------------------------------------
    Charge (ESU x 10^10)
                -0.0000
    Dipole Moment (Debye)
         X       0.7892      Y      -2.3893      Z       2.0213
       Tot       3.2276
    Quadrupole Moments (Debye-Ang)
        XX     -66.0096     XY       3.3057     YY     -71.9951
        XZ      -0.3121     YZ       5.8172     ZZ     -84.3062
    Octopole Moments (Debye-Ang^2)
       XXX      24.8733    XXY     -20.1918    XYY      21.0949
       YYY       8.6549    XXZ       8.3675    XYZ       0.4476
       YYZ      15.2500    XZZ      11.3576    YZZ       3.6787
       ZZZ      -0.9786
    Hexadecapole Moments (Debye-Ang^3)
      XXXX   -1498.9211   XXXY     -48.0384   XXYY    -511.6489
      XYYY      55.3172   YYYY   -1520.5636   XXXZ       4.9017
      XXYZ       7.6167   XYYZ     -13.3319   YYYZ      37.5609
      XXZZ    -335.8204   XYZZ      -6.3323   YYZZ    -316.3483
      XZZZ       1.9886   YZZZ       4.5396   ZZZZ    -192.3189
 -----------------------------------------------------------------
 Calculating analytic gradient of the SCF energy
 Gradient of SCF Energy
            1           2           3           4           5           6
    1  -0.0000013  -0.0000036   0.0000010   0.0000025  -0.0000033  -0.0000017
    2   0.0000022   0.0000002  -0.0000047   0.0000003   0.0000013  -0.0000004
    3   0.0000015   0.0000037  -0.0000010  -0.0000057  -0.0000036  -0.0000037
            7           8           9          10          11          12
    1   0.0000016  -0.0000009   0.0000040   0.0000014  -0.0000008  -0.0000005
    2   0.0000007  -0.0000012   0.0000010  -0.0000014   0.0000002   0.0000011
    3   0.0000016   0.0000026  -0.0000055  -0.0000063   0.0000031   0.0000069
           13          14          15          16          17          18
    1  -0.0000007   0.0000009   0.0000003  -0.0000035  -0.0000005   0.0000035
    2   0.0000018   0.0000006  -0.0000014  -0.0000028   0.0000023   0.0000007
    3   0.0000074   0.0000059  -0.0000055  -0.0000063   0.0000106  -0.0000027
           19          20          21          22          23          24
    1   0.0000047  -0.0000003   0.0000000  -0.0000013  -0.0000003  -0.0000014
    2   0.0000001  -0.0000015  -0.0000018   0.0000015   0.0000013   0.0000001
    3  -0.0000059  -0.0000064  -0.0000077   0.0000077   0.0000066   0.0000027
 Max gradient component =       1.063E-05
 RMS gradient           =       3.556E-06
 Gradient time:  CPU 62.69 s  wall 3.34 s
 Geometry Optimization Parameters
   NAtoms,    NIC,     NZ,  NCons,   NDum,   NFix, NCnnct, MaxDiis
       24     152       0       0       0       0       0       0

 Cartesian Hessian Update
 Hessian Updated using BFGS Update
**WARNING** Hereditary positive definiteness endangered
**WARNING** Small Scalar Product
 Hessian Update Skipped this cycle


** GEOMETRY OPTIMIZATION IN DELOCALIZED INTERNAL COORDINATES **
   Searching for a Minimum

   Optimization Cycle:  13

                       Coordinates (Angstroms)
     ATOM                X               Y               Z
      1  C        -0.1961580274   -0.8683066062   -0.0264464375
      2  C        -1.0920752397    0.2175045249   -0.0707624524
      3  C         1.2630647349   -0.6617761854   -0.2756475328
      4  C        -0.6558684887    1.6487222773   -0.1527875738
      5  O         2.0126377098   -1.6272764127    0.3029277830
      6  O         1.7320199945    0.2315836501   -0.9503715158
      7  O         0.2940927034    1.9299626142    0.7594722834
      8  O        -1.1578683895    2.4679988419   -0.8923454142
      9  C         0.8529407917    3.2500929932    0.6675865617
     10  C         3.4227085625   -1.5388266009    0.0401667377
     11  C        -0.7000886686   -2.1664161170    0.1233444890
     12  C        -2.0736734766   -2.3902750315    0.2092127645
     13  C        -2.9601024087   -1.3155203690    0.1336855598
     14  C        -2.4676156044   -0.0187462292   -0.0101072856
     15  H         1.3555378874    3.3737976126   -0.2957759557
     16  H         3.6197503237   -1.6214313947   -1.0326974141
     17  H        -4.0319468009   -1.4847358832    0.1873251665
     18  H         0.0717062754    4.0083381389    0.7685165696
     19  H         1.5698815667    3.3215901505    1.4861300531
     20  H         3.8733458568   -2.3718940495    0.5805566355
     21  H         3.8184698761   -0.5848239697    0.3990966111
     22  H        -2.4497062124   -3.4034550891    0.3203791643
     23  H        -3.1430276241    0.8288416020   -0.0690255908
     24  H        -0.0069639115   -2.9996812959    0.1513922659
   Point Group: c1    Number of degrees of freedom:    66


   Energy is   -688.016234252

 Hessian Updated using BFGS Update
**WARNING** Hereditary positive definiteness endangered
**WARNING** Small Scalar Product
 Hessian Update Skipped this cycle

 66 Hessian modes will be used to form the next step
  Hessian Eigenvalues:
     0.002040    0.003177    0.010680    0.010917    0.018301    0.018714
     0.021854    0.022222    0.022601    0.022865    0.022946    0.023027
     0.023100    0.023470    0.038221    0.067287    0.070863    0.101487
     0.101570    0.105014    0.105927    0.158870    0.159494    0.159881
     0.159982    0.159987    0.160005    0.160184    0.160808    0.161695
     0.163712    0.220042    0.226051    0.243977    0.244925    0.247561
     0.249647    0.250006    0.253454    0.261639    0.296438    0.321577
     0.343452    0.343757    0.344075    0.344316    0.347540    0.347649
     0.352238    0.352290    0.353019    0.353536    0.363166    0.370626
     0.402678    0.406223    0.428336    0.445340    0.461448    0.463582
     0.465898    0.490277    0.546003    0.563927    0.984980    0.989902

 Minimum Search - Taking Simple RFO Step
 Searching for Lamda that Minimizes Along All modes
 Value Taken    Lamda =   0.00000000
 Step Taken.  Stepsize is  0.000209

                             Maximum     Tolerance    Cnvgd?
         Gradient           0.000002      0.000005     YES
         Displacement       0.000086      0.000005      NO
         Energy change      0.000000      0.000000     YES

 Final energy is   -688.016234251687     


 ******************************
 **  OPTIMIZATION CONVERGED  **
 ******************************

                       Coordinates (Angstroms)
     ATOM                X               Y               Z
      1  C        -0.1961580274   -0.8683066062   -0.0264464375
      2  C        -1.0920752397    0.2175045249   -0.0707624524
      3  C         1.2630647349   -0.6617761854   -0.2756475328
      4  C        -0.6558684887    1.6487222773   -0.1527875738
      5  O         2.0126377098   -1.6272764127    0.3029277830
      6  O         1.7320199945    0.2315836501   -0.9503715158
      7  O         0.2940927034    1.9299626142    0.7594722834
      8  O        -1.1578683895    2.4679988419   -0.8923454142
      9  C         0.8529407917    3.2500929932    0.6675865617
     10  C         3.4227085625   -1.5388266009    0.0401667377
     11  C        -0.7000886686   -2.1664161170    0.1233444890
     12  C        -2.0736734766   -2.3902750315    0.2092127645
     13  C        -2.9601024087   -1.3155203690    0.1336855598
     14  C        -2.4676156044   -0.0187462292   -0.0101072856
     15  H         1.3555378874    3.3737976126   -0.2957759557
     16  H         3.6197503237   -1.6214313947   -1.0326974141
     17  H        -4.0319468009   -1.4847358832    0.1873251665
     18  H         0.0717062754    4.0083381389    0.7685165696
     19  H         1.5698815667    3.3215901505    1.4861300531
     20  H         3.8733458568   -2.3718940495    0.5805566355
     21  H         3.8184698761   -0.5848239697    0.3990966111
     22  H        -2.4497062124   -3.4034550891    0.3203791643
     23  H        -3.1430276241    0.8288416020   -0.0690255908
     24  H        -0.0069639115   -2.9996812959    0.1513922659

Z-matrix Print:
$molecule
0 1
O 
C  1 1.346752
O  2 1.212503 1 124.339556
C  1 1.436488 2 115.024180 3 9.693188 0
H  4 1.090472 1 105.546255 2 -178.176185 0
H  4 1.093366 1 110.697919 2 -58.240793 0
H  4 1.093606 1 109.821704 2 62.596001 0
C  2 1.498462 1 111.574696 3 175.662746 0
C  8 1.396998 2 116.777842 1 -130.101461 0
H  9 1.085384 8 118.574563 2 -2.646710 0
C  9 1.394576 8 120.627202 2 176.854680 0
H  11 1.086444 9 119.888790 8 -179.523614 0
C  11 1.395191 9 119.835888 8 0.421580 0
H  13 1.086413 11 120.267187 9 179.946244 0
C  13 1.394353 11 119.925610 9 0.830131 0
H  15 1.084223 13 120.316839 11 178.160628 0
C  15 1.400526 13 120.653772 11 -0.581274 0
C  17 1.494686 15 119.813742 13 172.908910 0
O  18 1.213781 17 124.859923 15 -146.911143 0
O  18 1.352331 17 111.786486 15 30.723503 0
C  20 1.437069 18 114.941860 17 -176.509457 0
H  21 1.090457 20 105.536937 18 -179.409871 0
H  21 1.093425 20 110.415536 18 -59.683209 0
H  21 1.093932 20 110.573874 18 60.808483 0
$end

 
 --------------------------------------------------------------
 
                    Orbital Energies (a.u.)
 --------------------------------------------------------------
 
 Alpha MOs
 -- Occupied --
-19.197 -19.187 -19.138 -19.131 -10.320 -10.313 -10.244 -10.234
-10.219 -10.217 -10.208 -10.208 -10.207 -10.206  -1.106  -1.097
 -1.017  -1.009  -0.874  -0.784  -0.776  -0.730  -0.718  -0.644
 -0.628  -0.582  -0.562  -0.540  -0.511  -0.490  -0.480  -0.477
 -0.474  -0.465  -0.452  -0.444  -0.424  -0.419  -0.405  -0.389
 -0.379  -0.369  -0.364  -0.360  -0.349  -0.308  -0.293  -0.281
 -0.277  -0.264  -0.257
 -- Virtual --
 -0.053  -0.025   0.033   0.048   0.089   0.111   0.122   0.124
  0.134   0.145   0.154   0.161   0.163   0.171   0.174   0.180
  0.182   0.242   0.251   0.279   0.287   0.301   0.311   0.347
  0.381   0.382   0.414   0.492   0.499   0.507   0.517   0.526
  0.530   0.534   0.542   0.553   0.558   0.567   0.581   0.590
  0.594   0.600   0.609   0.626   0.641   0.644   0.670   0.677
  0.699   0.712   0.724   0.731   0.767   0.806   0.818   0.825
  0.827   0.838   0.844   0.853   0.858   0.864   0.878   0.887
  0.908   0.914   0.931   0.941   0.946   0.961   0.979   1.002
  1.033   1.043   1.050   1.077   1.091   1.101   1.121   1.146
  1.179   1.191   1.222   1.234   1.252   1.262   1.280   1.330
  1.362   1.374   1.398   1.431   1.442   1.460   1.468   1.470
  1.485   1.511   1.537   1.572   1.643   1.652   1.660   1.679
  1.705   1.736   1.769   1.794   1.795   1.805   1.843   1.851
  1.868   1.883   1.911   1.915   1.970   1.990   1.996   2.010
  2.019   2.023   2.037   2.053   2.095   2.103   2.105   2.109
  2.131   2.150   2.160   2.180   2.250   2.269   2.285   2.289
  2.296   2.313   2.327   2.377   2.418   2.420   2.475   2.526
  2.549   2.564   2.598   2.628   2.661   2.674   2.679   2.701
  2.750   2.782   2.798   2.830   2.846   2.920   2.962   2.978
  3.055   3.126   3.140   3.248   3.433   3.974   4.011   4.058
  4.083   4.107   4.212   4.239   4.248   4.269   4.351   4.397
  4.436   4.549   4.769
 --------------------------------------------------------------
 
          Ground-State Mulliken Net Atomic Charges

     Atom                 Charge (a.u.)
  ----------------------------------------
      1 C                     0.058915
      2 C                     0.070127
      3 C                     0.574693
      4 C                     0.550405
      5 O                    -0.456838
      6 O                    -0.487385
      7 O                    -0.442718
      8 O                    -0.478549
      9 C                    -0.218484
     10 C                    -0.217531
     11 C                    -0.170085
     12 C                    -0.124153
     13 C                    -0.123646
     14 C                    -0.163795
     15 H                     0.179530
     16 H                     0.172063
     17 H                     0.143997
     18 H                     0.170090
     19 H                     0.161307
     20 H                     0.165874
     21 H                     0.173412
     22 H                     0.142004
     23 H                     0.161563
     24 H                     0.159204
  ----------------------------------------
  Sum of atomic charges =    -0.000000

 -----------------------------------------------------------------
                    Cartesian Multipole Moments
 -----------------------------------------------------------------
    Charge (ESU x 10^10)
                -0.0000
    Dipole Moment (Debye)
         X       0.7892      Y      -2.3893      Z       2.0213
       Tot       3.2276
    Quadrupole Moments (Debye-Ang)
        XX     -66.0096     XY       3.3057     YY     -71.9951
        XZ      -0.3121     YZ       5.8172     ZZ     -84.3062
    Octopole Moments (Debye-Ang^2)
       XXX      24.8733    XXY     -20.1918    XYY      21.0949
       YYY       8.6549    XXZ       8.3675    XYZ       0.4476
       YYZ      15.2500    XZZ      11.3576    YZZ       3.6787
       ZZZ      -0.9786
    Hexadecapole Moments (Debye-Ang^3)
      XXXX   -1498.9211   XXXY     -48.0384   XXYY    -511.6489
      XYYY      55.3172   YYYY   -1520.5636   XXXZ       4.9017
      XXYZ       7.6167   XYYZ     -13.3319   YYYZ      37.5609
      XXZZ    -335.8204   XYZZ      -6.3323   YYZZ    -316.3483
      XZZZ       1.9886   YZZZ       4.5396   ZZZZ    -192.3189
 -----------------------------------------------------------------
Archival summary:
1\1\nid06079\OPT\ProcedureUnspecified\6-31G*\41010\junteng\MonOct223:26:172017MonOct223:26:172017\0\\#,OPT,ProcedureUnspecified,6-31G*,\\0,1\O\C,1,1.34675\O,2,1.2125,1,124.34\C,1,1.43649,2,115.024,3,9.69319,0\H,4,1.09047,1,105.546,2,-178.176,0\H,4,1.09337,1,110.698,2,-58.2408,0\H,4,1.09361,1,109.822,2,62.596,0\C,2,1.49846,1,111.575,3,175.663,0\C,8,1.397,2,116.778,1,-130.101,0\H,9,1.08538,8,118.575,2,-2.64671,0\C,9,1.39458,8,120.627,2,176.855,0\H,11,1.08644,9,119.889,8,-179.524,0\C,11,1.39519,9,119.836,8,0.42158,0\H,13,1.08641,11,120.267,9,179.946,0\C,13,1.39435,11,119.926,9,0.830131,0\H,15,1.08422,13,120.317,11,178.161,0\C,15,1.40053,13,120.654,11,-0.581274,0\C,17,1.49469,15,119.814,13,172.909,0\O,18,1.21378,17,124.86,15,-146.911,0\O,18,1.35233,17,111.786,15,30.7235,0\C,20,1.43707,18,114.942,17,-176.509,0\H,21,1.09046,20,105.537,18,-179.41,0\H,21,1.09343,20,110.416,18,-59.6832,0\H,21,1.09393,20,110.574,18,60.8085,0\\\@

 Total job time:  128.83s(wall), 2844.36s(cpu) 
 Mon Oct  2 23:26:17 2017

        *************************************************************
        *                                                           *
        *  Thank you very much for using Q-Chem.  Have a nice day.  *
        *                                                           *
        *************************************************************


