nid04596 10.128.18
Q-Chem Developer Version! Running on 10.128.18.*
                  Welcome to Q-Chem
     A Quantum Leap Into The Future Of Chemistry


 Q-Chem 5.0, Q-Chem, Inc., Pleasanton, CA (2017)

 Yihan Shao,  Zhengting Gan,  E. Epifanovsky,  A. T. B. Gilbert,  M. Wormit,  
 J. Kussmann,  A. W. Lange,  A. Behn,  Jia Deng,  Xintian Feng,  D. Ghosh,  
 M. Goldey,  P. R. Horn,  L. D. Jacobson,  I. Kaliman,  T. Kus,  A. Landau,  
 Jie Liu,  E. I. Proynov,  R. M. Richard,  R. P. Steele,  E. J. Sundstrom,  
 H. L. Woodcock III,  P. M. Zimmerman,  D. Zuev,  B. Albrecht,  E. Alguire,  
 S. A. Baeppler,  Z. Benda,  Y. A. Bernard,  E. J. Berquist,  K. B. Bravaya,  
 D. Casanova,  Chun-Min Chang,  Yunqing Chen,  A. Chien,  K. D. Closser,  
 M. P. Coons,  S. Dasgupta,  M. Diedenhofen,  Hainam Do,  R. G. Edgar,  
 Po-Tung Fang,  S. Fatehi,  Qingguo Feng,  Qinghui Ge,  A. Ghysels,  
 J. Gomes,  J. Gonthier,  A. Gunina,  M. W. D. Hanson-Heine,  
 P. H. P. Harbach,  A. W. Hauser,  J. E. Herr,  E. G. Hohenstein,  
 Z. C. Holden,  Kerwin Hui,  T.-C. Jagau,  Hyunjun Ji,  B. Kaduk,  
 K. Khistyaev,  Jaehoon Kim,  P. Klunzinger,  K. Koh,  D. Kosenkov,  
 T. Kowalczyk,  C. M. Krauter,  A. Kunitsa,  Ka Un Lao,  A. Laurent,  
 K. V. Lawler,  Joonho Lee,  D. Lefrancois,  S. Lehtola,  D. S. Levine,  
 Yi-Pei Li,  You-Sheng Lin,  Fenglai Liu,  E. Livshits,  A. Luenser,  
 P. Manohar,  E. Mansoor,  S. F. Manzer,  Shan-Ping Mao,  Yuezhi Mao,  
 N. Mardirossian,  A. V. Marenich,  L. A. Martinez-Martinez,  S. A. Maurer,  
 N. J. Mayhall,  S. C. McKenzie,  J.-M. Mewes,  A. F. Morrison,  K. Nanda,  
 T. S. Nguyen-Beck,  R. Olivares-Amaya,  J. A. Parkhill,  T. M. Perrine,  
 F. Plasser,  S. Prager,  A. Prociuk,  D. R. Rehn,  F. Rob,  M. Schneider,  
 N. Sergueev,  S. M. Sharada,  S. Sharma,  D. W. Small,  T. Stauch,  
 T. Stein,  Yu-Chuan Su,  A. J. W. Thom,  T. Tsuchimochi,  L. Vogt,  
 O. Vydrov,  M. A. Watson,  J. Wenzel,  M. de Wergifosse,  T. A. Wesolowski,  
 A. White,  J. Witte,  A. Yamada,  Jun Yang,  K. Yao,  S. Yeganeh,  
 S. R. Yost,  Zhi-Qiang You,  A. Zech,  Igor Ying Zhang,  Xing Zhang,  
 Yan Zhao,  Ying Zhu,  B. R. Brooks,  G. K. L. Chan,  C. J. Cramer,  
 M. S. Gordon,  W. J. Hehre,  A. Klamt,  M. W. Schmidt,  C. D. Sherrill,  
 D. G. Truhlar,  A. Aspuru-Guzik,  R. Baer,  A. T. Bell,  N. A. Besley,  
 Jeng-Da Chai,  A. Dreuw,  B. D. Dunietz,  T. R. Furlani,  Chao-Ping Hsu,  
 Yousung Jung,  Jing Kong,  D. S. Lambrecht,  WanZhen Liang,  C. Ochsenfeld,  
 V. A. Rassolov,  L. V. Slipchenko,  J. E. Subotnik,  T. Van Voorhis,  
 J. M. Herbert,  A. I. Krylov,  P. M. W. Gill,  M. Head-Gordon

 Contributors to earlier versions of Q-Chem not listed above: 
 R. D. Adamson,  B. Austin,  J. Baker,  G. J. O. Beran,  K. Brandhorst,  
 S. T. Brown,  E. F. C. Byrd,  A. K. Chakraborty,  C.-L. Cheng,  
 Siu Hung Chien,  D. M. Chipman,  D. L. Crittenden,  H. Dachsel,  
 R. A. DiStasio Jr.,  R. J. Doerksen,  A. D. Dutoi,  L. Fusti-Molnar,  
 W. A. Goddard III,  A. Golubeva-Zadorozhnaya,  S. R. Gwaltney,  G. Hawkins,  
 A. Heyden,  S. Hirata,  G. Kedziora,  F. J. Keil,  C. Kelley,  Jihan Kim,  
 R. A. King,  R. Z. Khaliullin,  P. P. Korambath,  W. Kurlancheek,  
 A. M. Lee,  M. S. Lee,  S. V. Levchenko,  Ching Yeh Lin,  D. Liotard,  
 R. C. Lochan,  I. Lotan,  P. E. Maslen,  N. Nair,  D. P. O'Neill,  
 D. Neuhauser,  E. Neuscamman,  C. M. Oana,  R. Olson,  B. Peters,  
 R. Peverati,  P. A. Pieniazek,  Y. M. Rhee,  J. Ritchie,  M. A. Rohrdanz,  
 E. Rosta,  N. J. Russ,  H. F. Schaefer III,  N. E. Schultz,  N. Shenvi,  
 A. C. Simmonett,  A. Sodt,  D. Stuck,  K. S. Thanthiriwatte,  V. Vanovschi,  
 Tao Wang,  A. Warshel,  C. F. Williams,  Q. Wu,  X. Xu,  W. Zhang

 Please cite Q-Chem as follows:
 Y. Shao et al., Mol. Phys. 113, 184-215 (2015)
 DOI: 10.1080/00268976.2014.952696

 Q-Chem 5.0.0 for Intel X86 EM64T Linux

 Parts of Q-Chem use Armadillo 5.200.1 (Boston Tea Smuggler).
 http://arma.sourceforge.net/

 Q-Chem begins on Wed Oct  4 17:29:54 2017  

Host: nid04596
0

     Scratch files written to /global/cscratch1/sd/junteng/scratch/13/opt_1001o+.save//

Checking the input file for inconsistencies... 	...done.

--------------------------------------------------------------
User input:
--------------------------------------------------------------
$molecule
0  1
C    0.656  -1.997   0.550
C   -0.379  -2.055   1.685
C    1.075  -0.633   0.035
C   -0.743  -0.756   2.367
O    2.254  -0.766  -0.643
O    0.466   0.414   0.178
O    0.380  -0.211   2.923
O   -1.879  -0.339   2.537
C    0.159   1.039   3.578
C    2.798   0.433  -1.203
C   -0.074  -2.721  -0.584
C   -0.239  -4.209  -0.268
C   -1.341  -4.194   0.796
C   -1.585  -2.694   0.978
O   -1.425  -2.250  -0.391
H    1.566  -2.528   0.855
H   -0.041  -2.721   2.491
H   -0.505   1.690   2.999
H    2.061   1.233  -1.326
H    0.286  -2.514  -1.595
H   -0.592  -4.755  -1.150
H    0.687  -4.677   0.078
H   -2.237  -4.682   0.398
H   -1.053  -4.703   1.720
H   -2.574  -2.451   1.372
H   -0.249   0.863   4.578
H    1.124   1.543   3.677
H    3.204   0.190  -2.189
H    3.617   0.777  -0.565
$end


$opt
CONSTRAINT
tors    2    1    3    5    162.3
tors    1    2    4    7    -56.6
ENDCONSTRAINT
$end

$rem
JOBTYPE                   OPT
METHOD                    B3LYP
DFT_D                     D3_OP
BASIS                     STO-3G
GEOM_OPT_MAX_CYCLES       500
SYMMETRY                  False
THRESH                    12
SCF_CONVERGENCE           8
MAX_SUB_FILE_NUM          128
MEM_STATIC                400
MEM_TOTAL                 4000
$end

--------------------------------------------------------------
 Adding empirical dispersion correction 
 ----------------------------------------------------------------
 Doing -D3(op) with
 s6 =   1.00000
 s8 =   0.78311
 a1 =   0.30000
 a2 =   4.25000
 n  =  10.00000
 -D3 energy without 3body term =     -0.0301175666 hartrees
 ----------------------------------------------------------------
             Standard Nuclear Orientation (Angstroms)
    I     Atom           X                Y                Z
 ----------------------------------------------------------------
    1      C       0.3697342729    -0.6344652785    -0.5682185024
    2      C       0.5830892856     0.8866305416    -0.5085431759
    3      C      -0.8699014548    -1.2078766031     0.0919214188
    4      C      -0.5598235439     1.7339384151     0.0021824174
    5      O      -1.0906277378    -2.4603631032    -0.4080500553
    6      O      -1.5566019091    -0.6636803128     0.9403504869
    7      O      -1.6498149946     1.5482939899    -0.8007775971
    8      O      -0.4799332706     2.5718972711     0.8880308806
    9      C      -2.8044492191     2.2858543985    -0.3968092184
   10      C      -2.2289112229    -3.1547881210     0.1108156327
   11      C       1.5897974066    -1.1573410878     0.1940667708
   12      C       2.8778742489    -0.9023938644    -0.5914807846
   13      C       3.0736984138     0.6062805862    -0.4118163796
   14      C       1.8273869003     0.9943712392     0.3874040257
   15      O       1.7087539834    -0.1697627505     1.2404077097
   16      H       0.3688686773    -0.9646705244    -1.6141868320
   17      H       0.8207486346     1.2891342672    -1.5030002060
   18      H      -2.9457124994     2.2580152575     0.6891040690
   19      H      -2.5806906233    -2.7639184006     1.0709042303
   20      H       1.5042519872    -2.1684976679     0.6000401094
   21      H       3.7202931181    -1.4355074158    -0.1367617613
   22      H       2.8052766319    -1.2051355012    -1.6399525713
   23      H       3.9784423183     0.7875324718     0.1780566756
   24      H       3.1670514341     1.1432862684    -1.3598201301
   25      H       1.9410338999     1.9133998678     0.9660893801
   26      H      -2.7227111035     3.3187026777    -0.7489218606
   27      H      -3.6791460159     1.8248750106    -0.8631197561
   28      H      -1.9485029726    -4.2023825341     0.2522304790
   29      H      -3.0343825811    -3.1071758873    -0.6274864507
 ----------------------------------------------------------------
 Molecular Point Group                 C1    NOp =  1
 Largest Abelian Subgroup              C1    NOp =  1
 Nuclear Repulsion Energy =  1110.7745787068 hartrees
 There are       57 alpha and       57 beta electrons
 Requested basis set is STO-3G
 There are 44 shells and 89 basis functions

 Total QAlloc Memory Limit   4000 MB
 Mega-Array Size       392 MB
 MEM_STATIC part       400 MB
 A cutoff of  1.0D-12 yielded    865 shell pairs
 There are      3901 function pairs
 
 -------------------------------------------------------
 OpenMP Integral Computing Module                       
 Release: version 1.0, May 2013, Q-Chem Inc. Pittsburgh 
 -------------------------------------------------------
 Integral Job Info:
 Integral job number is                      11
 Integral operator is                         1
 short-range coefficients                     0
 long-range coefficients              100000000
 Omega coefficients                           0
 if combine SR and LR in K                    0
 Integral screening is                        0
 Integral computing path is                   2
 max size of driver memory is            800000
 size of driver memory is                 45569
 size of scratch memory is               945100
 max col of scratch BK array                289
 max len of scratch array in speh3           22
 max len of scratch index in speh4            8
 max int batch size is                      520
 min int batch size is                       52
 fixed nKL is                                52
 max L of basis functions is                  1
 order of int derivative is                   0
 number of shells is                         44
 number of basis is                          89
 number of cartesian basis is                89
 number of contracted shell pairs           865
 number of primitive shell pairs           4854
 maxK2 (contraction) of shell pair            9
 max number of K2 of shell pair               1
 max number of CS2 of shell pair            117
 max number of PS2 of shell pair            570
 mem total for path MDJ                   27818
 -------------------------------------------------------
 Smallest overlap matrix eigenvalue = 1.94E-01

 Scale SEOQF with 1.000000e-01/1.000000e-01/1.000000e-01

 Standard Electronic Orientation quadrupole field applied
 Nucleus-field energy     =     0.0000000330 hartrees
 Guess from superposition of atomic densities
 Warning:  Energy on first SCF cycle will be non-variational
 A restricted hybrid HF-DFT SCF calculation will be
 performed using Pulay DIIS extrapolation
 Exchange:     0.2000 Hartree-Fock + 0.0800 Slater + 0.7200 B88
 Correlation:  0.1900 VWN1RPA + 0.8100 LYP
 Using SG-1 standard quadrature grid
 Dispersion:   Grimme D3
 SCF converges when DIIS error is below 1.0E-08
 -------------------------------------------------------
 OpenMP Integral computing Module                
 Release: version 1.0, May 2013, Q-Chem Inc. Pittsburgh 
 -------------------------------------------------------
 -------------------------------------------------------
 OpenMP BLAS3 based DFT computing Module                
 Release: version 1.0, May 2013, Q-Chem Inc. Pittsburgh 
 -------------------------------------------------------
 ---------------------------------------
  Cycle       Energy         DIIS Error
 ---------------------------------------
    1    -755.1333775847      1.15E-01
    2    -755.4330515638      1.43E-02
    3    -754.4849215495      3.46E-02
    4    -755.6668951176      4.97E-03
    5    -755.6923795685      1.60E-03
    6    -755.6952387513      2.89E-04
    7    -755.6953280194      8.61E-05
    8    -755.6953339718      4.56E-05
    9    -755.6953363169      5.67E-06
   10    -755.6953363555      1.52E-06
   11    -755.6953363583      3.20E-07
   12    -755.6953363584      9.74E-08
   13    -755.6953363584      1.84E-08
   14    -755.6953363584      6.30E-09 Convergence criterion met
 ---------------------------------------
 SCF time:  CPU 61.38 s  wall 2.84 s
 SCF   energy in the final basis set = -755.6953363584
 Total energy in the final basis set = -755.6953363584
 
 --------------------------------------------------------------
 
                    Orbital Energies (a.u.)
 --------------------------------------------------------------
 
 Alpha MOs
 -- Occupied --
-18.943 -18.934 -18.872 -18.868 -18.859 -10.111 -10.104 -10.073
-10.066 -10.061 -10.055 -10.036 -10.033 -10.014 -10.012  -1.042
 -1.033  -0.990  -0.953  -0.945  -0.775  -0.736  -0.726  -0.683
 -0.671  -0.604  -0.551  -0.537  -0.526  -0.488  -0.473  -0.461
 -0.440  -0.428  -0.426  -0.421  -0.415  -0.386  -0.375  -0.365
 -0.353  -0.345  -0.341  -0.326  -0.314  -0.310  -0.301  -0.289
 -0.277  -0.247  -0.240  -0.219  -0.182  -0.172  -0.155  -0.144
 -0.134
 -- Virtual --
  0.113   0.127   0.251   0.273   0.299   0.310   0.345   0.356
  0.375   0.385   0.402   0.409   0.410   0.426   0.432   0.435
  0.443   0.451   0.455   0.460   0.460   0.465   0.475   0.480
  0.491   0.502   0.518   0.541   0.575   0.584   0.702   0.708
 --------------------------------------------------------------
 
          Ground-State Mulliken Net Atomic Charges

     Atom                 Charge (a.u.)
  ----------------------------------------
      1 C                    -0.082971
      2 C                    -0.085571
      3 C                     0.240451
      4 C                     0.242231
      5 O                    -0.189960
      6 O                    -0.229387
      7 O                    -0.191160
      8 O                    -0.229880
      9 C                    -0.125822
     10 C                    -0.130239
     11 C                     0.028296
     12 C                    -0.148142
     13 C                    -0.147404
     14 C                     0.027402
     15 O                    -0.209209
     16 H                     0.089321
     17 H                     0.087279
     18 H                     0.100295
     19 H                     0.102343
     20 H                     0.088273
     21 H                     0.078598
     22 H                     0.072977
     23 H                     0.078897
     24 H                     0.071806
     25 H                     0.097598
     26 H                     0.087949
     27 H                     0.092564
     28 H                     0.092952
     29 H                     0.090514
  ----------------------------------------
  Sum of atomic charges =    -0.000000

 -----------------------------------------------------------------
                    Cartesian Multipole Moments
 -----------------------------------------------------------------
    Charge (ESU x 10^10)
                 0.0000
    Dipole Moment (Debye)
         X      -0.4166      Y      -1.4010      Z      -2.3203
       Tot       2.7423
    Quadrupole Moments (Debye-Ang)
        XX     -73.2573     XY       1.4702     YY     -76.5838
        XZ      -0.8786     YZ      -4.0885     ZZ     -84.4320
    Octopole Moments (Debye-Ang^2)
       XXX     -32.0675    XXY       2.6418    XYY     -21.2123
       YYY     -18.0132    XXZ      -1.5320    XYZ       2.6868
       YYZ       0.4941    XZZ      -5.4483    YZZ      -0.5880
       ZZZ       2.8189
    Hexadecapole Moments (Debye-Ang^3)
      XXXX   -1766.3352   XXXY      -9.1296   XXYY    -491.3941
      XYYY      25.6612   YYYY   -1433.0856   XXXZ      29.3497
      XXYZ       1.9950   XYYZ       9.5677   YYYZ     -42.5702
      XXZZ    -358.3887   XYZZ       4.2414   YYZZ    -298.1186
      XZZZ      -2.0840   YZZZ       6.4186   ZZZZ    -270.9550
 -----------------------------------------------------------------
 Calculating analytic gradient of the SCF energy
 Gradient of SCF Energy
            1           2           3           4           5           6
    1   0.0021799  -0.0079730  -0.0035713  -0.0118003  -0.0264753   0.0361920
    2   0.0147913  -0.0097851  -0.0216101   0.0028776   0.0360793  -0.0275161
    3   0.0422889   0.0229121   0.0047460  -0.0042293   0.0358437  -0.0453326
            7           8           9          10          11          12
    1   0.0164333   0.0007554   0.0161062   0.0147445  -0.0138282  -0.0217591
    2   0.0367505  -0.0371405  -0.0106249   0.0095456   0.0058728   0.0198850
    3   0.0447053  -0.0455882  -0.0072183  -0.0088297  -0.0065146   0.0225080
           13          14          15          16          17          18
    1  -0.0241050  -0.0105318   0.0070337  -0.0006561  -0.0000244   0.0002217
    2  -0.0176790  -0.0004173   0.0029261   0.0044461   0.0029786  -0.0041832
    3   0.0175573  -0.0072092  -0.0670699   0.0053539   0.0078343  -0.0111811
           19          20          21          22          23          24
    1   0.0033618   0.0038078  -0.0013620   0.0001313  -0.0031001  -0.0009921
    2  -0.0087182   0.0089398   0.0060041   0.0020688  -0.0049969  -0.0034859
    3  -0.0085645  -0.0049610  -0.0006986   0.0063589  -0.0026417   0.0059499
           25          26          27          28          29
    1   0.0056966   0.0025947   0.0072903  -0.0031770   0.0128064
    2  -0.0092234  -0.0145968   0.0054778   0.0113557  -0.0000218
    3  -0.0076017  -0.0009062   0.0069966  -0.0001980   0.0056898
 Max gradient component =       6.707E-02
 RMS gradient           =       1.788E-02
 Gradient time:  CPU 24.06 s  wall 1.16 s
 Geometry Optimization Parameters
   NAtoms,    NIC,     NZ,  NCons,   NDum,   NFix, NCnnct, MaxDiis
       29     227       0       2       0       0       0       0


** CONSTRAINED OPTIMIZATION IN DELOCALIZED INTERNAL COORDINATES **
   Searching for a Minimum

   Optimization Cycle:   1

                       Coordinates (Angstroms)
     ATOM                X               Y               Z
      1  C         0.3697342729   -0.6344652785   -0.5682185024
      2  C         0.5830892856    0.8866305416   -0.5085431759
      3  C        -0.8699014548   -1.2078766031    0.0919214188
      4  C        -0.5598235439    1.7339384151    0.0021824174
      5  O        -1.0906277378   -2.4603631032   -0.4080500553
      6  O        -1.5566019091   -0.6636803128    0.9403504869
      7  O        -1.6498149946    1.5482939899   -0.8007775971
      8  O        -0.4799332706    2.5718972711    0.8880308806
      9  C        -2.8044492191    2.2858543985   -0.3968092184
     10  C        -2.2289112229   -3.1547881210    0.1108156327
     11  C         1.5897974066   -1.1573410878    0.1940667708
     12  C         2.8778742489   -0.9023938644   -0.5914807846
     13  C         3.0736984138    0.6062805862   -0.4118163796
     14  C         1.8273869003    0.9943712392    0.3874040257
     15  O         1.7087539834   -0.1697627505    1.2404077097
     16  H         0.3688686773   -0.9646705244   -1.6141868320
     17  H         0.8207486346    1.2891342672   -1.5030002060
     18  H        -2.9457124994    2.2580152575    0.6891040690
     19  H        -2.5806906233   -2.7639184006    1.0709042303
     20  H         1.5042519872   -2.1684976679    0.6000401094
     21  H         3.7202931181   -1.4355074158   -0.1367617613
     22  H         2.8052766319   -1.2051355012   -1.6399525713
     23  H         3.9784423183    0.7875324718    0.1780566756
     24  H         3.1670514341    1.1432862684   -1.3598201301
     25  H         1.9410338999    1.9133998678    0.9660893801
     26  H        -2.7227111035    3.3187026777   -0.7489218606
     27  H        -3.6791460159    1.8248750106   -0.8631197561
     28  H        -1.9485029726   -4.2023825341    0.2522304790
     29  H        -3.0343825811   -3.1071758873   -0.6274864507
   Point Group: c1    Number of degrees of freedom:    81


   Energy is   -755.695336358

              Constraints and their Current Values
                                        Value     Constraint
   Dihedral:        2   1   3   5      161.585      162.300
   Dihedral:        1   2   4   7      -59.895      -56.600

 Attempting to Generate Delocalized Internal Coordinates

   Using Lagrange Multiplier Algorithm


 83 Hessian modes will be used to form the next step
  Hessian Eigenvalues:
    -0.977753   -0.977753    0.045000    0.045000    0.045000    0.045000
     0.045004    0.045352    0.045530    0.048627    0.058814    0.061923
     0.065581    0.067904    0.070808    0.072130    0.074343    0.075916
     0.081732    0.083785    0.084157    0.085390    0.086890    0.088227
     0.091114    0.091429    0.097232    0.098159    0.112260    0.112299
     0.113404    0.116979    0.117194    0.120275    0.121575    0.138015
     0.140421    0.160000    0.160000    0.160000    0.160000    0.160000
     0.160000    0.168655    0.174257    0.246664    0.248450    0.249983
     0.250000    0.250000    0.250000    0.250000    0.257040    0.266186
     0.268519    0.290485    0.293737    0.306576    0.311874    0.329392
     0.338114    0.340326    0.341575    0.341941    0.342237    0.342787
     0.342803    0.343231    0.343866    0.343905    0.343937    0.344082
     0.344477    0.344724    0.345856    0.408772    0.412181    0.516485
     0.516574    0.945024    0.955398    1.022753    1.022753

 Minimum Search - Taking P-RFO Step
 Searching for Lamda that Maximizes Along the Constraint modes Only
 Value Taken    Lamda =   0.00137008
 Searching for Lamda that Minimizes Along All other modes
 Value Taken    Lamda =  -0.06759481
 Calculated Step too Large.  Step scaled by  0.715800
 Step Taken.  Stepsize is  0.300000

                             Maximum     Tolerance    Cnvgd?
         Gradient            0.093336       0.000300      NO
         Displacement        0.105665       0.001200      NO
         Energy change     *********       0.000001      NO


 New Cartesian Coordinates Obtained by Inverse Iteration

 Displacement from previous Coordinates is:  0.917949
 Adding empirical dispersion correction 
 ----------------------------------------------------------------
 Doing -D3(op) with
 s6 =   1.00000
 s8 =   0.78311
 a1 =   0.30000
 a2 =   4.25000
 n  =  10.00000
 -D3 energy without 3body term =     -0.0300442166 hartrees
 ----------------------------------------------------------------
             Standard Nuclear Orientation (Angstroms)
    I     Atom           X                Y                Z
 ----------------------------------------------------------------
    1      C       0.4071625554    -0.6458634534    -0.5929437423
    2      C       0.6241256979     0.8933799459    -0.5144538090
    3      C      -0.8903791090    -1.1861154711     0.0652397377
    4      C      -0.5724438094     1.7383696796     0.0022944490
    5      O      -1.1333104650    -2.4707247976    -0.4384121283
    6      O      -1.5943463423    -0.6063498388     0.9104493286
    7      O      -1.6825957153     1.4977528541    -0.8195329076
    8      O      -0.5376780325     2.5779019483     0.9194577744
    9      C      -2.8770615787     2.2112734897    -0.3849972086
   10      C      -2.3270413477    -3.1008007702     0.1086094423
   11      C       1.6576564428    -1.1678609570     0.2073221574
   12      C       2.9688612674    -0.9122703615    -0.6102834300
   13      C       3.1586653147     0.6268138640    -0.4226121257
   14      C       1.8859181090     0.9978110209     0.4109717652
   15      O       1.7635973301    -0.1768126531     1.2947577332
   16      H       0.4186835556    -0.9873336197    -1.6415187470
   17      H       0.8691088264     1.2948343839    -1.5137540869
   18      H      -3.0005729306     2.1792952026     0.7131996375
   19      H      -2.6490433438    -2.6368468096     1.0589293883
   20      H       1.5630953151    -2.1862313147     0.6190914760
   21      H       3.8140644845    -1.4553442966    -0.1630467367
   22      H       2.8870214618    -1.2170114839    -1.6638990838
   23      H       4.0662087882     0.8268374119     0.1651779125
   24      H       3.2392348149     1.1732213380    -1.3738004438
   25      H       1.9757063543     1.9251945705     0.9998902917
   26      H      -2.8542056736     3.2653092575    -0.7210106558
   27      H      -3.7443100634     1.7119166620    -0.8498057210
   28      H      -2.0985633599    -4.1656284381     0.2922580090
   29      H      -3.1524664828    -3.0404641538    -0.6249192717
 ----------------------------------------------------------------
 Molecular Point Group                 C1    NOp =  1
 Largest Abelian Subgroup              C1    NOp =  1
 Nuclear Repulsion Energy =  1093.6895594903 hartrees
 There are       57 alpha and       57 beta electrons
 Applying Cartesian multipole field
    Component          Value
    ---------          -----
     (2,0,0)        1.00000E-11
     (0,2,0)        2.00000E-11
     (0,0,2)       -3.00000E-11
 Nucleus-field energy     =     0.0000000332 hartrees
 Requested basis set is STO-3G
 There are 44 shells and 89 basis functions
 A cutoff of  1.0D-12 yielded    864 shell pairs
 There are      3900 function pairs
 Smallest overlap matrix eigenvalue = 2.07E-01
 Guess MOs from SCF MO coefficient file
 Reading MOs from coefficient file
 Reading MOs from coefficient file
 A restricted hybrid HF-DFT SCF calculation will be
 performed using Pulay DIIS extrapolation
 Exchange:     0.2000 Hartree-Fock + 0.0800 Slater + 0.7200 B88
 Correlation:  0.1900 VWN1RPA + 0.8100 LYP
 Using SG-1 standard quadrature grid
 Dispersion:   Grimme D3
 SCF converges when DIIS error is below 1.0E-08
 Geometry optimization detected.  Setting ReadMinima to 0
 Setting SaveMinima to 0
 -------------------------------------------------------
 OpenMP Integral computing Module                
 Release: version 1.0, May 2013, Q-Chem Inc. Pittsburgh 
 -------------------------------------------------------
 -------------------------------------------------------
 OpenMP BLAS3 based DFT computing Module                
 Release: version 1.0, May 2013, Q-Chem Inc. Pittsburgh 
 -------------------------------------------------------
 ---------------------------------------
  Cycle       Energy         DIIS Error
 ---------------------------------------
    1    -755.5653121494      5.84E-03
    2    -755.7209942073      2.08E-03
    3    -755.7147659059      3.17E-03
    4    -755.7254506617      6.60E-04
    5    -755.7259650584      1.08E-04
    6    -755.7259794636      2.32E-05
    7    -755.7259796814      2.06E-05
    8    -755.7259801468      4.47E-06
    9    -755.7259801722      7.85E-07
   10    -755.7259801730      3.43E-07
   11    -755.7259801732      5.67E-08
   12    -755.7259801732      2.30E-08
   13    -755.7259801732      3.89E-09 Convergence criterion met
 ---------------------------------------
 SCF time:  CPU 52.58 s  wall 2.21 s
 SCF   energy in the final basis set = -755.7259801732
 Total energy in the final basis set = -755.7259801732
 
 --------------------------------------------------------------
 
                    Orbital Energies (a.u.)
 --------------------------------------------------------------
 
 Alpha MOs
 -- Occupied --
-18.940 -18.929 -18.879 -18.872 -18.861 -10.104 -10.097 -10.068
-10.061 -10.059 -10.054 -10.037 -10.034 -10.017 -10.015  -1.024
 -1.012  -0.972  -0.942  -0.932  -0.765  -0.726  -0.711  -0.672
 -0.661  -0.596  -0.546  -0.535  -0.515  -0.480  -0.462  -0.453
 -0.432  -0.418  -0.417  -0.411  -0.407  -0.380  -0.366  -0.356
 -0.348  -0.340  -0.333  -0.323  -0.309  -0.305  -0.299  -0.283
 -0.273  -0.249  -0.241  -0.227  -0.180  -0.168  -0.155  -0.144
 -0.138
 -- Virtual --
  0.103   0.118   0.241   0.259   0.278   0.293   0.324   0.343
  0.358   0.362   0.376   0.382   0.394   0.414   0.419   0.422
  0.425   0.432   0.434   0.442   0.445   0.448   0.450   0.454
  0.466   0.476   0.500   0.517   0.553   0.561   0.664   0.668
 --------------------------------------------------------------
 
          Ground-State Mulliken Net Atomic Charges

     Atom                 Charge (a.u.)
  ----------------------------------------
      1 C                    -0.078692
      2 C                    -0.081345
      3 C                     0.224024
      4 C                     0.225493
      5 O                    -0.179476
      6 O                    -0.217884
      7 O                    -0.181920
      8 O                    -0.219762
      9 C                    -0.124253
     10 C                    -0.128852
     11 C                     0.025270
     12 C                    -0.145494
     13 C                    -0.144581
     14 C                     0.024617
     15 O                    -0.195195
     16 H                     0.087734
     17 H                     0.084545
     18 H                     0.097657
     19 H                     0.099993
     20 H                     0.084588
     21 H                     0.077747
     22 H                     0.073057
     23 H                     0.077607
     24 H                     0.071861
     25 H                     0.093209
     26 H                     0.084431
     27 H                     0.089244
     28 H                     0.089580
     29 H                     0.086796
  ----------------------------------------
  Sum of atomic charges =    -0.000000

 -----------------------------------------------------------------
                    Cartesian Multipole Moments
 -----------------------------------------------------------------
    Charge (ESU x 10^10)
                 0.0000
    Dipole Moment (Debye)
         X      -0.2718      Y      -1.3500      Z      -2.2703
       Tot       2.6554
    Quadrupole Moments (Debye-Ang)
        XX     -72.5601     XY       1.6458     YY     -77.2056
        XZ      -1.2404     YZ      -3.9832     ZZ     -84.3321
    Octopole Moments (Debye-Ang^2)
       XXX     -33.2562    XXY       1.9740    XYY     -20.2595
       YYY     -16.1158    XXZ      -2.1086    XYZ       3.0950
       YYZ       0.9745    XZZ      -5.4957    YZZ      -0.7556
       ZZZ       3.2028
    Hexadecapole Moments (Debye-Ang^3)
      XXXX   -1865.5238   XXXY     -10.7015   XXYY    -502.2054
      XYYY      21.9488   YYYY   -1409.9129   XXXZ      27.5177
      XXYZ       0.3244   XYYZ       9.2360   YYYZ     -47.2454
      XXZZ    -378.5789   XYZZ       3.5060   YYZZ    -295.2132
      XZZZ      -3.2967   YZZZ       1.0920   ZZZZ    -279.3558
 -----------------------------------------------------------------
 Calculating analytic gradient of the SCF energy
 Gradient of SCF Energy
            1           2           3           4           5           6
    1  -0.0012476  -0.0021511   0.0012458  -0.0075120  -0.0127854   0.0087473
    2   0.0129680  -0.0119029  -0.0170161  -0.0050901   0.0159317  -0.0052853
    3   0.0151450   0.0099278  -0.0050448  -0.0110388   0.0163258  -0.0116303
            7           8           9          10          11          12
    1   0.0064357   0.0018528   0.0079801   0.0104846  -0.0062035  -0.0060549
    2   0.0156930  -0.0068662  -0.0059052   0.0054524  -0.0020669   0.0050013
    3   0.0213824  -0.0109844  -0.0051910  -0.0069977  -0.0052763   0.0065447
           13          14          15          16          17          18
    1  -0.0070122  -0.0066026   0.0039403  -0.0010745   0.0004731  -0.0011534
    2  -0.0052124   0.0044981   0.0018936   0.0023044   0.0019879  -0.0016190
    3   0.0056555  -0.0033561  -0.0168612   0.0008495   0.0026635  -0.0028120
           19          20          21          22          23          24
    1   0.0000947   0.0020551   0.0002232   0.0016638  -0.0008511   0.0016459
    2  -0.0040947   0.0032877   0.0028244  -0.0002884  -0.0021126  -0.0009039
    3  -0.0011949  -0.0008557  -0.0007734   0.0017974  -0.0012185   0.0016319
           25          26          27          28          29
    1   0.0037405   0.0001092   0.0005369  -0.0015693   0.0029885
    2  -0.0033290  -0.0036858   0.0020294   0.0024137  -0.0009074
    3  -0.0021366  -0.0011234   0.0027493   0.0006629   0.0011591
 Max gradient component =       2.138E-02
 RMS gradient           =       6.905E-03
 Gradient time:  CPU 13.76 s  wall 0.58 s
 Geometry Optimization Parameters
   NAtoms,    NIC,     NZ,  NCons,   NDum,   NFix, NCnnct, MaxDiis
       29     227       0       2       0       0       0       0

 Cartesian Hessian Update
 Hessian Updated using BFGS Update


** CONSTRAINED OPTIMIZATION IN DELOCALIZED INTERNAL COORDINATES **
   Searching for a Minimum

   Optimization Cycle:   2

                       Coordinates (Angstroms)
     ATOM                X               Y               Z
      1  C         0.4071625554   -0.6458634534   -0.5929437423
      2  C         0.6241256979    0.8933799459   -0.5144538090
      3  C        -0.8903791090   -1.1861154711    0.0652397377
      4  C        -0.5724438094    1.7383696796    0.0022944490
      5  O        -1.1333104650   -2.4707247976   -0.4384121283
      6  O        -1.5943463423   -0.6063498388    0.9104493286
      7  O        -1.6825957153    1.4977528541   -0.8195329076
      8  O        -0.5376780325    2.5779019483    0.9194577744
      9  C        -2.8770615787    2.2112734897   -0.3849972086
     10  C        -2.3270413477   -3.1008007702    0.1086094423
     11  C         1.6576564428   -1.1678609570    0.2073221574
     12  C         2.9688612674   -0.9122703615   -0.6102834300
     13  C         3.1586653147    0.6268138640   -0.4226121257
     14  C         1.8859181090    0.9978110209    0.4109717652
     15  O         1.7635973301   -0.1768126531    1.2947577332
     16  H         0.4186835556   -0.9873336197   -1.6415187470
     17  H         0.8691088264    1.2948343839   -1.5137540869
     18  H        -3.0005729306    2.1792952026    0.7131996375
     19  H        -2.6490433438   -2.6368468096    1.0589293883
     20  H         1.5630953151   -2.1862313147    0.6190914760
     21  H         3.8140644845   -1.4553442966   -0.1630467367
     22  H         2.8870214618   -1.2170114839   -1.6638990838
     23  H         4.0662087882    0.8268374119    0.1651779125
     24  H         3.2392348149    1.1732213380   -1.3738004438
     25  H         1.9757063543    1.9251945705    0.9998902917
     26  H        -2.8542056736    3.2653092575   -0.7210106558
     27  H        -3.7443100634    1.7119166620   -0.8498057210
     28  H        -2.0985633599   -4.1656284381    0.2922580090
     29  H        -3.1524664828   -3.0404641538   -0.6249192717
   Point Group: c1    Number of degrees of freedom:    81


   Energy is   -755.725980173

              Constraints and their Current Values
                                        Value     Constraint
   Dihedral:        2   1   3   5      162.076      162.300
   Dihedral:        1   2   4   7      -57.618      -56.600
 Hessian Updated using BFGS Update

   Using Lagrange Multiplier Algorithm


 75 Hessian modes will be used to form the next step
  Hessian Eigenvalues:
    -0.977754   -0.976324    0.044970    0.045000    0.045003    0.045416
     0.045544    0.048626    0.058818    0.061805    0.065593    0.067871
     0.070822    0.072126    0.074337    0.075942    0.081731    0.083698
     0.084163    0.085529    0.086941    0.088249    0.091046    0.091421
     0.097084    0.098158    0.112188    0.112431    0.113360    0.116981
     0.117197    0.121523    0.122214    0.138125    0.141417    0.159106
     0.161010    0.168548    0.174325    0.240271    0.246809    0.248571
     0.249984    0.250194    0.256705    0.267341    0.268578    0.291985
     0.299451    0.308642    0.320363    0.329281    0.338145    0.340345
     0.341557    0.341951    0.342216    0.342764    0.343180    0.343738
     0.343867    0.343921    0.344073    0.344421    0.344647    0.345781
     0.379306    0.405598    0.415029    0.502131    0.516547    0.949238
     0.966897    1.022753    1.029131

 Minimum Search - Taking P-RFO Step
 Searching for Lamda that Maximizes Along the Constraint modes Only
 Value Taken    Lamda =   0.00034854
 Searching for Lamda that Minimizes Along All other modes
 Value Taken    Lamda =  -0.00970223
 Step Taken.  Stepsize is  0.217966

                             Maximum     Tolerance    Cnvgd?
         Gradient            0.030813       0.000300      NO
         Displacement        0.068642       0.001200      NO
         Energy change     -0.030644       0.000001      NO


 New Cartesian Coordinates Obtained by Inverse Iteration

 Displacement from previous Coordinates is:  0.637135
 Adding empirical dispersion correction 
 ----------------------------------------------------------------
 Doing -D3(op) with
 s6 =   1.00000
 s8 =   0.78311
 a1 =   0.30000
 a2 =   4.25000
 n  =  10.00000
 -D3 energy without 3body term =     -0.0301349006 hartrees
 ----------------------------------------------------------------
             Standard Nuclear Orientation (Angstroms)
    I     Atom           X                Y                Z
 ----------------------------------------------------------------
    1      C       0.4383696885    -0.6631830024    -0.6281048475
    2      C       0.6450677895     0.8966780444    -0.5281741071
    3      C      -0.8837513329    -1.1803923825     0.0316566075
    4      C      -0.5870555666     1.7227505121    -0.0127890151
    5      O      -1.1437799423    -2.4844770197    -0.4780950296
    6      O      -1.5892042309    -0.5962585557     0.8845740359
    7      O      -1.6951635959     1.4427651755    -0.8643362295
    8      O      -0.6030669927     2.5416866000     0.9318730896
    9      C      -2.8925322483     2.1510133969    -0.3778417286
   10      C      -2.3712727834    -3.0355205868     0.1269095765
   11      C       1.6874674416    -1.1793015329     0.2054780777
   12      C       3.0039983275    -0.9074312949    -0.6185201487
   13      C       3.1824851207     0.6442568712    -0.4129067730
   14      C       1.8967097779     0.9883470504     0.4322145835
   15      O       1.7637662586    -0.1979476601     1.3151936591
   16      H       0.4709413807    -1.0120046841    -1.6758037975
   17      H       0.9006429360     1.3044698313    -1.5245789670
   18      H      -2.9786894910     2.0960372368     0.7262109412
   19      H      -2.6270144769    -2.4950440939     1.0607058565
   20      H       1.5811087895    -2.2056802210     0.6086584074
   21      H       3.8479202350    -1.4632596807    -0.1786731123
   22      H       2.9087335966    -1.1995965704    -1.6769605040
   23      H       4.0882693934     0.8587870588     0.1775697005
   24      H       3.2414770447     1.2067674089    -1.3588041478
   25      H       1.9486914024     1.9164283163     1.0344910471
   26      H      -2.8807999453     3.2192210993    -0.6808973892
   27      H      -3.7606520366     1.6492312939    -0.8453748037
   28      H      -2.1896606515    -4.1060828875     0.3438715301
   29      H      -3.2179138240    -2.9480065132    -0.5848875075
 ----------------------------------------------------------------
 Molecular Point Group                 C1    NOp =  1
 Largest Abelian Subgroup              C1    NOp =  1
 Nuclear Repulsion Energy =  1089.8606258140 hartrees
 There are       57 alpha and       57 beta electrons
 Applying Cartesian multipole field
    Component          Value
    ---------          -----
     (2,0,0)        1.00000E-11
     (0,2,0)        2.00000E-11
     (0,0,2)       -3.00000E-11
 Nucleus-field energy     =     0.0000000326 hartrees
 Requested basis set is STO-3G
 There are 44 shells and 89 basis functions
 A cutoff of  1.0D-12 yielded    862 shell pairs
 There are      3892 function pairs
 Smallest overlap matrix eigenvalue = 2.13E-01
 Guess MOs from SCF MO coefficient file
 Reading MOs from coefficient file
 Reading MOs from coefficient file
 A restricted hybrid HF-DFT SCF calculation will be
 performed using Pulay DIIS extrapolation
 Exchange:     0.2000 Hartree-Fock + 0.0800 Slater + 0.7200 B88
 Correlation:  0.1900 VWN1RPA + 0.8100 LYP
 Using SG-1 standard quadrature grid
 Dispersion:   Grimme D3
 SCF converges when DIIS error is below 1.0E-08
 Geometry optimization detected.  Setting ReadMinima to 0
 Setting SaveMinima to 0
 -------------------------------------------------------
 OpenMP Integral computing Module                
 Release: version 1.0, May 2013, Q-Chem Inc. Pittsburgh 
 -------------------------------------------------------
 -------------------------------------------------------
 OpenMP BLAS3 based DFT computing Module                
 Release: version 1.0, May 2013, Q-Chem Inc. Pittsburgh 
 -------------------------------------------------------
 ---------------------------------------
  Cycle       Energy         DIIS Error
 ---------------------------------------
    1    -755.6476824943      3.73E-03
    2    -755.7293681888      1.32E-03
    3    -755.7258309941      2.23E-03
    4    -755.7311946356      3.76E-04
    5    -755.7313602230      8.01E-05
    6    -755.7313678644      2.03E-05
    7    -755.7313680311      1.74E-05
    8    -755.7313683678      3.51E-06
    9    -755.7313683836      5.14E-07
   10    -755.7313683838      2.63E-07
   11    -755.7313683839      2.95E-08
   12    -755.7313683839      1.23E-08
   13    -755.7313683839      3.42E-09 Convergence criterion met
 ---------------------------------------
 SCF time:  CPU 53.19 s  wall 2.24 s
 SCF   energy in the final basis set = -755.7313683839
 Total energy in the final basis set = -755.7313683839
 
 --------------------------------------------------------------
 
                    Orbital Energies (a.u.)
 --------------------------------------------------------------
 
 Alpha MOs
 -- Occupied --
-18.937 -18.927 -18.883 -18.876 -18.865 -10.101 -10.094 -10.062
-10.060 -10.057 -10.055 -10.038 -10.033 -10.020 -10.018  -1.015
 -1.004  -0.967  -0.938  -0.929  -0.762  -0.722  -0.706  -0.665
 -0.655  -0.593  -0.544  -0.536  -0.510  -0.474  -0.456  -0.450
 -0.430  -0.414  -0.413  -0.407  -0.403  -0.376  -0.360  -0.354
 -0.345  -0.339  -0.330  -0.322  -0.310  -0.302  -0.297  -0.280
 -0.271  -0.252  -0.246  -0.231  -0.180  -0.167  -0.157  -0.146
 -0.141
 -- Virtual --
  0.098   0.114   0.238   0.255   0.272   0.284   0.314   0.333
  0.345   0.348   0.362   0.374   0.386   0.406   0.412   0.419
  0.422   0.427   0.429   0.435   0.437   0.439   0.443   0.445
  0.452   0.468   0.491   0.508   0.545   0.552   0.649   0.652
 --------------------------------------------------------------
 
          Ground-State Mulliken Net Atomic Charges

     Atom                 Charge (a.u.)
  ----------------------------------------
      1 C                    -0.077127
      2 C                    -0.080219
      3 C                     0.216599
      4 C                     0.217600
      5 O                    -0.172159
      6 O                    -0.212773
      7 O                    -0.175432
      8 O                    -0.214461
      9 C                    -0.126618
     10 C                    -0.132953
     11 C                     0.024580
     12 C                    -0.144062
     13 C                    -0.143130
     14 C                     0.023471
     15 O                    -0.189773
     16 H                     0.087200
     17 H                     0.082888
     18 H                     0.097488
     19 H                     0.100911
     20 H                     0.083446
     21 H                     0.077685
     22 H                     0.073549
     23 H                     0.077417
     24 H                     0.072571
     25 H                     0.091127
     26 H                     0.082897
     27 H                     0.087215
     28 H                     0.087407
     29 H                     0.084655
  ----------------------------------------
  Sum of atomic charges =    -0.000000

 -----------------------------------------------------------------
                    Cartesian Multipole Moments
 -----------------------------------------------------------------
    Charge (ESU x 10^10)
                 0.0000
    Dipole Moment (Debye)
         X      -0.0618      Y      -1.1875      Z      -2.1859
       Tot       2.4884
    Quadrupole Moments (Debye-Ang)
        XX     -72.6610     XY       1.6157     YY     -77.7470
        XZ      -1.4542     YZ      -3.8445     ZZ     -84.3275
    Octopole Moments (Debye-Ang^2)
       XXX     -32.4506    XXY       2.0495    XYY     -17.7825
       YYY     -11.2917    XXZ      -1.5278    XYZ       3.3557
       YYZ       2.1196    XZZ      -5.0708    YZZ      -0.1233
       ZZZ       4.8265
    Hexadecapole Moments (Debye-Ang^3)
      XXXX   -1900.8280   XXXY      -9.8207   XXYY    -506.2357
      XYYY      17.9470   YYYY   -1379.6718   XXXZ      27.2014
      XXYZ      -0.1820   XYYZ       8.3912   YYYZ     -47.7975
      XXZZ    -385.9344   XYZZ       3.4621   YYZZ    -290.7301
      XZZZ      -4.2225   YZZZ      -0.2200   ZZZZ    -285.7700
 -----------------------------------------------------------------
 Calculating analytic gradient of the SCF energy
 Gradient of SCF Energy
            1           2           3           4           5           6
    1   0.0011911   0.0001321  -0.0010982  -0.0051493  -0.0008215  -0.0013807
    2   0.0030417  -0.0047547  -0.0082702   0.0008002   0.0026870   0.0010292
    3   0.0018935   0.0045049  -0.0014347  -0.0064191   0.0019667  -0.0009654
            7           8           9          10          11          12
    1   0.0009379   0.0005587   0.0048727   0.0043937  -0.0008433  -0.0027410
    2   0.0002306   0.0017827  -0.0014915   0.0046856  -0.0023788   0.0004078
    3   0.0038875   0.0007973  -0.0000020  -0.0019786  -0.0034705   0.0001403
           13          14          15          16          17          18
    1  -0.0027042  -0.0018471   0.0017396  -0.0000041   0.0002372  -0.0001639
    2  -0.0002234   0.0022590  -0.0001586   0.0009337   0.0011807   0.0001221
    3  -0.0004800  -0.0016498   0.0000809  -0.0006587   0.0002182   0.0004183
           19          20          21          22          23          24
    1  -0.0006590  -0.0000200   0.0002734   0.0009501   0.0000640   0.0013242
    2  -0.0008300   0.0001026   0.0002824  -0.0008499  -0.0002879   0.0005295
    3   0.0008213   0.0011542   0.0004379  -0.0000438   0.0004596   0.0001059
           25          26          27          28          29
    1   0.0009750  -0.0000972   0.0000400   0.0000880  -0.0002482
    2   0.0000493   0.0001083  -0.0005991  -0.0003112  -0.0000769
    3   0.0002884  -0.0004428   0.0000973   0.0004152  -0.0001421
 Max gradient component =       8.270E-03
 RMS gradient           =       2.047E-03
 Gradient time:  CPU 14.34 s  wall 0.61 s
 Geometry Optimization Parameters
   NAtoms,    NIC,     NZ,  NCons,   NDum,   NFix, NCnnct, MaxDiis
       29     227       0       2       0       0       0       0

 Cartesian Hessian Update
 Hessian Updated using BFGS Update


** CONSTRAINED OPTIMIZATION IN DELOCALIZED INTERNAL COORDINATES **
   Searching for a Minimum

   Optimization Cycle:   3

                       Coordinates (Angstroms)
     ATOM                X               Y               Z
      1  C         0.4383696885   -0.6631830024   -0.6281048475
      2  C         0.6450677895    0.8966780444   -0.5281741071
      3  C        -0.8837513329   -1.1803923825    0.0316566075
      4  C        -0.5870555666    1.7227505121   -0.0127890151
      5  O        -1.1437799423   -2.4844770197   -0.4780950296
      6  O        -1.5892042309   -0.5962585557    0.8845740359
      7  O        -1.6951635959    1.4427651755   -0.8643362295
      8  O        -0.6030669927    2.5416866000    0.9318730896
      9  C        -2.8925322483    2.1510133969   -0.3778417286
     10  C        -2.3712727834   -3.0355205868    0.1269095765
     11  C         1.6874674416   -1.1793015329    0.2054780777
     12  C         3.0039983275   -0.9074312949   -0.6185201487
     13  C         3.1824851207    0.6442568712   -0.4129067730
     14  C         1.8967097779    0.9883470504    0.4322145835
     15  O         1.7637662586   -0.1979476601    1.3151936591
     16  H         0.4709413807   -1.0120046841   -1.6758037975
     17  H         0.9006429360    1.3044698313   -1.5245789670
     18  H        -2.9786894910    2.0960372368    0.7262109412
     19  H        -2.6270144769   -2.4950440939    1.0607058565
     20  H         1.5811087895   -2.2056802210    0.6086584074
     21  H         3.8479202350   -1.4632596807   -0.1786731123
     22  H         2.9087335966   -1.1995965704   -1.6769605040
     23  H         4.0882693934    0.8587870588    0.1775697005
     24  H         3.2414770447    1.2067674089   -1.3588041478
     25  H         1.9486914024    1.9164283163    1.0344910471
     26  H        -2.8807999453    3.2192210993   -0.6808973892
     27  H        -3.7606520366    1.6492312939   -0.8453748037
     28  H        -2.1896606515   -4.1060828875    0.3438715301
     29  H        -3.2179138240   -2.9480065132   -0.5848875075
   Point Group: c1    Number of degrees of freedom:    81


   Energy is   -755.731368384

              Constraints and their Current Values
                                        Value     Constraint
   Dihedral:        2   1   3   5      162.299      162.300
   Dihedral:        1   2   4   7      -56.601      -56.600
 Hessian Updated using BFGS Update

   Using Lagrange Multiplier Algorithm


 78 Hessian modes will be used to form the next step
  Hessian Eigenvalues:
    -0.977727   -0.976577    0.043438    0.045000    0.045002    0.045015
     0.045360    0.045574    0.048499    0.058752    0.059877    0.065582
     0.067382    0.070821    0.072080    0.074341    0.075961    0.081668
     0.082709    0.084155    0.085012    0.086687    0.088229    0.091124
     0.091464    0.095979    0.098155    0.111853    0.112751    0.113282
     0.116980    0.117185    0.121675    0.122212    0.138103    0.141479
     0.157318    0.160710    0.161010    0.169482    0.174392    0.246173
     0.247724    0.249505    0.249992    0.250185    0.253980    0.267314
     0.268396    0.276104    0.292035    0.301519    0.308643    0.318076
     0.329222    0.338146    0.340252    0.341535    0.341671    0.342288
     0.342454    0.343092    0.343526    0.343875    0.343917    0.344072
     0.344412    0.344798    0.345847    0.370490    0.394644    0.411781
     0.476128    0.516553    0.949707    0.979733    1.022800    1.029542

 Minimum Search - Taking P-RFO Step
 Searching for Lamda that Maximizes Along the Constraint modes Only
 Value Taken    Lamda =   0.00000123
 Searching for Lamda that Minimizes Along All other modes
 Value Taken    Lamda =  -0.00111922
 Step Taken.  Stepsize is  0.114131

                             Maximum     Tolerance    Cnvgd?
         Gradient            0.006469       0.000300      NO
         Displacement        0.036263       0.001200      NO
         Energy change     -0.005388       0.000001      NO


 New Cartesian Coordinates Obtained by Inverse Iteration

 Displacement from previous Coordinates is:  0.256107
 Adding empirical dispersion correction 
 ----------------------------------------------------------------
 Doing -D3(op) with
 s6 =   1.00000
 s8 =   0.78311
 a1 =   0.30000
 a2 =   4.25000
 n  =  10.00000
 -D3 energy without 3body term =     -0.0301877616 hartrees
 ----------------------------------------------------------------
             Standard Nuclear Orientation (Angstroms)
    I     Atom           X                Y                Z
 ----------------------------------------------------------------
    1      C       0.4442843025    -0.6611006523    -0.6424745038
    2      C       0.6570664520     0.9023313228    -0.5292610834
    3      C      -0.8761193869    -1.1671606596     0.0328966089
    4      C      -0.5823204000     1.7202178027    -0.0100505696
    5      O      -1.1637956697    -2.4750017553    -0.4805055629
    6      O      -1.5524799763    -0.5864788484     0.9117487655
    7      O      -1.6946331727     1.4446276765    -0.8740432465
    8      O      -0.6108757952     2.5206308576     0.9492050909
    9      C      -2.9116847288     2.1421447739    -0.3959284724
   10      C      -2.3886364013    -3.0325579201     0.1447895534
   11      C       1.6949608697    -1.1809036909     0.1952697766
   12      C       3.0168775667    -0.9040510444    -0.6253297299
   13      C       3.1975749698     0.6454506693    -0.4029778125
   14      C       1.9063135228     0.9796544365     0.4422317623
   15      O       1.7614562200    -0.2116791069     1.3152904766
   16      H       0.4742612990    -1.0084756533    -1.6902097638
   17      H       0.9147777680     1.3137940837    -1.5231573097
   18      H      -3.0148764476     2.0655216241     0.7047476070
   19      H      -2.6173860355    -2.4864077917     1.0815121133
   20      H       1.5827029381    -2.2119605142     0.5843443667
   21      H       3.8588595126    -1.4702843510    -0.1956537191
   22      H       2.9127643359    -1.1796100621    -1.6871598402
   23      H       4.1043875608     0.8585867165     0.1861220114
   24      H       3.2462248271     1.2155206970    -1.3445228815
   25      H       1.9467856551     1.9038482018     1.0513875059
   26      H      -2.8966017422     3.2165955268    -0.6751121643
   27      H      -3.7698387910     1.6493854186    -0.8902004668
   28      H      -2.2077816881    -4.1048916553     0.3502991200
   29      H      -3.2471755007    -2.9334928923    -0.5505986276
 ----------------------------------------------------------------
 Molecular Point Group                 C1    NOp =  1
 Largest Abelian Subgroup              C1    NOp =  1
 Nuclear Repulsion Energy =  1088.2343091232 hartrees
 There are       57 alpha and       57 beta electrons
 Applying Cartesian multipole field
    Component          Value
    ---------          -----
     (2,0,0)        1.00000E-11
     (0,2,0)        2.00000E-11
     (0,0,2)       -3.00000E-11
 Nucleus-field energy     =     0.0000000325 hartrees
 Requested basis set is STO-3G
 There are 44 shells and 89 basis functions
 A cutoff of  1.0D-12 yielded    862 shell pairs
 There are      3892 function pairs
 Smallest overlap matrix eigenvalue = 2.13E-01
 Guess MOs from SCF MO coefficient file
 Reading MOs from coefficient file
 Reading MOs from coefficient file
 A restricted hybrid HF-DFT SCF calculation will be
 performed using Pulay DIIS extrapolation
 Exchange:     0.2000 Hartree-Fock + 0.0800 Slater + 0.7200 B88
 Correlation:  0.1900 VWN1RPA + 0.8100 LYP
 Using SG-1 standard quadrature grid
 Dispersion:   Grimme D3
 SCF converges when DIIS error is below 1.0E-08
 Geometry optimization detected.  Setting ReadMinima to 0
 Setting SaveMinima to 0
 -------------------------------------------------------
 OpenMP Integral computing Module                
 Release: version 1.0, May 2013, Q-Chem Inc. Pittsburgh 
 -------------------------------------------------------
 -------------------------------------------------------
 OpenMP BLAS3 based DFT computing Module                
 Release: version 1.0, May 2013, Q-Chem Inc. Pittsburgh 
 -------------------------------------------------------
 ---------------------------------------
  Cycle       Energy         DIIS Error
 ---------------------------------------
    1    -755.7150824138      1.92E-03
    2    -755.7316545342      4.53E-04
    3    -755.7307722752      9.96E-04
    4    -755.7318967379      6.91E-05
    5    -755.7319018005      2.81E-05
    6    -755.7319026195      1.05E-05
    7    -755.7319026926      7.09E-06
    8    -755.7319027502      7.87E-07
    9    -755.7319027510      2.12E-07
   10    -755.7319027510      8.52E-08
   11    -755.7319027510      1.23E-08
   12    -755.7319027510      3.20E-09 Convergence criterion met
 ---------------------------------------
 SCF time:  CPU 50.27 s  wall 2.12 s
 SCF   energy in the final basis set = -755.7319027510
 Total energy in the final basis set = -755.7319027510
 
 --------------------------------------------------------------
 
                    Orbital Energies (a.u.)
 --------------------------------------------------------------
 
 Alpha MOs
 -- Occupied --
-18.933 -18.923 -18.885 -18.877 -18.867 -10.100 -10.093 -10.061
-10.060 -10.057 -10.055 -10.038 -10.034 -10.020 -10.018  -1.011
 -0.999  -0.968  -0.936  -0.927  -0.761  -0.721  -0.705  -0.663
 -0.654  -0.593  -0.544  -0.536  -0.509  -0.472  -0.455  -0.450
 -0.430  -0.414  -0.411  -0.405  -0.402  -0.375  -0.360  -0.353
 -0.345  -0.339  -0.330  -0.322  -0.310  -0.302  -0.296  -0.279
 -0.271  -0.250  -0.244  -0.233  -0.177  -0.166  -0.157  -0.146
 -0.142
 -- Virtual --
  0.097   0.114   0.234   0.251   0.267   0.283   0.312   0.331
  0.342   0.345   0.358   0.372   0.384   0.404   0.410   0.419
  0.422   0.425   0.429   0.433   0.437   0.439   0.442   0.445
  0.451   0.467   0.489   0.507   0.543   0.551   0.647   0.651
 --------------------------------------------------------------
 
          Ground-State Mulliken Net Atomic Charges

     Atom                 Charge (a.u.)
  ----------------------------------------
      1 C                    -0.076806
      2 C                    -0.079854
      3 C                     0.214797
      4 C                     0.215690
      5 O                    -0.171670
      6 O                    -0.211314
      7 O                    -0.175404
      8 O                    -0.213079
      9 C                    -0.128321
     10 C                    -0.134409
     11 C                     0.024800
     12 C                    -0.144092
     13 C                    -0.143125
     14 C                     0.023727
     15 O                    -0.188716
     16 H                     0.087507
     17 H                     0.082859
     18 H                     0.096926
     19 H                     0.100456
     20 H                     0.083231
     21 H                     0.078051
     22 H                     0.073869
     23 H                     0.077873
     24 H                     0.073027
     25 H                     0.090979
     26 H                     0.082884
     27 H                     0.087476
     28 H                     0.087944
     29 H                     0.084693
  ----------------------------------------
  Sum of atomic charges =    -0.000000

 -----------------------------------------------------------------
                    Cartesian Multipole Moments
 -----------------------------------------------------------------
    Charge (ESU x 10^10)
                 0.0000
    Dipole Moment (Debye)
         X      -0.0197      Y      -1.1539      Z      -2.1955
       Tot       2.4803
    Quadrupole Moments (Debye-Ang)
        XX     -72.3315     XY       1.6282     YY     -77.6962
        XZ      -1.4726     YZ      -3.8419     ZZ     -84.4547
    Octopole Moments (Debye-Ang^2)
       XXX     -33.5456    XXY       2.0606    XYY     -17.8898
       YYY     -10.9377    XXZ      -1.6180    XYZ       3.6500
       YYZ       2.1816    XZZ      -5.0180    YZZ      -0.0916
       ZZZ       4.4189
    Hexadecapole Moments (Debye-Ang^3)
      XXXX   -1909.8339   XXXY     -10.2491   XXYY    -506.6890
      XYYY      17.9654   YYYY   -1367.9244   XXXZ      27.8368
      XXYZ      -0.2022   XYYZ       8.0272   YYYZ     -45.9896
      XXZZ    -389.0938   XYZZ       3.5313   YYZZ    -290.7559
      XZZZ      -3.9351   YZZZ       1.2423   ZZZZ    -290.2528
 -----------------------------------------------------------------
 Calculating analytic gradient of the SCF energy
 Gradient of SCF Energy
            1           2           3           4           5           6
    1  -0.0000857   0.0014278   0.0014223   0.0012347   0.0001258  -0.0013098
    2   0.0005708  -0.0016791  -0.0002294   0.0016821   0.0000380   0.0012912
    3  -0.0015922   0.0044178  -0.0009216  -0.0042672   0.0006230   0.0003604
            7           8           9          10          11          12
    1  -0.0000184   0.0001960  -0.0023089  -0.0010707   0.0002789  -0.0003238
    2  -0.0013504   0.0010990  -0.0004207  -0.0022738  -0.0006811  -0.0003191
    3   0.0017245   0.0009871  -0.0002445  -0.0000686  -0.0016189  -0.0008754
           13          14          15          16          17          18
    1  -0.0003486   0.0001385   0.0006562   0.0002593  -0.0002023   0.0002362
    2   0.0002409   0.0001027  -0.0000878   0.0008292   0.0005611   0.0004394
    3  -0.0009600  -0.0007249   0.0022337  -0.0003758   0.0001319  -0.0000996
           19          20          21          22          23          24
    1   0.0003234  -0.0005505   0.0002131   0.0003892   0.0001200   0.0005497
    2   0.0002205   0.0002320   0.0002010  -0.0005101  -0.0001953   0.0003063
    3  -0.0003580   0.0007201   0.0003383   0.0000171   0.0002886   0.0001432
           25          26          27          28          29
    1  -0.0000188  -0.0002389  -0.0004589  -0.0003387  -0.0002972
    2   0.0000453   0.0001444   0.0000345  -0.0003587   0.0000671
    3   0.0001217  -0.0001038   0.0001114  -0.0001132   0.0001051
 Max gradient component =       4.418E-03
 RMS gradient           =       1.024E-03
 Gradient time:  CPU 13.87 s  wall 0.58 s
 Geometry Optimization Parameters
   NAtoms,    NIC,     NZ,  NCons,   NDum,   NFix, NCnnct, MaxDiis
       29     227       0       2       0       0       0       0

 Cartesian Hessian Update
 Hessian Updated using BFGS Update


** CONSTRAINED OPTIMIZATION IN DELOCALIZED INTERNAL COORDINATES **
   Searching for a Minimum

   Optimization Cycle:   4

                       Coordinates (Angstroms)
     ATOM                X               Y               Z
      1  C         0.4442843025   -0.6611006523   -0.6424745038
      2  C         0.6570664520    0.9023313228   -0.5292610834
      3  C        -0.8761193869   -1.1671606596    0.0328966089
      4  C        -0.5823204000    1.7202178027   -0.0100505696
      5  O        -1.1637956697   -2.4750017553   -0.4805055629
      6  O        -1.5524799763   -0.5864788484    0.9117487655
      7  O        -1.6946331727    1.4446276765   -0.8740432465
      8  O        -0.6108757952    2.5206308576    0.9492050909
      9  C        -2.9116847288    2.1421447739   -0.3959284724
     10  C        -2.3886364013   -3.0325579201    0.1447895534
     11  C         1.6949608697   -1.1809036909    0.1952697766
     12  C         3.0168775667   -0.9040510444   -0.6253297299
     13  C         3.1975749698    0.6454506693   -0.4029778125
     14  C         1.9063135228    0.9796544365    0.4422317623
     15  O         1.7614562200   -0.2116791069    1.3152904766
     16  H         0.4742612990   -1.0084756533   -1.6902097638
     17  H         0.9147777680    1.3137940837   -1.5231573097
     18  H        -3.0148764476    2.0655216241    0.7047476070
     19  H        -2.6173860355   -2.4864077917    1.0815121133
     20  H         1.5827029381   -2.2119605142    0.5843443667
     21  H         3.8588595126   -1.4702843510   -0.1956537191
     22  H         2.9127643359   -1.1796100621   -1.6871598402
     23  H         4.1043875608    0.8585867165    0.1861220114
     24  H         3.2462248271    1.2155206970   -1.3445228815
     25  H         1.9467856551    1.9038482018    1.0513875059
     26  H        -2.8966017422    3.2165955268   -0.6751121643
     27  H        -3.7698387910    1.6493854186   -0.8902004668
     28  H        -2.2077816881   -4.1048916553    0.3502991200
     29  H        -3.2471755007   -2.9334928923   -0.5505986276
   Point Group: c1    Number of degrees of freedom:    81


   Energy is   -755.731902751

              Constraints and their Current Values
                                        Value     Constraint
   Dihedral:        2   1   3   5      162.300      162.300
   Dihedral:        1   2   4   7      -56.600      -56.600
 Hessian Updated using BFGS Update

 77 Hessian modes will be used to form the next step
  Hessian Eigenvalues:
     0.030931    0.045000    0.045001    0.045009    0.045079    0.045356
     0.045596    0.048213    0.056144    0.058883    0.065565    0.067003
     0.070786    0.072093    0.074338    0.075966    0.081531    0.082231
     0.084149    0.084743    0.086585    0.088226    0.091161    0.091472
     0.096348    0.098177    0.112461    0.112688    0.113733    0.116985
     0.117261    0.121768    0.123124    0.138216    0.141471    0.158524
     0.160054    0.160882    0.162253    0.169707    0.174395    0.245642
     0.247004    0.249304    0.250000    0.250059    0.250228    0.254506
     0.267272    0.268371    0.289415    0.292431    0.304349    0.308907
     0.324878    0.329441    0.338210    0.340391    0.341590    0.342133
     0.342266    0.343043    0.343377    0.343871    0.343905    0.344029
     0.344364    0.344439    0.344999    0.345878    0.388942    0.410486
     0.448748    0.515343    0.563687    0.949460    0.982809

 Minimum Search - Taking Simple RFO Step
 Searching for Lamda that Minimizes Along All modes
 Value Taken    Lamda =  -0.00029430
 Step Taken.  Stepsize is  0.074041

                             Maximum     Tolerance    Cnvgd?
         Gradient           0.003877      0.000300      NO
         Displacement       0.022120      0.001200      NO
         Energy change     -0.000534      0.000001      NO


 New Cartesian Coordinates Obtained by Inverse Iteration

 Displacement from previous Coordinates is:  0.224183
 Adding empirical dispersion correction 
 ----------------------------------------------------------------
 Doing -D3(op) with
 s6 =   1.00000
 s8 =   0.78311
 a1 =   0.30000
 a2 =   4.25000
 n  =  10.00000
 -D3 energy without 3body term =     -0.0302699900 hartrees
 ----------------------------------------------------------------
             Standard Nuclear Orientation (Angstroms)
    I     Atom           X                Y                Z
 ----------------------------------------------------------------
    1      C       0.4456839063    -0.6627976567    -0.6563275131
    2      C       0.6594962610     0.9001998803    -0.5329043077
    3      C      -0.8713678249    -1.1632951967     0.0265636798
    4      C      -0.5852057773     1.7074968625    -0.0130825880
    5      O      -1.1727620826    -2.4678315585    -0.4887676896
    6      O      -1.5298080024    -0.5880409137     0.9216062717
    7      O      -1.6910891616     1.4309300139    -0.8869874274
    8      O      -0.6267062791     2.4961938481     0.9543537147
    9      C      -2.9076603553     2.1239606729    -0.4027257316
   10      C      -2.3942309958    -3.0065842745     0.1591095062
   11      C       1.6956685372    -1.1842878113     0.1843995050
   12      C       3.0214719105    -0.8980255577    -0.6280969383
   13      C       3.1988720895     0.6494930395    -0.3918834348
   14      C       1.9019118012     0.9736693503     0.4482806414
   15      O       1.7511820356    -0.2232945934     1.3104022624
   16      H       0.4748035674    -1.0091433795    -1.7041891321
   17      H       0.9206682686     1.3151927959    -1.5242835246
   18      H      -3.0189105472     2.0244718725     0.6954786605
   19      H      -2.6034932463    -2.4524617844     1.0960645420
   20      H       1.5847411596    -2.2195672088     0.5621181339
   21      H       3.8623926400    -1.4692284232    -0.2037671981
   22      H       2.9172315967    -1.1604997866    -1.6930741412
   23      H       4.1035813723     0.8633673384     0.1995560065
   24      H       3.2438460216     1.2248696831    -1.3302070393
   25      H       1.9336871760     1.8943753671     1.0630667727
   26      H      -2.8864013099     3.2034257409    -0.6607247391
   27      H      -3.7624123238     1.6430074011    -0.9134639034
   28      H      -2.2194948557    -4.0789109539     0.3676025974
   29      H      -3.2606035172    -2.9024315576    -0.5254579815
 ----------------------------------------------------------------
 Molecular Point Group                 C1    NOp =  1
 Largest Abelian Subgroup              C1    NOp =  1
 Nuclear Repulsion Energy =  1089.9114886421 hartrees
 There are       57 alpha and       57 beta electrons
 Applying Cartesian multipole field
    Component          Value
    ---------          -----
     (2,0,0)        1.00000E-11
     (0,2,0)        2.00000E-11
     (0,0,2)       -3.00000E-11
 Nucleus-field energy     =     0.0000000321 hartrees
 Requested basis set is STO-3G
 There are 44 shells and 89 basis functions
 A cutoff of  1.0D-12 yielded    863 shell pairs
 There are      3893 function pairs
 Smallest overlap matrix eigenvalue = 2.13E-01
 Guess MOs from SCF MO coefficient file
 Reading MOs from coefficient file
 Reading MOs from coefficient file
 A restricted hybrid HF-DFT SCF calculation will be
 performed using Pulay DIIS extrapolation
 Exchange:     0.2000 Hartree-Fock + 0.0800 Slater + 0.7200 B88
 Correlation:  0.1900 VWN1RPA + 0.8100 LYP
 Using SG-1 standard quadrature grid
 Dispersion:   Grimme D3
 SCF converges when DIIS error is below 1.0E-08
 Geometry optimization detected.  Setting ReadMinima to 0
 Setting SaveMinima to 0
 -------------------------------------------------------
 OpenMP Integral computing Module                
 Release: version 1.0, May 2013, Q-Chem Inc. Pittsburgh 
 -------------------------------------------------------
 -------------------------------------------------------
 OpenMP BLAS3 based DFT computing Module                
 Release: version 1.0, May 2013, Q-Chem Inc. Pittsburgh 
 -------------------------------------------------------
 ---------------------------------------
  Cycle       Energy         DIIS Error
 ---------------------------------------
    1    -755.7316923009      1.20E-03
    2    -755.7320619839      9.36E-05
    3    -755.7320502715      1.57E-04
    4    -755.7320767046      3.86E-05
    5    -755.7320782132      1.37E-05
    6    -755.7320784286      3.29E-06
    7    -755.7320784411      1.06E-06
    8    -755.7320784418      8.24E-07
    9    -755.7320784426      8.42E-08
   10    -755.7320784426      3.40E-08
   11    -755.7320784426      8.73E-09 Convergence criterion met
 ---------------------------------------
 SCF time:  CPU 44.27 s  wall 1.86 s
 SCF   energy in the final basis set = -755.7320784426
 Total energy in the final basis set = -755.7320784426
 
 --------------------------------------------------------------
 
                    Orbital Energies (a.u.)
 --------------------------------------------------------------
 
 Alpha MOs
 -- Occupied --
-18.934 -18.923 -18.886 -18.877 -18.867 -10.100 -10.093 -10.060
-10.060 -10.056 -10.056 -10.038 -10.033 -10.020 -10.019  -1.012
 -1.000  -0.968  -0.936  -0.927  -0.761  -0.722  -0.705  -0.663
 -0.653  -0.593  -0.544  -0.536  -0.509  -0.472  -0.455  -0.451
 -0.430  -0.414  -0.411  -0.405  -0.402  -0.375  -0.360  -0.353
 -0.345  -0.339  -0.331  -0.323  -0.310  -0.303  -0.296  -0.279
 -0.271  -0.251  -0.245  -0.233  -0.178  -0.166  -0.157  -0.146
 -0.143
 -- Virtual --
  0.096   0.114   0.236   0.252   0.268   0.284   0.312   0.331
  0.341   0.345   0.357   0.372   0.384   0.403   0.410   0.420
  0.423   0.425   0.429   0.434   0.437   0.439   0.442   0.445
  0.451   0.467   0.488   0.508   0.543   0.552   0.647   0.652
 --------------------------------------------------------------
 
          Ground-State Mulliken Net Atomic Charges

     Atom                 Charge (a.u.)
  ----------------------------------------
      1 C                    -0.076962
      2 C                    -0.080033
      3 C                     0.215178
      4 C                     0.215732
      5 O                    -0.170953
      6 O                    -0.211480
      7 O                    -0.175502
      8 O                    -0.212853
      9 C                    -0.128709
     10 C                    -0.135166
     11 C                     0.025069
     12 C                    -0.144195
     13 C                    -0.143169
     14 C                     0.023995
     15 O                    -0.188851
     16 H                     0.087580
     17 H                     0.082735
     18 H                     0.096862
     19 H                     0.101089
     20 H                     0.083163
     21 H                     0.078217
     22 H                     0.073893
     23 H                     0.078021
     24 H                     0.073087
     25 H                     0.091066
     26 H                     0.082966
     27 H                     0.087150
     28 H                     0.087599
     29 H                     0.084468
  ----------------------------------------
  Sum of atomic charges =    -0.000000

 -----------------------------------------------------------------
                    Cartesian Multipole Moments
 -----------------------------------------------------------------
    Charge (ESU x 10^10)
                 0.0000
    Dipole Moment (Debye)
         X       0.0138      Y      -1.1149      Z      -2.1907
       Tot       2.4581
    Quadrupole Moments (Debye-Ang)
        XX     -72.3314     XY       1.6124     YY     -77.7845
        XZ      -1.4777     YZ      -3.8176     ZZ     -84.5163
    Octopole Moments (Debye-Ang^2)
       XXX     -33.3182    XXY       2.1682    XYY     -17.1618
       YYY      -9.4886    XXZ      -1.3348    XYZ       3.8647
       YYZ       2.4833    XZZ      -4.8435    YZZ       0.1456
       ZZZ       4.7230
    Hexadecapole Moments (Debye-Ang^3)
      XXXX   -1908.8825   XXXY     -10.2190   XXYY    -505.5819
      XYYY      16.4034   YYYY   -1351.8817   XXXZ      28.1641
      XXYZ      -0.2115   XYYZ       7.8305   YYYZ     -44.7781
      XXZZ    -389.1929   XYZZ       3.6153   YYZZ    -288.5238
      XZZZ      -3.5131   YZZZ       2.0754   ZZZZ    -292.5208
 -----------------------------------------------------------------
 Calculating analytic gradient of the SCF energy
 Gradient of SCF Energy
            1           2           3           4           5           6
    1  -0.0013098   0.0012472  -0.0004746   0.0010210   0.0012465  -0.0006615
    2  -0.0004688  -0.0012332   0.0013655   0.0029660  -0.0015023   0.0000598
    3  -0.0030347   0.0048042   0.0001724  -0.0027155  -0.0007464  -0.0000607
            7           8           9          10          11          12
    1  -0.0006032  -0.0000298  -0.0013444  -0.0008909   0.0004459   0.0005029
    2  -0.0024133   0.0002269   0.0001328  -0.0004227  -0.0001115  -0.0005229
    3   0.0003296   0.0004474   0.0004461   0.0007365  -0.0004428  -0.0006707
           13          14          15          16          17          18
    1   0.0003319   0.0005145   0.0002014   0.0003996  -0.0002825   0.0002447
    2   0.0002198  -0.0002717   0.0003022   0.0006587   0.0000764   0.0002997
    3  -0.0005384   0.0001172   0.0011199  -0.0002554  -0.0000620   0.0000481
           19          20          21          22          23          24
    1   0.0000475  -0.0005485   0.0000583   0.0000748  -0.0000272   0.0000686
    2   0.0001777   0.0001933   0.0002187  -0.0002416  -0.0000920   0.0001141
    3   0.0000203   0.0002788   0.0001926   0.0000772   0.0001080   0.0000989
           25          26          27          28          29
    1  -0.0001836  -0.0000920   0.0000361   0.0001031  -0.0000957
    2   0.0001050   0.0000765  -0.0001487   0.0000526   0.0001830
    3  -0.0000493  -0.0002407   0.0000916  -0.0002571  -0.0000152
 Max gradient component =       4.804E-03
 RMS gradient           =       9.404E-04
 Gradient time:  CPU 14.00 s  wall 0.59 s
 Geometry Optimization Parameters
   NAtoms,    NIC,     NZ,  NCons,   NDum,   NFix, NCnnct, MaxDiis
       29     227       0       2       0       0       0       0

 Cartesian Hessian Update
 Hessian Updated using BFGS Update


** CONSTRAINED OPTIMIZATION IN DELOCALIZED INTERNAL COORDINATES **
   Searching for a Minimum

   Optimization Cycle:   5

                       Coordinates (Angstroms)
     ATOM                X               Y               Z
      1  C         0.4456839063   -0.6627976567   -0.6563275131
      2  C         0.6594962610    0.9001998803   -0.5329043077
      3  C        -0.8713678249   -1.1632951967    0.0265636798
      4  C        -0.5852057773    1.7074968625   -0.0130825880
      5  O        -1.1727620826   -2.4678315585   -0.4887676896
      6  O        -1.5298080024   -0.5880409137    0.9216062717
      7  O        -1.6910891616    1.4309300139   -0.8869874274
      8  O        -0.6267062791    2.4961938481    0.9543537147
      9  C        -2.9076603553    2.1239606729   -0.4027257316
     10  C        -2.3942309958   -3.0065842745    0.1591095062
     11  C         1.6956685372   -1.1842878113    0.1843995050
     12  C         3.0214719105   -0.8980255577   -0.6280969383
     13  C         3.1988720895    0.6494930395   -0.3918834348
     14  C         1.9019118012    0.9736693503    0.4482806414
     15  O         1.7511820356   -0.2232945934    1.3104022624
     16  H         0.4748035674   -1.0091433795   -1.7041891321
     17  H         0.9206682686    1.3151927959   -1.5242835246
     18  H        -3.0189105472    2.0244718725    0.6954786605
     19  H        -2.6034932463   -2.4524617844    1.0960645420
     20  H         1.5847411596   -2.2195672088    0.5621181339
     21  H         3.8623926400   -1.4692284232   -0.2037671981
     22  H         2.9172315967   -1.1604997866   -1.6930741412
     23  H         4.1035813723    0.8633673384    0.1995560065
     24  H         3.2438460216    1.2248696831   -1.3302070393
     25  H         1.9336871760    1.8943753671    1.0630667727
     26  H        -2.8864013099    3.2034257409   -0.6607247391
     27  H        -3.7624123238    1.6430074011   -0.9134639034
     28  H        -2.2194948557   -4.0789109539    0.3676025974
     29  H        -3.2606035172   -2.9024315576   -0.5254579815
   Point Group: c1    Number of degrees of freedom:    81


   Energy is   -755.732078443

              Constraints and their Current Values
                                        Value     Constraint
   Dihedral:        2   1   3   5      162.300      162.300
   Dihedral:        1   2   4   7      -56.600      -56.600
 Hessian Updated using BFGS Update

 78 Hessian modes will be used to form the next step
  Hessian Eigenvalues:
     0.018752    0.045000    0.045002    0.045013    0.045330    0.045356
     0.045913    0.048150    0.056781    0.058859    0.065575    0.067281
     0.070900    0.072193    0.074341    0.075968    0.081690    0.083343
     0.084136    0.084993    0.086650    0.088227    0.091153    0.091471
     0.096722    0.098153    0.112260    0.112906    0.113436    0.116974
     0.117276    0.121763    0.121983    0.138261    0.141786    0.158498
     0.159966    0.160144    0.160907    0.162840    0.169643    0.174485
     0.246477    0.246619    0.249154    0.249838    0.250086    0.252402
     0.254834    0.267250    0.268662    0.291878    0.300744    0.308665
     0.318202    0.328662    0.337979    0.339175    0.340469    0.341646
     0.342213    0.342313    0.343126    0.343583    0.343853    0.343882
     0.344077    0.344362    0.344805    0.345823    0.359956    0.381910
     0.411168    0.458343    0.512851    0.535975    0.949280    0.977545

 Minimum Search - Taking Simple RFO Step
 Searching for Lamda that Minimizes Along All modes
 Value Taken    Lamda =  -0.00014805
 Step Taken.  Stepsize is  0.075096

                             Maximum     Tolerance    Cnvgd?
         Gradient           0.001675      0.000300      NO
         Displacement       0.027073      0.001200      NO
         Energy change     -0.000176      0.000001      NO


 New Cartesian Coordinates Obtained by Inverse Iteration

 Displacement from previous Coordinates is:  0.173968
 Adding empirical dispersion correction 
 ----------------------------------------------------------------
 Doing -D3(op) with
 s6 =   1.00000
 s8 =   0.78311
 a1 =   0.30000
 a2 =   4.25000
 n  =  10.00000
 -D3 energy without 3body term =     -0.0303386268 hartrees
[...]
 C         -0.000  0.000  0.000    0.041 -0.036 -0.034   -0.003  0.002 -0.003
 C         -0.000 -0.000  0.000    0.050  0.033 -0.020    0.002  0.003  0.003
 C         -0.000  0.000 -0.000   -0.001  0.008  0.003    0.003 -0.009 -0.008
 O          0.000 -0.000  0.000   -0.001 -0.000  0.000   -0.000 -0.003 -0.003
 H          0.000  0.000  0.000    0.025  0.002 -0.003    0.204  0.069 -0.048
 H         -0.002  0.001 -0.001    0.052 -0.027 -0.000   -0.037 -0.013 -0.004
 H          0.135  0.610  0.287    0.007 -0.001  0.002   -0.043 -0.007 -0.031
 H         -0.003 -0.012 -0.062   -0.000 -0.000  0.001    0.045  0.114  0.005
 H          0.001  0.000  0.000    0.021 -0.016 -0.003   -0.003 -0.004  0.009
 H         -0.000 -0.001 -0.001   -0.050  0.198  0.460   -0.018 -0.007  0.017
 H          0.001 -0.001  0.000   -0.401  0.307 -0.050    0.001  0.006 -0.004
 H          0.001 -0.000 -0.001   -0.144 -0.286  0.361    0.013 -0.012 -0.010
 H          0.000  0.000  0.000   -0.437 -0.165 -0.154   -0.001 -0.003 -0.001
 H         -0.000 -0.001  0.001    0.016  0.015 -0.003   -0.001 -0.014 -0.014
 H         -0.212 -0.031  0.603    0.005 -0.000  0.001   -0.060 -0.008 -0.039
 H          0.227 -0.082 -0.218    0.006 -0.003 -0.005   -0.068  0.065  0.045
 H          0.050 -0.017 -0.011   -0.000  0.003  0.000    0.074  0.092  0.034
 H         -0.033  0.007 -0.000    0.000  0.001 -0.002    0.151  0.048 -0.105
 TransDip   0.059  0.022  0.061   -0.047  0.002  0.063   -0.227  0.106  0.089

 Mode:                67                     68                     69
 Frequency:      1805.03                3049.57                3049.85
 Force Cnst:     22.0327                 5.6406                 5.6417
 Red. Mass:      11.4776                 1.0294                 1.0294
 IR Active:          YES                    YES                    YES
 IR Intens:      391.802                 22.476                 48.131
 Raman Active:       YES                    YES                    YES
               X      Y      Z        X      Y      Z        X      Y      Z
 C          0.021 -0.008 -0.030    0.000  0.000  0.001    0.000  0.000  0.000
 C          0.016 -0.029 -0.036    0.001  0.001 -0.003   -0.000 -0.001  0.002
 C         -0.199  0.133  0.282   -0.000 -0.002 -0.001   -0.000 -0.002 -0.001
 C         -0.036  0.433  0.529    0.001  0.000  0.001   -0.001 -0.001 -0.001
 O          0.011 -0.009 -0.017    0.001  0.001 -0.000    0.001  0.001 -0.000
 O          0.117 -0.097 -0.180   -0.000  0.000  0.001   -0.000  0.000  0.001
 O         -0.003 -0.023 -0.033   -0.002  0.001 -0.000    0.002 -0.001  0.000
 O          0.001 -0.276 -0.342   -0.000 -0.000 -0.000    0.000  0.000  0.001
 C         -0.019  0.016  0.013   -0.021  0.016  0.014    0.022 -0.017 -0.015
 C         -0.012 -0.004  0.008    0.025  0.007 -0.018    0.024  0.007 -0.018
 C          0.010  0.001  0.010    0.000  0.000 -0.000   -0.000  0.000 -0.000
 C         -0.002  0.001 -0.003    0.000 -0.000 -0.000    0.000 -0.000 -0.000
 C         -0.005 -0.003 -0.006   -0.000 -0.001  0.000    0.001  0.001 -0.000
 C          0.004  0.005  0.016    0.000 -0.000  0.000   -0.000  0.000  0.000
 O         -0.001 -0.002 -0.008    0.000  0.000  0.000    0.000  0.000  0.000
 H          0.117  0.046 -0.041   -0.000 -0.004 -0.011   -0.000 -0.001 -0.003
 H          0.113 -0.120 -0.026   -0.009 -0.013  0.037    0.006  0.009 -0.024
 H          0.109 -0.045  0.051    0.131  0.164 -0.380   -0.135 -0.169  0.393
 H          0.023  0.060  0.004   -0.363  0.267 -0.042   -0.353  0.259 -0.041
 H         -0.022 -0.007 -0.013   -0.001 -0.003  0.001   -0.000 -0.001  0.000
 H         -0.015 -0.011  0.009   -0.003  0.002 -0.002   -0.003  0.002 -0.002
 H          0.006  0.002 -0.004    0.001  0.001  0.005    0.001  0.001  0.004
 H         -0.022  0.016  0.021    0.005  0.001  0.003   -0.007 -0.001 -0.005
 H          0.006 -0.003 -0.004    0.000  0.005 -0.008   -0.000 -0.006  0.010
 H         -0.055  0.043 -0.003    0.000  0.000  0.000    0.000 -0.001 -0.001
 H          0.120  0.012  0.029   -0.071 -0.431 -0.028    0.074  0.445  0.029
 H          0.131 -0.105 -0.084    0.210  0.066  0.231   -0.217 -0.068 -0.238
 H          0.039  0.049  0.020    0.089 -0.088  0.437    0.087 -0.086  0.425
 H          0.081  0.026 -0.058   -0.037 -0.270 -0.165   -0.036 -0.262 -0.160
 TransDip  -0.012  0.425  0.470   -0.016  0.147 -0.033    0.220  0.009 -0.032

 Mode:                70                     71                     72
 Frequency:      3056.94                3061.19                3067.77
 Force Cnst:      5.8669                 5.9335                 5.8918
 Red. Mass:       1.0656                 1.0747                 1.0626
 IR Active:          YES                    YES                    YES
 IR Intens:       13.916                 16.474                 36.038
 Raman Active:       YES                    YES                    YES
               X      Y      Z        X      Y      Z        X      Y      Z
 C         -0.000  0.002  0.007    0.000  0.001  0.005   -0.000  0.002  0.007
 C          0.009  0.014 -0.038    0.014  0.023 -0.060    0.005  0.008 -0.022
 C         -0.000 -0.000  0.000   -0.000 -0.000  0.000   -0.000 -0.000  0.000
 C         -0.000 -0.000 -0.001   -0.000 -0.000 -0.002   -0.000  0.000 -0.001
 O          0.000  0.000 -0.000    0.000  0.000 -0.000    0.000  0.000 -0.000
 O          0.000 -0.000 -0.000    0.000 -0.000 -0.000    0.000 -0.000 -0.000
 O          0.000 -0.000  0.000    0.000 -0.000  0.000    0.000 -0.000  0.000
 O          0.000  0.000  0.000    0.000  0.000  0.000    0.000  0.000  0.000
 C          0.001 -0.001 -0.001    0.001 -0.001 -0.001    0.000 -0.000  0.000
 C         -0.000 -0.000  0.000   -0.000 -0.000  0.000   -0.000 -0.000  0.000
 C          0.000  0.002 -0.001    0.000 -0.002  0.001   -0.000  0.004 -0.002
 C          0.018 -0.024 -0.026   -0.018  0.025  0.026    0.016 -0.024 -0.027
 C         -0.028 -0.027  0.020    0.009  0.004  0.001    0.039  0.032 -0.015
 C          0.001  0.001  0.001    0.001 -0.000 -0.001   -0.001 -0.002 -0.002
 O         -0.000  0.000  0.000   -0.000 -0.000  0.000   -0.000 -0.000  0.000
 H          0.002 -0.028 -0.087   -0.001 -0.017 -0.057    0.002 -0.027 -0.083
 H         -0.113 -0.168  0.456   -0.178 -0.266  0.724   -0.065 -0.097  0.265
 H         -0.007 -0.009  0.020   -0.007 -0.008  0.020   -0.000  0.000 -0.000
 H          0.005 -0.004  0.001    0.002 -0.001  0.000    0.005 -0.004  0.001
 H         -0.002 -0.026  0.009    0.001  0.024 -0.008   -0.003 -0.049  0.018
 H         -0.264  0.181 -0.138    0.272 -0.188  0.143   -0.244  0.169 -0.130
 H          0.061  0.100  0.437   -0.064 -0.103 -0.448    0.064  0.105  0.449
 H          0.311  0.055  0.211   -0.096 -0.019 -0.061   -0.433 -0.079 -0.289
 H          0.015  0.263 -0.441   -0.002 -0.030  0.054   -0.014 -0.281  0.470
 H         -0.003 -0.013 -0.008    0.000  0.007  0.004    0.005  0.035  0.022
 H          0.004  0.023  0.001    0.004  0.024  0.001    0.000  0.001  0.000
 H         -0.011 -0.004 -0.013   -0.011 -0.004 -0.012   -0.000 -0.000 -0.001
 H         -0.001  0.001 -0.007   -0.001  0.001 -0.003   -0.001  0.002 -0.008
 H          0.001  0.004  0.002    0.000  0.002  0.001    0.001  0.003  0.002
 TransDip  -0.028 -0.108 -0.044   -0.031  0.126  0.007    0.149  0.047 -0.112

 Mode:                73                     74                     75
 Frequency:      3096.89                3111.22                3117.63
 Force Cnst:      6.2548                 6.2374                 6.2936
 Red. Mass:       1.1069                 1.0937                 1.0990
 IR Active:          YES                    YES                    YES
 IR Intens:        0.876                  9.120                 34.966
 Raman Active:       YES                    YES                    YES
               X      Y      Z        X      Y      Z        X      Y      Z
 C         -0.000  0.003  0.010    0.001 -0.021 -0.063    0.001 -0.016 -0.048
 C         -0.001 -0.002  0.005    0.001  0.002 -0.004    0.002  0.004 -0.008
 C          0.000  0.000  0.000   -0.001 -0.001 -0.001   -0.000 -0.001 -0.001
 C         -0.000  0.000  0.000   -0.000  0.000 -0.000   -0.000  0.000 -0.000
 O         -0.000 -0.000 -0.000    0.000  0.000  0.000   -0.000  0.000  0.000
 O         -0.000 -0.000 -0.000   -0.000  0.000  0.000   -0.000  0.000  0.000
 O          0.000  0.000 -0.000    0.000 -0.000  0.000    0.000 -0.000  0.000
 O         -0.000 -0.000 -0.000    0.000 -0.000 -0.000    0.000  0.000  0.000
 C         -0.000  0.000 -0.000    0.000  0.000  0.000   -0.000 -0.000  0.000
 C         -0.000  0.000 -0.000    0.000  0.000  0.000    0.001 -0.000  0.001
 C         -0.001 -0.008  0.003    0.002  0.009 -0.004   -0.001 -0.005  0.000
 C         -0.043  0.019 -0.052    0.019 -0.009  0.021   -0.031  0.011 -0.044
 C          0.031 -0.012  0.052    0.026 -0.009  0.041   -0.027  0.010 -0.043
 C          0.000 -0.002 -0.001    0.000 -0.003 -0.001   -0.000  0.002 -0.000
 O          0.000  0.000 -0.000   -0.000  0.000  0.000    0.000  0.000  0.001
 H          0.004 -0.038 -0.115   -0.012  0.245  0.740   -0.006  0.187  0.566
 H          0.015  0.024 -0.067   -0.015 -0.022  0.052   -0.024 -0.040  0.101
 H         -0.000 -0.000  0.000    0.000  0.001 -0.001    0.001  0.001 -0.003
 H          0.000 -0.000  0.000   -0.004  0.003 -0.000   -0.011  0.008 -0.001
 H          0.010  0.089 -0.035   -0.013 -0.107  0.042    0.004  0.046 -0.018
 H          0.461 -0.323  0.220   -0.205  0.147 -0.098    0.325 -0.231  0.156
 H          0.045  0.102  0.405   -0.017 -0.040 -0.150    0.044  0.095  0.374
 H         -0.399 -0.080 -0.250   -0.335 -0.068 -0.211    0.338  0.070  0.213
 H          0.025  0.228 -0.373    0.019  0.172 -0.279   -0.020 -0.185  0.298
 H          0.001  0.020  0.013    0.002  0.028  0.019   -0.001 -0.008 -0.005
 H         -0.000 -0.002 -0.000   -0.000 -0.000  0.000    0.001  0.005  0.000
 H          0.000  0.000  0.000   -0.000 -0.000 -0.001   -0.001 -0.000 -0.001
 H          0.000 -0.000  0.000    0.000 -0.001  0.003   -0.001  0.001 -0.005
 H         -0.000  0.000  0.000   -0.000 -0.003 -0.002   -0.000 -0.003 -0.002
 TransDip  -0.020 -0.004  0.022    0.081 -0.050  0.019   -0.093  0.005 -0.165

 Mode:                76                     77                     78
 Frequency:      3122.54                3124.84                3130.86
 Force Cnst:      6.3595                 6.3710                 6.2946
 Red. Mass:       1.1070                 1.1074                 1.0899
 IR Active:          YES                    YES                    YES
 IR Intens:       18.541                 15.508                 22.146
 Raman Active:       YES                    YES                    YES
               X      Y      Z        X      Y      Z        X      Y      Z
 C         -0.000 -0.000 -0.001    0.000  0.000  0.000   -0.000 -0.002 -0.006
 C          0.000  0.000 -0.000   -0.000 -0.000  0.000   -0.000  0.001 -0.001
 C          0.000 -0.000  0.000   -0.000  0.000  0.000   -0.000 -0.001  0.000
 C         -0.000 -0.000 -0.000    0.000  0.000 -0.000   -0.000  0.000 -0.000
 O          0.000 -0.000  0.000    0.000 -0.000 -0.000    0.000  0.000 -0.000
 O          0.000 -0.000  0.000    0.000 -0.000 -0.000    0.000  0.000 -0.000
 O          0.000 -0.000  0.000    0.000  0.000 -0.000    0.000 -0.000  0.000
 O          0.000  0.000  0.000   -0.000  0.000 -0.000    0.000 -0.000  0.000
 C          0.001  0.002 -0.001   -0.028 -0.079  0.045   -0.000 -0.000  0.000
 C         -0.058  0.045 -0.060   -0.002  0.001 -0.002    0.001 -0.000  0.001
 C         -0.000 -0.001  0.000   -0.000  0.000 -0.000   -0.009 -0.078  0.032
 C         -0.000  0.000 -0.000    0.000 -0.000  0.000    0.010 -0.006  0.006
 C         -0.000  0.000 -0.001    0.000 -0.000  0.000    0.003  0.001  0.001
 C         -0.000 -0.000 -0.000   -0.000  0.000  0.000   -0.000 -0.003 -0.003
 O          0.000 -0.000  0.000    0.000  0.000 -0.000   -0.000 -0.000 -0.000
 H          0.000  0.003  0.010    0.000 -0.001 -0.004    0.001  0.020  0.063
 H         -0.001 -0.001  0.003    0.000  0.001 -0.001   -0.004 -0.006  0.015
 H         -0.006 -0.007  0.017    0.203  0.248 -0.620    0.001  0.001 -0.003
 H          0.564 -0.422  0.048    0.016 -0.012  0.001   -0.009  0.006 -0.001
 H          0.002  0.013 -0.005   -0.000 -0.001  0.001    0.103  0.902 -0.368
 H          0.002 -0.001  0.001   -0.001  0.001 -0.000   -0.114  0.078 -0.052
 H          0.001  0.001  0.004   -0.000 -0.000 -0.002   -0.004 -0.009 -0.027
 H          0.003  0.001  0.002   -0.002 -0.000 -0.001   -0.027 -0.005 -0.017
 H         -0.000 -0.003  0.004    0.000  0.002 -0.003    0.000  0.001 -0.001
 H          0.000  0.001  0.001   -0.000 -0.001 -0.001    0.003  0.047  0.033
 H         -0.004 -0.022 -0.002    0.117  0.696  0.062    0.000 -0.000  0.000
 H         -0.002 -0.000 -0.002    0.011 -0.010  0.026   -0.001 -0.000 -0.001
 H          0.128 -0.121  0.678    0.004 -0.004  0.021   -0.001  0.001 -0.008
 H         -0.012  0.007 -0.013   -0.000  0.002  0.001    0.000 -0.002 -0.001
 TransDip  -0.084  0.066 -0.088   -0.026 -0.111  0.054    0.012 -0.147  0.033

 Mode:                79                     80                     81
 Frequency:      3153.12                3155.93                3162.58
 Force Cnst:      6.4813                 6.4916                 6.4270
 Red. Mass:       1.1065                 1.1062                 1.0906
 IR Active:          YES                    YES                    YES
 IR Intens:       14.016                 14.395                  5.669
 Raman Active:       YES                    YES                    YES
               X      Y      Z        X      Y      Z        X      Y      Z
 C         -0.000 -0.000 -0.000   -0.000  0.000 -0.000    0.001  0.001  0.002
 C          0.000  0.000  0.000    0.000  0.000 -0.000    0.000 -0.000  0.001
 C         -0.000 -0.000 -0.000    0.001  0.000 -0.001    0.000  0.000 -0.000
 C          0.001 -0.001 -0.001    0.000  0.000 -0.000   -0.000 -0.001 -0.001
 O          0.000  0.000  0.000   -0.000  0.000  0.000   -0.000 -0.000  0.000
 O         -0.000  0.000  0.000   -0.000  0.000  0.000   -0.000 -0.000  0.000
 O          0.000  0.000  0.000   -0.000 -0.000  0.000   -0.000  0.000  0.000
 O         -0.000  0.000  0.000   -0.000 -0.000  0.000    0.000  0.000  0.000
 C         -0.044 -0.029 -0.079   -0.000  0.000 -0.001   -0.000 -0.000 -0.001
 C         -0.000  0.000  0.000    0.006 -0.073 -0.060    0.000  0.000  0.000
 C         -0.000 -0.000  0.000   -0.000 -0.000  0.000    0.001  0.005 -0.001
 C          0.000 -0.000 -0.000    0.000 -0.000 -0.000   -0.001  0.001  0.001
 C          0.000  0.000  0.000    0.000  0.000 -0.000   -0.005 -0.000 -0.002
 C          0.000  0.001  0.001   -0.000 -0.000 -0.000   -0.006 -0.070 -0.050
 O         -0.000  0.000  0.000   -0.000  0.000  0.000   -0.000 -0.000  0.000
 H         -0.000  0.001  0.002   -0.000  0.000  0.001   -0.000 -0.006 -0.017
 H         -0.000 -0.000  0.001   -0.000 -0.000  0.000    0.001  0.003 -0.011
 H         -0.109 -0.136  0.285   -0.001 -0.001  0.003   -0.001 -0.002  0.003
 H          0.003 -0.002  0.000   -0.246  0.172 -0.041    0.000 -0.000  0.000
 H          0.000  0.003 -0.001    0.000  0.000 -0.000   -0.005 -0.047  0.020
 H         -0.000  0.000 -0.000   -0.000  0.000 -0.000    0.010 -0.006  0.004
 H          0.000  0.000  0.001    0.000  0.000  0.001   -0.001 -0.001 -0.008
 H         -0.001 -0.000 -0.001   -0.000 -0.000 -0.000    0.052  0.009  0.029
 H         -0.000 -0.000  0.000   -0.000 -0.000  0.000    0.002  0.002 -0.006
 H         -0.001 -0.009 -0.006    0.000  0.002  0.002    0.059  0.807  0.576
 H          0.044  0.296  0.004   -0.000 -0.000 -0.000    0.001  0.005  0.000
 H          0.585  0.184  0.644    0.003  0.001  0.003    0.006  0.002  0.007
 H          0.000  0.000  0.000    0.066 -0.073  0.292   -0.000  0.000 -0.001
 H         -0.001 -0.004 -0.002    0.103  0.759  0.466   -0.000 -0.002 -0.001
 TransDip  -0.074 -0.028 -0.090   -0.010 -0.102 -0.066   -0.043 -0.058 -0.023

 STANDARD THERMODYNAMIC QUANTITIES AT   298.15 K  AND     1.00 ATM

   This Molecule has  0 Imaginary Frequencies
   Zero point vibrational energy:      149.043 kcal/mol

   Atom    1 Element C  Has Mass   12.00000
   Atom    2 Element C  Has Mass   12.00000
   Atom    3 Element C  Has Mass   12.00000
   Atom    4 Element C  Has Mass   12.00000
   Atom    5 Element O  Has Mass   15.99491
   Atom    6 Element O  Has Mass   15.99491
   Atom    7 Element O  Has Mass   15.99491
   Atom    8 Element O  Has Mass   15.99491
   Atom    9 Element C  Has Mass   12.00000
   Atom   10 Element C  Has Mass   12.00000
   Atom   11 Element C  Has Mass   12.00000
   Atom   12 Element C  Has Mass   12.00000
   Atom   13 Element C  Has Mass   12.00000
   Atom   14 Element C  Has Mass   12.00000
   Atom   15 Element O  Has Mass   15.99491
   Atom   16 Element H  Has Mass    1.00783
   Atom   17 Element H  Has Mass    1.00783
   Atom   18 Element H  Has Mass    1.00783
   Atom   19 Element H  Has Mass    1.00783
   Atom   20 Element H  Has Mass    1.00783
   Atom   21 Element H  Has Mass    1.00783
   Atom   22 Element H  Has Mass    1.00783
   Atom   23 Element H  Has Mass    1.00783
   Atom   24 Element H  Has Mass    1.00783
   Atom   25 Element H  Has Mass    1.00783
   Atom   26 Element H  Has Mass    1.00783
   Atom   27 Element H  Has Mass    1.00783
   Atom   28 Element H  Has Mass    1.00783
   Atom   29 Element H  Has Mass    1.00783
   Molecular Mass:   214.084170 amu
   Principal axes and moments of inertia in amu*Bohr^2:
                             1           2           3
    Eigenvalues --     2441.19727  2977.69696  4683.47974
          X               0.99990     0.00967    -0.01006
          Y              -0.00974     0.99993    -0.00725
          Z               0.00999     0.00735     0.99992
   Rotational Symmetry Number is   1
   The Molecule is an Asymmetric Top
   Translational Enthalpy:        0.889 kcal/mol
   Rotational Enthalpy:           0.889 kcal/mol
   Vibrational Enthalpy:        156.336 kcal/mol
   gas constant (RT):             0.592 kcal/mol
   Translational Entropy:        41.987  cal/mol.K
   Rotational Entropy:           31.898  cal/mol.K
   Vibrational Entropy:          49.205  cal/mol.K

   Total Enthalpy:              158.706 kcal/mol
   Total Entropy:               123.091  cal/mol.K
Archival summary:
1\1\nid04596\FREQ\ProcedureUnspecified\BasisUnspecified\51014\junteng\WedOct420:16:212017WedOct420:16:212017\0\\#,FREQ,ProcedureUnspecified,BasisUnspecified,\\0,1\O\C,1,1.42776\H,2,1.08812,1,110.159\C,1,1.43912,2,97.1349,3,179.444,0\H,4,1.08576,1,109.775,2,177.52,0\C,4,1.54202,1,102.113,2,-57.6216,0\H,6,1.09087,4,110.206,1,-80.615,0\H,6,1.09178,4,112.807,1,158.228,0\C,2,1.54683,1,103.389,3,-124.171,0\H,9,1.09073,2,110.268,1,86.8589,0\H,9,1.09191,2,112.4,1,-152.474,0\C,4,1.54969,1,103.184,2,55.2343,0\H,12,1.09373,4,110.829,1,-145.238,0\C,12,1.51872,4,114.02,1,96.2363,0\O,14,1.2032,12,125.891,4,6.52576,0\O,14,1.35115,12,109.851,4,-177.832,0\C,16,1.43904,14,115.966,12,175.325,0\H,17,1.08804,16,105.489,14,179.631,0\H,17,1.09087,16,110.666,14,59.9543,0\H,17,1.09108,16,109.748,14,-61.1065,0\C,2,1.56345,1,102.003,3,122.011,0\H,21,1.08898,2,111.39,1,157.452,0\C,21,1.51329,2,108.915,1,-83.2838,0\O,23,1.20448,21,126.762,2,86.8183,0\O,23,1.3537,21,109.791,2,-90.1351,0\C,25,1.44017,23,115.947,21,176.354,0\H,26,1.08783,25,105.454,23,179.818,0\H,26,1.09099,25,110.389,23,60.3326,0\H,26,1.09105,25,110.502,23,-60.5515,0\\\@

 Total job time:  7299.47s(wall), 40178.03s(cpu) 
 Wed Oct  4 20:16:21 2017

        *************************************************************
        *                                                           *
        *  Thank you very much for using Q-Chem.  Have a nice day.  *
        *                                                           *
        *************************************************************


