nid03055 10.128.12
Q-Chem Developer Version! Running on 10.128.12.*
                  Welcome to Q-Chem
     A Quantum Leap Into The Future Of Chemistry


 Q-Chem 5.0, Q-Chem, Inc., Pleasanton, CA (2017)

 Yihan Shao,  Zhengting Gan,  E. Epifanovsky,  A. T. B. Gilbert,  M. Wormit,  
 J. Kussmann,  A. W. Lange,  A. Behn,  Jia Deng,  Xintian Feng,  D. Ghosh,  
 M. Goldey,  P. R. Horn,  L. D. Jacobson,  I. Kaliman,  T. Kus,  A. Landau,  
 Jie Liu,  E. I. Proynov,  R. M. Richard,  R. P. Steele,  E. J. Sundstrom,  
 H. L. Woodcock III,  P. M. Zimmerman,  D. Zuev,  B. Albrecht,  E. Alguire,  
 S. A. Baeppler,  Z. Benda,  Y. A. Bernard,  E. J. Berquist,  K. B. Bravaya,  
 D. Casanova,  Chun-Min Chang,  Yunqing Chen,  A. Chien,  K. D. Closser,  
 M. P. Coons,  S. Dasgupta,  M. Diedenhofen,  Hainam Do,  R. G. Edgar,  
 Po-Tung Fang,  S. Fatehi,  Qingguo Feng,  Qinghui Ge,  A. Ghysels,  
 J. Gomes,  J. Gonthier,  A. Gunina,  M. W. D. Hanson-Heine,  
 P. H. P. Harbach,  A. W. Hauser,  J. E. Herr,  E. G. Hohenstein,  
 Z. C. Holden,  Kerwin Hui,  T.-C. Jagau,  Hyunjun Ji,  B. Kaduk,  
 K. Khistyaev,  Jaehoon Kim,  P. Klunzinger,  K. Koh,  D. Kosenkov,  
 T. Kowalczyk,  C. M. Krauter,  A. Kunitsa,  Ka Un Lao,  A. Laurent,  
 K. V. Lawler,  Joonho Lee,  D. Lefrancois,  S. Lehtola,  D. S. Levine,  
 Yi-Pei Li,  You-Sheng Lin,  Fenglai Liu,  E. Livshits,  A. Luenser,  
 P. Manohar,  E. Mansoor,  S. F. Manzer,  Shan-Ping Mao,  Yuezhi Mao,  
 N. Mardirossian,  A. V. Marenich,  L. A. Martinez-Martinez,  S. A. Maurer,  
 N. J. Mayhall,  S. C. McKenzie,  J.-M. Mewes,  A. F. Morrison,  K. Nanda,  
 T. S. Nguyen-Beck,  R. Olivares-Amaya,  J. A. Parkhill,  T. M. Perrine,  
 F. Plasser,  S. Prager,  A. Prociuk,  D. R. Rehn,  F. Rob,  M. Schneider,  
 N. Sergueev,  S. M. Sharada,  S. Sharma,  D. W. Small,  T. Stauch,  
 T. Stein,  Yu-Chuan Su,  A. J. W. Thom,  T. Tsuchimochi,  L. Vogt,  
 O. Vydrov,  M. A. Watson,  J. Wenzel,  M. de Wergifosse,  T. A. Wesolowski,  
 A. White,  J. Witte,  A. Yamada,  Jun Yang,  K. Yao,  S. Yeganeh,  
 S. R. Yost,  Zhi-Qiang You,  A. Zech,  Igor Ying Zhang,  Xing Zhang,  
 Yan Zhao,  Ying Zhu,  B. R. Brooks,  G. K. L. Chan,  C. J. Cramer,  
 M. S. Gordon,  W. J. Hehre,  A. Klamt,  M. W. Schmidt,  C. D. Sherrill,  
 D. G. Truhlar,  A. Aspuru-Guzik,  R. Baer,  A. T. Bell,  N. A. Besley,  
 Jeng-Da Chai,  A. Dreuw,  B. D. Dunietz,  T. R. Furlani,  Chao-Ping Hsu,  
 Yousung Jung,  Jing Kong,  D. S. Lambrecht,  WanZhen Liang,  C. Ochsenfeld,  
 V. A. Rassolov,  L. V. Slipchenko,  J. E. Subotnik,  T. Van Voorhis,  
 J. M. Herbert,  A. I. Krylov,  P. M. W. Gill,  M. Head-Gordon

 Contributors to earlier versions of Q-Chem not listed above: 
 R. D. Adamson,  B. Austin,  J. Baker,  G. J. O. Beran,  K. Brandhorst,  
 S. T. Brown,  E. F. C. Byrd,  A. K. Chakraborty,  C.-L. Cheng,  
 Siu Hung Chien,  D. M. Chipman,  D. L. Crittenden,  H. Dachsel,  
 R. A. DiStasio Jr.,  R. J. Doerksen,  A. D. Dutoi,  L. Fusti-Molnar,  
 W. A. Goddard III,  A. Golubeva-Zadorozhnaya,  S. R. Gwaltney,  G. Hawkins,  
 A. Heyden,  S. Hirata,  G. Kedziora,  F. J. Keil,  C. Kelley,  Jihan Kim,  
 R. A. King,  R. Z. Khaliullin,  P. P. Korambath,  W. Kurlancheek,  
 A. M. Lee,  M. S. Lee,  S. V. Levchenko,  Ching Yeh Lin,  D. Liotard,  
 R. C. Lochan,  I. Lotan,  P. E. Maslen,  N. Nair,  D. P. O'Neill,  
 D. Neuhauser,  E. Neuscamman,  C. M. Oana,  R. Olson,  B. Peters,  
 R. Peverati,  P. A. Pieniazek,  Y. M. Rhee,  J. Ritchie,  M. A. Rohrdanz,  
 E. Rosta,  N. J. Russ,  H. F. Schaefer III,  N. E. Schultz,  N. Shenvi,  
 A. C. Simmonett,  A. Sodt,  D. Stuck,  K. S. Thanthiriwatte,  V. Vanovschi,  
 Tao Wang,  A. Warshel,  C. F. Williams,  Q. Wu,  X. Xu,  W. Zhang

 Please cite Q-Chem as follows:
 Y. Shao et al., Mol. Phys. 113, 184-215 (2015)
 DOI: 10.1080/00268976.2014.952696

 Q-Chem 5.0.0 for Intel X86 EM64T Linux

 Parts of Q-Chem use Armadillo 5.200.1 (Boston Tea Smuggler).
 http://arma.sourceforge.net/

 Q-Chem begins on Wed Oct  4 18:26:25 2017  

Host: nid03055
0

     Scratch files written to /global/cscratch1/sd/junteng/scratch/18/opt_11n11+-.save//

Checking the input file for inconsistencies... 	...done.

--------------------------------------------------------------
User input:
--------------------------------------------------------------
$molecule
0  1
C    0.304  -2.425   0.241
C   -0.187  -2.670   1.539
C    0.664  -1.037  -0.131
C   -0.223  -1.586   2.547
O    1.892  -1.027  -0.706
O   -0.050  -0.071   0.073
O    1.036  -1.102   2.698
O   -1.208  -1.281   3.197
C    1.131  -0.051   3.659
C    2.346   0.277  -1.069
C    0.337  -3.468  -0.713
C   -0.078  -4.750  -0.324
C   -0.556  -4.992   0.965
C   -0.619  -3.961   1.912
H    0.496   0.792   3.371
H    1.683   0.717  -1.820
H   -0.885  -5.997   1.223
H    0.862  -0.417   4.655
H    2.169   0.291   3.685
H    3.345   0.180  -1.503
H    2.413   0.921  -0.186
H   -0.050  -5.576  -1.034
C   -1.153  -4.262   3.286
C    0.800  -3.263  -2.130
H    0.377  -2.346  -2.553
H    0.472  -4.085  -2.776
H    1.893  -3.221  -2.170
H   -2.134  -3.796   3.422
H   -0.464  -3.904   4.057
H   -1.273  -5.340   3.441
$end


$opt
CONSTRAINT
tors    2    1    3    5    140.2
tors    1    2    4    7    -62.3
ENDCONSTRAINT
$end

$rem
JOBTYPE                   OPT
METHOD                    B3LYP
DFT_D                     D3_OP
BASIS                     STO-3G
GEOM_OPT_MAX_CYCLES       500
SYMMETRY                  False
THRESH                    12
SCF_CONVERGENCE           8
MAX_SUB_FILE_NUM          128
MEM_STATIC                400
MEM_TOTAL                 4000
$end

--------------------------------------------------------------
 Adding empirical dispersion correction 
 ----------------------------------------------------------------
 Doing -D3(op) with
 s6 =   1.00000
 s8 =   0.78311
 a1 =   0.30000
 a2 =   4.25000
 n  =  10.00000
 -D3 energy without 3body term =     -0.0331083887 hartrees
 ----------------------------------------------------------------
             Standard Nuclear Orientation (Angstroms)
    I     Atom           X                Y                Z
 ----------------------------------------------------------------
    1      C       0.4125011125    -0.6355076896    -0.1241194854
    2      C      -0.9199718424    -0.1775825584    -0.0970935988
    3      C       1.4909203662     0.3367582974    -0.4177838583
    4      C      -1.2227722681     1.2652754643    -0.2345295060
    5      O       2.4794071129     0.2069212582     0.5013164054
    6      O       1.4599007613     1.1281261782    -1.3437118584
    7      O      -0.5671603921     1.9341318938     0.7477851812
    8      O      -2.0192894914     1.7300109239    -1.0316062059
    9      C      -0.7911410252     3.3435492204     0.7249274575
   10      C       3.5538033154     1.1302705963     0.3241165186
   11      C       0.6908325096    -2.0150972909     0.0112251320
   12      C      -0.3765806243    -2.9000235158     0.2224235647
   13      C      -1.6950140119    -2.4427633611     0.2572883515
   14      C      -1.9865449822    -1.0814074782     0.0977300441
   15      H      -0.4624112412     3.7697958433    -0.2274740049
   16      H       4.0453282984     0.9641147078    -0.6391930950
   17      H      -2.4970302573    -3.1634910569     0.4061222542
   18      H      -1.8474376543     3.5666794906     0.9059890877
   19      H      -0.2002982988     3.7931790170     1.5273126011
   20      H       4.2838919982     0.9582831261     1.1198280401
   21      H       3.1925407862     2.1609409489     0.4023597877
   22      H      -0.1906002296    -3.9666582263     0.3443320837
   23      C      -3.4222635693    -0.6326602424     0.1288918324
   24      C       2.0849910947    -2.5767940219    -0.0602005081
   25      H       2.6449814024    -2.1343937269    -0.8905256458
   26      H       2.0671057384    -3.6580417916    -0.2367433488
   27      H       2.6144009167    -2.3996751371     0.8812702249
   28      H      -3.7454857248    -0.3261374563    -0.8709002559
   29      H      -3.5543120453     0.1968300833     0.8302013215
   30      H      -4.0860980650    -1.4390523749     0.4598971058
 ----------------------------------------------------------------
 Molecular Point Group                 C1    NOp =  1
 Largest Abelian Subgroup              C1    NOp =  1
 Nuclear Repulsion Energy =  1141.1730988225 hartrees
 There are       59 alpha and       59 beta electrons
 Requested basis set is STO-3G
 There are 46 shells and 94 basis functions

 Total QAlloc Memory Limit   4000 MB
 Mega-Array Size       392 MB
 MEM_STATIC part       400 MB
 A cutoff of  1.0D-12 yielded    921 shell pairs
 There are      4311 function pairs
 
 -------------------------------------------------------
 OpenMP Integral Computing Module                       
 Release: version 1.0, May 2013, Q-Chem Inc. Pittsburgh 
 -------------------------------------------------------
 Integral Job Info:
 Integral job number is                      11
 Integral operator is                         1
 short-range coefficients                     0
 long-range coefficients              100000000
 Omega coefficients                           0
 if combine SR and LR in K                    0
 Integral screening is                        0
 Integral computing path is                   2
 max size of driver memory is            800000
 size of driver memory is                 45569
 size of scratch memory is               945100
 max col of scratch BK array                289
 max len of scratch array in speh3           22
 max len of scratch index in speh4            8
 max int batch size is                      520
 min int batch size is                       52
 fixed nKL is                                52
 max L of basis functions is                  1
 order of int derivative is                   0
 number of shells is                         46
 number of basis is                          94
 number of cartesian basis is                94
 number of contracted shell pairs           921
 number of primitive shell pairs           4930
 maxK2 (contraction) of shell pair            9
 max number of K2 of shell pair               1
 max number of CS2 of shell pair            151
 max number of PS2 of shell pair            660
 mem total for path MDJ                   29642
 -------------------------------------------------------
 Smallest overlap matrix eigenvalue = 1.76E-01

 Scale SEOQF with 1.000000e-01/1.000000e-01/1.000000e+00

 Standard Electronic Orientation quadrupole field applied
 Nucleus-field energy     =    -0.0000000013 hartrees
 Guess from superposition of atomic densities
 Warning:  Energy on first SCF cycle will be non-variational
 A restricted hybrid HF-DFT SCF calculation will be
 performed using Pulay DIIS extrapolation
 Exchange:     0.2000 Hartree-Fock + 0.0800 Slater + 0.7200 B88
 Correlation:  0.1900 VWN1RPA + 0.8100 LYP
 Using SG-1 standard quadrature grid
 Dispersion:   Grimme D3
 SCF converges when DIIS error is below 1.0E-08
 -------------------------------------------------------
 OpenMP Integral computing Module                
 Release: version 1.0, May 2013, Q-Chem Inc. Pittsburgh 
 -------------------------------------------------------
 -------------------------------------------------------
 OpenMP BLAS3 based DFT computing Module                
 Release: version 1.0, May 2013, Q-Chem Inc. Pittsburgh 
 -------------------------------------------------------
 ---------------------------------------
  Cycle       Energy         DIIS Error
 ---------------------------------------
    1    -756.4854003916      1.14E-01
    2    -756.5487627268      1.27E-02
    3    -755.4707920431      3.40E-02
    4    -756.7513971877      4.53E-03
    5    -756.7739817500      1.66E-03
    6    -756.7772694929      3.92E-04
    7    -756.7774746141      1.05E-04
    8    -756.7774914576      3.18E-05
    9    -756.7774924185      1.90E-05
   10    -756.7774928824      3.60E-06
   11    -756.7774928987      8.95E-07
   12    -756.7774928997      2.23E-07
   13    -756.7774928998      8.13E-08
   14    -756.7774928998      3.01E-08
   15    -756.7774928998      6.43E-09 Convergence criterion met
 ---------------------------------------
 SCF time:  CPU 88.04 s  wall 3.93 s
 SCF   energy in the final basis set = -756.7774928998
 Total energy in the final basis set = -756.7774928998
 
 --------------------------------------------------------------
 
                    Orbital Energies (a.u.)
 --------------------------------------------------------------
 
 Alpha MOs
 -- Occupied --
-18.949 -18.946 -18.868 -18.867 -10.115 -10.112 -10.075 -10.072
-10.020 -10.019 -10.017 -10.016 -10.015 -10.013 -10.004 -10.003
 -1.048  -1.042  -0.958  -0.955  -0.820  -0.752  -0.730  -0.692
 -0.683  -0.672  -0.622  -0.590  -0.562  -0.506  -0.500  -0.461
 -0.453  -0.447  -0.432  -0.425  -0.415  -0.398  -0.392  -0.385
 -0.382  -0.369  -0.357  -0.350  -0.346  -0.339  -0.326  -0.321
 -0.309  -0.293  -0.287  -0.250  -0.248  -0.197  -0.184  -0.181
 -0.180  -0.152  -0.148
 -- Virtual --
  0.062   0.077   0.130   0.142   0.242   0.288   0.309   0.353
  0.372   0.389   0.394   0.406   0.410   0.436   0.440   0.445
  0.446   0.452   0.455   0.457   0.460   0.468   0.471   0.475
  0.484   0.492   0.504   0.577   0.590   0.602   0.627   0.702
  0.709   0.786   0.800
 --------------------------------------------------------------
 
          Ground-State Mulliken Net Atomic Charges

     Atom                 Charge (a.u.)
  ----------------------------------------
      1 C                    -0.020315
      2 C                    -0.018928
      3 C                     0.235748
      4 C                     0.236538
      5 O                    -0.181275
      6 O                    -0.229574
      7 O                    -0.184253
      8 O                    -0.224009
      9 C                    -0.127614
     10 C                    -0.126341
     11 C                     0.009809
     12 C                    -0.080336
     13 C                    -0.080433
     14 C                     0.010066
     15 H                     0.096676
     16 H                     0.093049
     17 H                     0.079304
     18 H                     0.092734
     19 H                     0.094731
     20 H                     0.096134
     21 H                     0.093638
     22 H                     0.078551
     23 C                    -0.231252
     24 C                    -0.229602
     25 H                     0.082934
     26 H                     0.080995
     27 H                     0.092446
     28 H                     0.095901
     29 H                     0.084121
     30 H                     0.080559
  ----------------------------------------
  Sum of atomic charges =    -0.000000

 -----------------------------------------------------------------
                    Cartesian Multipole Moments
 -----------------------------------------------------------------
    Charge (ESU x 10^10)
                -0.0000
    Dipole Moment (Debye)
         X       1.2962      Y      -0.1010      Z       1.7364
       Tot       2.1692
    Quadrupole Moments (Debye-Ang)
        XX     -77.8750     XY       2.5850     YY     -77.1677
        XZ      -2.0609     YZ       4.6538     ZZ     -90.4602
    Octopole Moments (Debye-Ang^2)
       XXX      31.3988    XXY       6.2045    XYY       3.2220
       YYY      33.1978    XXZ       7.9534    XYZ      -0.8801
       YYZ      11.8410    XZZ       4.7944    YZZ       7.2816
       ZZZ      -1.5429
    Hexadecapole Moments (Debye-Ang^3)
      XXXX   -1962.7992   XXXY      47.3519   XXYY    -646.4083
      XYYY     -13.2508   YYYY   -1735.6892   XXXZ      -1.7022
      XXYZ      17.5216   XYYZ      -9.7525   YYYZ      13.7299
      XXZZ    -388.8525   XYZZ      -6.2694   YYZZ    -361.9148
      XZZZ       9.5993   YZZZ       1.8299   ZZZZ    -235.9432
 -----------------------------------------------------------------
 Calculating analytic gradient of the SCF energy
 Gradient of SCF Energy
            1           2           3           4           5           6
    1   0.0213257  -0.0080944   0.0219533   0.0038728  -0.0213627  -0.0049191
    2   0.0280999   0.0335195   0.0130442   0.0252676   0.0316096  -0.0513407
    3  -0.0060298  -0.0071836  -0.0015978   0.0068760  -0.0526758   0.0521430
            7           8           9          10          11          12
    1  -0.0435928   0.0411236   0.0034144  -0.0167356   0.0111495   0.0041761
    2   0.0026304  -0.0357710  -0.0228437  -0.0142570   0.0022105   0.0017290
    3  -0.0483522   0.0435054  -0.0000375   0.0032563  -0.0024467   0.0009026
           13          14          15          16          17          18
    1  -0.0031860  -0.0059502   0.0008837  -0.0064515   0.0072787   0.0118702
    2   0.0033800   0.0100336  -0.0081916  -0.0041587   0.0033181  -0.0067733
    3  -0.0007584   0.0006345   0.0113512   0.0120997  -0.0015351   0.0021588
           19          20          21          22          23          24
    1  -0.0064546  -0.0051214   0.0007536  -0.0036346   0.0171200  -0.0151163
    2  -0.0018106   0.0037889  -0.0128389   0.0064391  -0.0027253   0.0083908
    3  -0.0085387  -0.0084767   0.0036917  -0.0000443  -0.0037533   0.0048797
           25          26          27          28          29          30
    1  -0.0053769   0.0027466  -0.0067816   0.0030568   0.0020212   0.0000315
    2  -0.0049794   0.0040361  -0.0027634  -0.0060541  -0.0076737   0.0046841
    3   0.0005309  -0.0013090  -0.0034106   0.0044744  -0.0000072  -0.0003474
 Max gradient component =       5.268E-02
 RMS gradient           =       1.699E-02
 Gradient time:  CPU 16.13 s  wall 0.75 s
 Geometry Optimization Parameters
   NAtoms,    NIC,     NZ,  NCons,   NDum,   NFix, NCnnct, MaxDiis
       30     194       0       2       0       0       0       0


** CONSTRAINED OPTIMIZATION IN DELOCALIZED INTERNAL COORDINATES **
   Searching for a Minimum

   Optimization Cycle:   1

                       Coordinates (Angstroms)
     ATOM                X               Y               Z
      1  C         0.4125011125   -0.6355076896   -0.1241194854
      2  C        -0.9199718424   -0.1775825584   -0.0970935988
      3  C         1.4909203662    0.3367582974   -0.4177838583
      4  C        -1.2227722681    1.2652754643   -0.2345295060
      5  O         2.4794071129    0.2069212582    0.5013164054
      6  O         1.4599007613    1.1281261782   -1.3437118584
      7  O        -0.5671603921    1.9341318938    0.7477851812
      8  O        -2.0192894914    1.7300109239   -1.0316062059
      9  C        -0.7911410252    3.3435492204    0.7249274575
     10  C         3.5538033154    1.1302705963    0.3241165186
     11  C         0.6908325096   -2.0150972909    0.0112251320
     12  C        -0.3765806243   -2.9000235158    0.2224235647
     13  C        -1.6950140119   -2.4427633611    0.2572883515
     14  C        -1.9865449822   -1.0814074782    0.0977300441
     15  H        -0.4624112412    3.7697958433   -0.2274740049
     16  H         4.0453282984    0.9641147078   -0.6391930950
     17  H        -2.4970302573   -3.1634910569    0.4061222542
     18  H        -1.8474376543    3.5666794906    0.9059890877
     19  H        -0.2002982988    3.7931790170    1.5273126011
     20  H         4.2838919982    0.9582831261    1.1198280401
     21  H         3.1925407862    2.1609409489    0.4023597877
     22  H        -0.1906002296   -3.9666582263    0.3443320837
     23  C        -3.4222635693   -0.6326602424    0.1288918324
     24  C         2.0849910947   -2.5767940219   -0.0602005081
     25  H         2.6449814024   -2.1343937269   -0.8905256458
     26  H         2.0671057384   -3.6580417916   -0.2367433488
     27  H         2.6144009167   -2.3996751371    0.8812702249
     28  H        -3.7454857248   -0.3261374563   -0.8709002559
     29  H        -3.5543120453    0.1968300833    0.8302013215
     30  H        -4.0860980650   -1.4390523749    0.4598971058
   Point Group: c1    Number of degrees of freedom:    84


   Energy is   -756.777492900

              Constraints and their Current Values
                                        Value     Constraint
   Dihedral:        2   1   3   5      131.435      140.200
   Dihedral:        1   2   4   7      -57.239      -62.300

 Attempting to Generate Delocalized Internal Coordinates

   Using Lagrange Multiplier Algorithm


 86 Hessian modes will be used to form the next step
  Hessian Eigenvalues:
    -0.977753   -0.977753    0.045000    0.045000    0.045000    0.045000
     0.045000    0.045000    0.045000    0.045000    0.045000    0.045001
     0.045002    0.045003    0.045005    0.045012    0.045013    0.045137
     0.045284    0.093755    0.094007    0.094234    0.094419    0.113828
     0.113875    0.116854    0.116890    0.159975    0.159998    0.160000
     0.160000    0.160000    0.160000    0.160000    0.160000    0.160000
     0.160000    0.160000    0.160000    0.160000    0.160000    0.224723
     0.244737    0.248923    0.249138    0.249624    0.249908    0.249990
     0.249993    0.250000    0.250000    0.250000    0.250000    0.250000
     0.318837    0.319059    0.341608    0.341647    0.342469    0.342555
     0.342769    0.342935    0.342935    0.343290    0.343371    0.343554
     0.344100    0.344105    0.344456    0.344917    0.348625    0.349867
     0.408089    0.409183    0.413229    0.413817    0.437594    0.446154
     0.449565    0.458786    0.535065    0.537664    0.958663    0.960829
     1.022753    1.022753

 Minimum Search - Taking P-RFO Step
 Searching for Lamda that Maximizes Along the Constraint modes Only
 Value Taken    Lamda =   0.01660624
 Searching for Lamda that Minimizes Along All other modes
 Value Taken    Lamda =  -0.06808019
 Calculated Step too Large.  Step scaled by  0.793291
 Step Taken.  Stepsize is  0.300000

                             Maximum     Tolerance    Cnvgd?
         Gradient            0.152983       0.000300      NO
         Displacement        0.119372       0.001200      NO
         Energy change     *********       0.000001      NO


 New Cartesian Coordinates Obtained by Inverse Iteration

 Displacement from previous Coordinates is:  1.138126
 Adding empirical dispersion correction 
 ----------------------------------------------------------------
 Doing -D3(op) with
 s6 =   1.00000
 s8 =   0.78311
 a1 =   0.30000
 a2 =   4.25000
 n  =  10.00000
 -D3 energy without 3body term =     -0.0326312592 hartrees
 ----------------------------------------------------------------
             Standard Nuclear Orientation (Angstroms)
    I     Atom           X                Y                Z
 ----------------------------------------------------------------
    1      C       0.4039898902    -0.6582663732    -0.0662681434
    2      C      -0.9407452092    -0.2019229939    -0.0557864871
    3      C       1.5042110931     0.3619094212    -0.3635420040
    4      C      -1.2391077767     1.2896775955    -0.2265592722
    5      O       2.5923626743     0.1563101101     0.4941554278
    6      O       1.4694245372     1.2043787589    -1.2838226122
    7      O      -0.6411905938     1.9951409114     0.8287745332
    8      O      -2.0012194011     1.7899250127    -1.0775699190
    9      C      -0.8892874365     3.4349972720     0.7582496349
   10      C       3.6914363258     1.0885574582     0.2458795352
   11      C       0.6882020988    -2.0483993025     0.0462990852
   12      C      -0.3894040387    -2.9421601306     0.2290091541
   13      C      -1.7184551893    -2.4861339092     0.2518575488
   14      C      -2.0188992378    -1.1156346306     0.1025419812
   15      H      -0.5018558982     3.8689376978    -0.1836608067
   16      H       4.1073773654     0.9675878369    -0.7732339786
   17      H      -2.5311802926    -3.2113366889     0.3761322375
   18      H      -1.9681492285     3.6675051510     0.8498586721
   19      H      -0.3558201686     3.8982900778     1.6063752742
   20      H       4.4832979940     0.8585102706     0.9797438608
   21      H       3.3732075220     2.1398272455     0.3860570224
   22      H      -0.1929449796    -4.0158363452     0.3341039865
   23      C      -3.4780822571    -0.6510990224     0.1017088852
   24      C       2.1151142660    -2.5999206354    -0.0225326117
   25      H       2.6881681521    -2.1291665192    -0.8351363156
   26      H       2.1004374451    -3.6820398289    -0.2174046631
   27      H       2.6476158121    -2.4337485572     0.9270918038
   28      H      -3.7825727674    -0.3203728927    -0.9037150165
   29      H      -3.6339837851     0.1802215763     0.8056547087
   30      H      -4.1457532260    -1.4701574447     0.4048741011
 ----------------------------------------------------------------
 Molecular Point Group                 C1    NOp =  1
 Largest Abelian Subgroup              C1    NOp =  1
 Nuclear Repulsion Energy =  1119.4841062871 hartrees
 There are       59 alpha and       59 beta electrons
 Applying Cartesian multipole field
    Component          Value
    ---------          -----
     (2,0,0)        1.00000E-11
     (0,2,0)        2.00000E-11
     (0,0,2)       -3.00000E-10
 Nucleus-field energy     =     0.0000000007 hartrees
 Requested basis set is STO-3G
 There are 46 shells and 94 basis functions
 A cutoff of  1.0D-12 yielded    914 shell pairs
 There are      4289 function pairs
 Smallest overlap matrix eigenvalue = 1.82E-01
 Guess MOs from SCF MO coefficient file
 Reading MOs from coefficient file
 Reading MOs from coefficient file
 A restricted hybrid HF-DFT SCF calculation will be
 performed using Pulay DIIS extrapolation
 Exchange:     0.2000 Hartree-Fock + 0.0800 Slater + 0.7200 B88
 Correlation:  0.1900 VWN1RPA + 0.8100 LYP
 Using SG-1 standard quadrature grid
 Dispersion:   Grimme D3
 SCF converges when DIIS error is below 1.0E-08
 Geometry optimization detected.  Setting ReadMinima to 0
 Setting SaveMinima to 0
 -------------------------------------------------------
 OpenMP Integral computing Module                
 Release: version 1.0, May 2013, Q-Chem Inc. Pittsburgh 
 -------------------------------------------------------
 -------------------------------------------------------
 OpenMP BLAS3 based DFT computing Module                
 Release: version 1.0, May 2013, Q-Chem Inc. Pittsburgh 
 -------------------------------------------------------
 ---------------------------------------
  Cycle       Energy         DIIS Error
 ---------------------------------------
    1    -756.6326191132      6.84E-03
    2    -756.7957692959      2.41E-03
    3    -756.7798912582      4.31E-03
    4    -756.8028497419      6.13E-04
    5    -756.8033425970      1.76E-04
    6    -756.8033832917      5.00E-05
    7    -756.8033862853      2.40E-05
    8    -756.8033869465      1.19E-05
    9    -756.8033871312      2.15E-06
   10    -756.8033871389      5.41E-07
   11    -756.8033871395      1.43E-07
   12    -756.8033871395      7.32E-08
   13    -756.8033871395      2.39E-08
   14    -756.8033871395      6.55E-09 Convergence criterion met
 ---------------------------------------
 SCF time:  CPU 87.54 s  wall 3.75 s
 SCF   energy in the final basis set = -756.8033871395
 Total energy in the final basis set = -756.8033871395
 
 --------------------------------------------------------------
 
                    Orbital Energies (a.u.)
 --------------------------------------------------------------
 
 Alpha MOs
 -- Occupied --
-18.942 -18.937 -18.870 -18.868 -10.107 -10.103 -10.070 -10.066
-10.023 -10.022 -10.021 -10.020 -10.017 -10.016 -10.008 -10.007
 -1.022  -1.016  -0.941  -0.937  -0.815  -0.745  -0.721  -0.681
 -0.676  -0.663  -0.621  -0.585  -0.557  -0.499  -0.492  -0.450
 -0.443  -0.435  -0.417  -0.414  -0.409  -0.392  -0.384  -0.379
 -0.375  -0.369  -0.355  -0.347  -0.345  -0.336  -0.319  -0.313
 -0.307  -0.291  -0.284  -0.251  -0.248  -0.195  -0.182  -0.179
 -0.175  -0.152  -0.147
 -- Virtual --
  0.057   0.072   0.119   0.130   0.232   0.258   0.282   0.328
  0.352   0.359   0.376   0.391   0.402   0.421   0.424   0.427
  0.432   0.433   0.439   0.442   0.444   0.448   0.460   0.463
  0.471   0.481   0.486   0.554   0.565   0.579   0.607   0.660
  0.661   0.761   0.774
 --------------------------------------------------------------
 
          Ground-State Mulliken Net Atomic Charges

     Atom                 Charge (a.u.)
  ----------------------------------------
      1 C                    -0.019244
      2 C                    -0.016742
      3 C                     0.216450
      4 C                     0.217956
      5 O                    -0.171049
      6 O                    -0.216209
      7 O                    -0.173993
      8 O                    -0.212393
      9 C                    -0.125608
     10 C                    -0.124900
     11 C                     0.009217
     12 C                    -0.079481
     13 C                    -0.078885
     14 C                     0.008909
     15 H                     0.092850
     16 H                     0.089691
     17 H                     0.079542
     18 H                     0.088990
     19 H                     0.091286
     20 H                     0.092624
     21 H                     0.090645
     22 H                     0.079043
     23 C                    -0.225733
     24 C                    -0.223406
     25 H                     0.083015
     26 H                     0.079338
     27 H                     0.091070
     28 H                     0.093466
     29 H                     0.083608
     30 H                     0.079940
  ----------------------------------------
  Sum of atomic charges =     0.000000

 -----------------------------------------------------------------
                    Cartesian Multipole Moments
 -----------------------------------------------------------------
    Charge (ESU x 10^10)
                -0.0000
    Dipole Moment (Debye)
         X       1.1389      Y      -0.3131      Z       1.5314
       Tot       1.9340
    Quadrupole Moments (Debye-Ang)
        XX     -76.9496     XY       2.4894     YY     -77.0166
        XZ      -2.2368     YZ       4.4909     ZZ     -90.5565
    Octopole Moments (Debye-Ang^2)
       XXX      31.5729    XXY       7.2259    XYY       2.0787
       YYY      33.3756    XXZ       5.5264    XYZ      -1.5297
       YYZ      11.1924    XZZ       5.6171    YZZ       7.3464
       ZZZ      -5.5186
    Hexadecapole Moments (Debye-Ang^3)
      XXXX   -2035.2270   XXXY      57.3759   XXYY    -669.7358
      XYYY      -8.8923   YYYY   -1790.7249   XXXZ      -1.0712
      XXYZ      16.2723   XYYZ     -10.0116   YYYZ      18.9849
      XXZZ    -406.6338   XYZZ      -2.9749   YYZZ    -374.7260
      XZZZ       9.2691   YZZZ       3.4217   ZZZZ    -234.4613
 -----------------------------------------------------------------
 Calculating analytic gradient of the SCF energy
 Gradient of SCF Energy
            1           2           3           4           5           6
    1   0.0063620  -0.0038762   0.0083287   0.0149676  -0.0087348  -0.0001163
    2   0.0063927   0.0076955   0.0026315   0.0068678   0.0118913  -0.0127198
    3   0.0002616  -0.0024695   0.0105359   0.0078178  -0.0207568   0.0056607
            7           8           9          10          11          12
    1  -0.0189163   0.0037916   0.0028942  -0.0059871   0.0017977   0.0019002
    2   0.0014125  -0.0076693  -0.0091609  -0.0074415   0.0003133  -0.0010406
    3  -0.0192814   0.0085232   0.0029885   0.0037339  -0.0028291   0.0013582
           13          14          15          16          17          18
    1  -0.0024950  -0.0020083   0.0010546   0.0003033   0.0019185   0.0020574
    2   0.0003031   0.0019720  -0.0008058  -0.0013516   0.0002396  -0.0006636
    3  -0.0002192   0.0005780   0.0024269   0.0024585  -0.0006115   0.0018670
           19          20          21          22          23          24
    1  -0.0015690   0.0002965   0.0005923  -0.0014365   0.0054032  -0.0041709
    2   0.0016556   0.0022271  -0.0019809   0.0012167  -0.0000050   0.0043117
    3  -0.0020884  -0.0020127   0.0017245   0.0003590  -0.0019004   0.0021397
           25          26          27          28          29          30
    1  -0.0009420   0.0018730  -0.0015093  -0.0003390  -0.0006425  -0.0007975
    2  -0.0025842   0.0011651  -0.0017646  -0.0023979  -0.0025236   0.0018138
    3  -0.0010585  -0.0010426  -0.0002243   0.0008030   0.0009650   0.0002929
 Max gradient component =       2.076E-02
 RMS gradient           =       5.587E-03
 Gradient time:  CPU 17.82 s  wall 0.75 s
 Geometry Optimization Parameters
   NAtoms,    NIC,     NZ,  NCons,   NDum,   NFix, NCnnct, MaxDiis
       30     194       0       2       0       0       0       0

 Cartesian Hessian Update
 Hessian Updated using BFGS Update


** CONSTRAINED OPTIMIZATION IN DELOCALIZED INTERNAL COORDINATES **
   Searching for a Minimum

   Optimization Cycle:   2

                       Coordinates (Angstroms)
     ATOM                X               Y               Z
      1  C         0.4039898902   -0.6582663732   -0.0662681434
      2  C        -0.9407452092   -0.2019229939   -0.0557864871
      3  C         1.5042110931    0.3619094212   -0.3635420040
      4  C        -1.2391077767    1.2896775955   -0.2265592722
      5  O         2.5923626743    0.1563101101    0.4941554278
      6  O         1.4694245372    1.2043787589   -1.2838226122
      7  O        -0.6411905938    1.9951409114    0.8287745332
      8  O        -2.0012194011    1.7899250127   -1.0775699190
      9  C        -0.8892874365    3.4349972720    0.7582496349
     10  C         3.6914363258    1.0885574582    0.2458795352
     11  C         0.6882020988   -2.0483993025    0.0462990852
     12  C        -0.3894040387   -2.9421601306    0.2290091541
     13  C        -1.7184551893   -2.4861339092    0.2518575488
     14  C        -2.0188992378   -1.1156346306    0.1025419812
     15  H        -0.5018558982    3.8689376978   -0.1836608067
     16  H         4.1073773654    0.9675878369   -0.7732339786
     17  H        -2.5311802926   -3.2113366889    0.3761322375
     18  H        -1.9681492285    3.6675051510    0.8498586721
     19  H        -0.3558201686    3.8982900778    1.6063752742
     20  H         4.4832979940    0.8585102706    0.9797438608
     21  H         3.3732075220    2.1398272455    0.3860570224
     22  H        -0.1929449796   -4.0158363452    0.3341039865
     23  C        -3.4780822571   -0.6510990224    0.1017088852
     24  C         2.1151142660   -2.5999206354   -0.0225326117
     25  H         2.6881681521   -2.1291665192   -0.8351363156
     26  H         2.1004374451   -3.6820398289   -0.2174046631
     27  H         2.6476158121   -2.4337485572    0.9270918038
     28  H        -3.7825727674   -0.3203728927   -0.9037150165
     29  H        -3.6339837851    0.1802215763    0.8056547087
     30  H        -4.1457532260   -1.4701574447    0.4048741011
   Point Group: c1    Number of degrees of freedom:    84


   Energy is   -756.803387140

              Constraints and their Current Values
                                        Value     Constraint
   Dihedral:        2   1   3   5      138.116      140.200
   Dihedral:        1   2   4   7      -61.105      -62.300
 Hessian Updated using BFGS Update

   Using Lagrange Multiplier Algorithm


 70 Hessian modes will be used to form the next step
  Hessian Eigenvalues:
    -0.977957   -0.977707    0.044511    0.045000    0.045000    0.045000
     0.045000    0.045001    0.045001    0.045004    0.045006    0.045013
     0.045076    0.045160    0.045311    0.093647    0.093943    0.094234
     0.094414    0.113768    0.113857    0.116855    0.116890    0.158484
     0.159976    0.159999    0.162390    0.224720    0.237060    0.244986
     0.249013    0.249469    0.249634    0.249914    0.249992    0.249997
     0.250000    0.252642    0.318930    0.321734    0.341605    0.341649
     0.342502    0.342565    0.342808    0.342934    0.342962    0.343293
     0.343401    0.343581    0.344096    0.344418    0.344556    0.348588
     0.349809    0.372068    0.407792    0.408186    0.413489    0.424589
     0.438393    0.446303    0.457581    0.463968    0.525525    0.536537
     0.959694    0.991170    1.022616    1.022917

 Minimum Search - Taking P-RFO Step
 Searching for Lamda that Maximizes Along the Constraint modes Only
 Value Taken    Lamda =   0.00067041
 Searching for Lamda that Minimizes Along All other modes
 Value Taken    Lamda =  -0.00876644
 Step Taken.  Stepsize is  0.244966

                             Maximum     Tolerance    Cnvgd?
         Gradient            0.036380       0.000300      NO
         Displacement        0.069146       0.001200      NO
         Energy change     -0.025894       0.000001      NO


 New Cartesian Coordinates Obtained by Inverse Iteration

 Displacement from previous Coordinates is:  0.831832
 Adding empirical dispersion correction 
 ----------------------------------------------------------------
 Doing -D3(op) with
 s6 =   1.00000
 s8 =   0.78311
 a1 =   0.30000
 a2 =   4.25000
 n  =  10.00000
 -D3 energy without 3body term =     -0.0326952221 hartrees
 ----------------------------------------------------------------
             Standard Nuclear Orientation (Angstroms)
    I     Atom           X                Y                Z
 ----------------------------------------------------------------
    1      C       0.3970681369    -0.6924000391    -0.0320571658
    2      C      -0.9449938272    -0.2323461049    -0.0076018741
    3      C       1.4861785853     0.3660042987    -0.3035009317
    4      C      -1.2230627665     1.2758261991    -0.1950678620
    5      O       2.6234757893     0.1279723620     0.5197091921
    6      O       1.4056078867     1.3036849002    -1.1359008912
    7      O      -0.6094638107     1.9850564137     0.8806549587
    8      O      -1.9241020402     1.8118995944    -1.0864415233
    9      C      -0.8317821508     3.4340347818     0.7029428409
   10      C       3.6515239795     1.1523448693     0.2467413251
   11      C       0.6833051075    -2.0858723443     0.0458772931
   12      C      -0.4021117846    -2.9778949817     0.2018562251
   13      C      -1.7315994936    -2.5164288027     0.2408702942
   14      C      -2.0292268132    -1.1401837581     0.1238560152
   15      H      -0.4097089491     3.7988333738    -0.2567262287
   16      H       4.0017243016     1.1111808189    -0.8060726189
   17      H      -2.5537648459    -3.2376076997     0.3483344646
   18      H      -1.9117545949     3.6902603320     0.7330151442
   19      H      -0.3116303839     3.9245215824     1.5472313558
   20      H       4.4936297393     0.9226193889     0.9262527382
   21      H       3.2766725394     2.1766432006     0.4523471780
   22      H      -0.2021097834    -4.0557370940     0.2762855977
   23      C      -3.4871246140    -0.6489133852     0.1227813717
   24      C       2.1174428268    -2.6396040475    -0.0327619011
   25      H       2.6934313284    -2.1381785845    -0.8263328869
   26      H       2.0907710167    -3.7194112079    -0.2475240622
   27      H       2.6508047911    -2.4871858556     0.9207951156
   28      H      -3.7698323333    -0.2787446022    -0.8775979428
   29      H      -3.6279286586     0.1763877899     0.8398374041
   30      H      -4.1652454886    -1.4711802774     0.3973329969
 ----------------------------------------------------------------
 Molecular Point Group                 C1    NOp =  1
 Largest Abelian Subgroup              C1    NOp =  1
 Nuclear Repulsion Energy =  1118.3343725412 hartrees
 There are       59 alpha and       59 beta electrons
 Applying Cartesian multipole field
    Component          Value
    ---------          -----
     (2,0,0)        1.00000E-11
     (0,2,0)        2.00000E-11
     (0,0,2)       -3.00000E-10
 Nucleus-field energy     =     0.0000000044 hartrees
 Requested basis set is STO-3G
 There are 46 shells and 94 basis functions
 A cutoff of  1.0D-12 yielded    914 shell pairs
 There are      4286 function pairs
 Smallest overlap matrix eigenvalue = 1.83E-01
 Guess MOs from SCF MO coefficient file
 Reading MOs from coefficient file
 Reading MOs from coefficient file
 A restricted hybrid HF-DFT SCF calculation will be
 performed using Pulay DIIS extrapolation
 Exchange:     0.2000 Hartree-Fock + 0.0800 Slater + 0.7200 B88
 Correlation:  0.1900 VWN1RPA + 0.8100 LYP
 Using SG-1 standard quadrature grid
 Dispersion:   Grimme D3
 SCF converges when DIIS error is below 1.0E-08
 Geometry optimization detected.  Setting ReadMinima to 0
 Setting SaveMinima to 0
 -------------------------------------------------------
 OpenMP Integral computing Module                
 Release: version 1.0, May 2013, Q-Chem Inc. Pittsburgh 
 -------------------------------------------------------
 -------------------------------------------------------
 OpenMP BLAS3 based DFT computing Module                
 Release: version 1.0, May 2013, Q-Chem Inc. Pittsburgh 
 -------------------------------------------------------
 ---------------------------------------
  Cycle       Energy         DIIS Error
 ---------------------------------------
    1    -756.7224261278      5.72E-03
    2    -756.8053430924      1.18E-03
    3    -756.8004515405      2.34E-03
    4    -756.8072000708      3.76E-04
    5    -756.8073768626      1.33E-04
    6    -756.8073994654      4.17E-05
    7    -756.8074011207      2.55E-05
    8    -756.8074019149      7.72E-06
    9    -756.8074019953      1.72E-06
   10    -756.8074020001      3.69E-07
   11    -756.8074020003      1.04E-07
   12    -756.8074020003      4.41E-08
   13    -756.8074020003      1.62E-08
   14    -756.8074020003      3.99E-09 Convergence criterion met
 ---------------------------------------
 SCF time:  CPU 82.90 s  wall 3.54 s
 SCF   energy in the final basis set = -756.8074020003
 Total energy in the final basis set = -756.8074020003
 
 --------------------------------------------------------------
 
                    Orbital Energies (a.u.)
 --------------------------------------------------------------
 
 Alpha MOs
 -- Occupied --
-18.940 -18.933 -18.873 -18.871 -10.103 -10.099 -10.066 -10.061
-10.024 -10.023 -10.023 -10.021 -10.018 -10.017 -10.010 -10.009
 -1.015  -1.007  -0.936  -0.932  -0.815  -0.744  -0.719  -0.680
 -0.670  -0.657  -0.621  -0.583  -0.556  -0.496  -0.489  -0.448
 -0.442  -0.432  -0.413  -0.410  -0.406  -0.390  -0.381  -0.376
 -0.371  -0.367  -0.355  -0.348  -0.345  -0.337  -0.318  -0.309
 -0.306  -0.290  -0.283  -0.256  -0.252  -0.195  -0.183  -0.179
 -0.173  -0.154  -0.148
 -- Virtual --
  0.054   0.071   0.116   0.128   0.232   0.252   0.276   0.315
  0.340   0.346   0.368   0.384   0.401   0.414   0.420   0.426
  0.430   0.432   0.435   0.437   0.442   0.445   0.454   0.457
  0.464   0.475   0.482   0.548   0.558   0.575   0.602   0.647
  0.650   0.757   0.769
 --------------------------------------------------------------
 
          Ground-State Mulliken Net Atomic Charges

     Atom                 Charge (a.u.)
  ----------------------------------------
      1 C                    -0.019867
      2 C                    -0.016980
      3 C                     0.209670
      4 C                     0.211847
      5 O                    -0.164668
      6 O                    -0.212435
      7 O                    -0.168374
      8 O                    -0.207779
      9 C                    -0.127588
     10 C                    -0.126701
     11 C                     0.008961
     12 C                    -0.079239
     13 C                    -0.078314
     14 C                     0.008211
     15 H                     0.092675
     16 H                     0.088872
     17 H                     0.079600
     18 H                     0.087646
     19 H                     0.088571
     20 H                     0.090590
     21 H                     0.090454
     22 H                     0.079060
     23 C                    -0.224085
     24 C                    -0.221638
     25 H                     0.083903
     26 H                     0.079580
     27 H                     0.091097
     28 H                     0.092824
     29 H                     0.083788
     30 H                     0.080320
  ----------------------------------------
  Sum of atomic charges =     0.000000

 -----------------------------------------------------------------
                    Cartesian Multipole Moments
 -----------------------------------------------------------------
    Charge (ESU x 10^10)
                -0.0000
    Dipole Moment (Debye)
         X       1.0088      Y      -0.4829      Z       1.2733
       Tot       1.6948
    Quadrupole Moments (Debye-Ang)
        XX     -77.1444     XY       2.6165     YY     -77.5416
        XZ      -2.3472     YZ       4.1491     ZZ     -90.3158
    Octopole Moments (Debye-Ang^2)
       XXX      26.8502    XXY       8.3556    XYY       2.3135
       YYY      31.3288    XXZ       2.7367    XYZ      -1.4200
       YYZ       8.8106    XZZ       6.4355    YZZ       8.0186
       ZZZ     -10.7866
    Hexadecapole Moments (Debye-Ang^3)
      XXXX   -2019.6153   XXXY      43.9992   XXYY    -670.4673
      XYYY     -20.3289   YYYY   -1836.1666   XXXZ      -4.5931
      XXYZ      13.2582   XYYZ      -9.5146   YYYZ      18.9558
      XXZZ    -399.9574   XYZZ      -5.4183   YYZZ    -381.2657
      XZZZ       3.2829   YZZZ       1.4311   ZZZZ    -221.3683
 -----------------------------------------------------------------
 Calculating analytic gradient of the SCF energy
 Gradient of SCF Energy
            1           2           3           4           5           6
    1  -0.0012405   0.0004974   0.0041464   0.0080661  -0.0011402   0.0002356
    2  -0.0001645  -0.0007617   0.0014515   0.0031608   0.0005527   0.0009851
    3   0.0034474   0.0023778   0.0041376   0.0038290  -0.0017428  -0.0035775
            7           8           9          10          11          12
    1  -0.0030419  -0.0032999  -0.0005455  -0.0043453  -0.0002768   0.0008220
    2  -0.0011867   0.0014322  -0.0044123  -0.0018073  -0.0008574  -0.0001307
    3  -0.0008329  -0.0029093  -0.0015436  -0.0004210  -0.0030050   0.0005242
           13          14          15          16          17          18
    1  -0.0003323  -0.0002241   0.0001410   0.0003272  -0.0002586  -0.0007183
    2   0.0003567   0.0008778   0.0006481  -0.0000362  -0.0001185   0.0002576
    3  -0.0001362  -0.0000758  -0.0005097  -0.0006428  -0.0002192   0.0001264
           19          20          21          22          23          24
    1   0.0005206   0.0001010   0.0001023   0.0001031   0.0005857   0.0004535
    2  -0.0003220  -0.0004751   0.0007413  -0.0002288   0.0007826   0.0010987
    3   0.0004953   0.0004810   0.0001338   0.0003147  -0.0006961   0.0006594
           25          26          27          28          29          30
    1   0.0000099  -0.0000931   0.0000486  -0.0003303  -0.0002360  -0.0000777
    2  -0.0002613  -0.0005615  -0.0004742  -0.0002409   0.0001429  -0.0004488
    3  -0.0003865  -0.0004479   0.0001381  -0.0002214   0.0003097   0.0003934
 Max gradient component =       8.066E-03
 RMS gradient           =       1.708E-03
 Gradient time:  CPU 18.97 s  wall 0.80 s
 Geometry Optimization Parameters
   NAtoms,    NIC,     NZ,  NCons,   NDum,   NFix, NCnnct, MaxDiis
       30     194       0       2       0       0       0       0

 Cartesian Hessian Update
 Hessian Updated using BFGS Update


** CONSTRAINED OPTIMIZATION IN DELOCALIZED INTERNAL COORDINATES **
   Searching for a Minimum

   Optimization Cycle:   3

                       Coordinates (Angstroms)
     ATOM                X               Y               Z
      1  C         0.3970681369   -0.6924000391   -0.0320571658
      2  C        -0.9449938272   -0.2323461049   -0.0076018741
      3  C         1.4861785853    0.3660042987   -0.3035009317
      4  C        -1.2230627665    1.2758261991   -0.1950678620
      5  O         2.6234757893    0.1279723620    0.5197091921
      6  O         1.4056078867    1.3036849002   -1.1359008912
      7  O        -0.6094638107    1.9850564137    0.8806549587
      8  O        -1.9241020402    1.8118995944   -1.0864415233
      9  C        -0.8317821508    3.4340347818    0.7029428409
     10  C         3.6515239795    1.1523448693    0.2467413251
     11  C         0.6833051075   -2.0858723443    0.0458772931
     12  C        -0.4021117846   -2.9778949817    0.2018562251
     13  C        -1.7315994936   -2.5164288027    0.2408702942
     14  C        -2.0292268132   -1.1401837581    0.1238560152
     15  H        -0.4097089491    3.7988333738   -0.2567262287
     16  H         4.0017243016    1.1111808189   -0.8060726189
     17  H        -2.5537648459   -3.2376076997    0.3483344646
     18  H        -1.9117545949    3.6902603320    0.7330151442
     19  H        -0.3116303839    3.9245215824    1.5472313558
     20  H         4.4936297393    0.9226193889    0.9262527382
     21  H         3.2766725394    2.1766432006    0.4523471780
     22  H        -0.2021097834   -4.0557370940    0.2762855977
     23  C        -3.4871246140   -0.6489133852    0.1227813717
     24  C         2.1174428268   -2.6396040475   -0.0327619011
     25  H         2.6934313284   -2.1381785845   -0.8263328869
     26  H         2.0907710167   -3.7194112079   -0.2475240622
     27  H         2.6508047911   -2.4871858556    0.9207951156
     28  H        -3.7698323333   -0.2787446022   -0.8775979428
     29  H        -3.6279286586    0.1763877899    0.8398374041
     30  H        -4.1652454886   -1.4711802774    0.3973329969
   Point Group: c1    Number of degrees of freedom:    84


   Energy is   -756.807402000

              Constraints and their Current Values
                                        Value     Constraint
   Dihedral:        2   1   3   5      140.189      140.200
   Dihedral:        1   2   4   7      -62.294      -62.300
 Hessian Updated using BFGS Update

   Using Lagrange Multiplier Algorithm


 73 Hessian modes will be used to form the next step
  Hessian Eigenvalues:
    -0.977765   -0.976540    0.039845    0.045000    0.045000    0.045000
     0.045000    0.045000    0.045001    0.045003    0.045006    0.045008
     0.045025    0.045095    0.045299    0.046188    0.093014    0.093914
     0.094233    0.094404    0.113350    0.113854    0.116858    0.116890
     0.159465    0.159978    0.159999    0.161278    0.164179    0.224667
     0.244632    0.245176    0.249042    0.249464    0.249643    0.249914
     0.249994    0.249997    0.250000    0.250606    0.285840    0.319015
     0.321813    0.341631    0.341823    0.342489    0.342558    0.342803
     0.342940    0.342986    0.343288    0.343421    0.343588    0.344075
     0.344421    0.344749    0.348610    0.349827    0.378355    0.399826
     0.408229    0.413488    0.416872    0.438991    0.446715    0.457439
     0.463877    0.486178    0.536540    0.959532    1.008562    1.022776
     1.043952

 Minimum Search - Taking P-RFO Step
 Searching for Lamda that Maximizes Along the Constraint modes Only
 Value Taken    Lamda =   0.00002161
 Searching for Lamda that Minimizes Along All other modes
 Value Taken    Lamda =  -0.00086465
 Step Taken.  Stepsize is  0.110190

                             Maximum     Tolerance    Cnvgd?
         Gradient            0.006557       0.000300      NO
         Displacement        0.029071       0.001200      NO
         Energy change     -0.004015       0.000001      NO


 New Cartesian Coordinates Obtained by Inverse Iteration

 Displacement from previous Coordinates is:  0.283282
 Adding empirical dispersion correction 
 ----------------------------------------------------------------
 Doing -D3(op) with
 s6 =   1.00000
 s8 =   0.78311
 a1 =   0.30000
 a2 =   4.25000
 n  =  10.00000
 -D3 energy without 3body term =     -0.0327296320 hartrees
 ----------------------------------------------------------------
             Standard Nuclear Orientation (Angstroms)
    I     Atom           X                Y                Z
 ----------------------------------------------------------------
    1      C       0.3876769255    -0.6975736684    -0.0495963009
    2      C      -0.9569623340    -0.2400776684    -0.0098303871
    3      C       1.4758765184     0.3653501767    -0.3048641687
    4      C      -1.2415734991     1.2686041466    -0.1997567623
    5      O       2.6262824109     0.1155351062     0.5098965792
    6      O       1.3804059630     1.3371101879    -1.0939153959
    7      O      -0.6140648748     1.9915460384     0.8701738891
    8      O      -1.9309437361     1.8042950562    -1.0976231290
    9      C      -0.8078448008     3.4496121828     0.6825601651
   10      C       3.6568074534     1.1540684620     0.2665429112
   11      C       0.6782033377    -2.0888027161     0.0333241355
   12      C      -0.4038462822    -2.9851318953     0.1889194223
   13      C      -1.7338494180    -2.5292409480     0.2379645771
   14      C      -2.0364039519    -1.1536308518     0.1280477505
   15      H      -0.3769779294     3.7929636391    -0.2800366472
   16      H       4.0030545118     1.1459454849    -0.7873664929
   17      H      -2.5525491285    -3.2531479463     0.3515978502
   18      H      -1.8821690941     3.7251877123     0.7042934676
   19      H      -0.2822411259     3.9404885402     1.5224535610
   20      H       4.5015268200     0.9104288328     0.9369202704
   21      H       3.2746909965     2.1684941022     0.5007392727
   22      H      -0.1990218735    -4.0620639395     0.2597945523
   23      C      -3.4951853379    -0.6640083795     0.1411260648
   24      C       2.1154579901    -2.6344330293    -0.0418352071
   25      H       2.6891681943    -2.1292760429    -0.8344364118
   26      H       2.0976688963    -3.7150433570    -0.2486604730
   27      H       2.6450292949    -2.4690922599     0.9117041672
   28      H      -3.7810623850    -0.2851615691    -0.8549137503
   29      H      -3.6276024632     0.1586172230     0.8622560751
   30      H      -4.1733573890    -1.4859814986     0.4136560379
 ----------------------------------------------------------------
 Molecular Point Group                 C1    NOp =  1
 Largest Abelian Subgroup              C1    NOp =  1
 Nuclear Repulsion Energy =  1117.4403049256 hartrees
 There are       59 alpha and       59 beta electrons
 Applying Cartesian multipole field
    Component          Value
    ---------          -----
     (2,0,0)        1.00000E-11
     (0,2,0)        2.00000E-11
     (0,0,2)       -3.00000E-10
 Nucleus-field energy     =     0.0000000056 hartrees
 Requested basis set is STO-3G
 There are 46 shells and 94 basis functions
 A cutoff of  1.0D-12 yielded    913 shell pairs
 There are      4285 function pairs
 Smallest overlap matrix eigenvalue = 1.83E-01
 Guess MOs from SCF MO coefficient file
 Reading MOs from coefficient file
 Reading MOs from coefficient file
 A restricted hybrid HF-DFT SCF calculation will be
 performed using Pulay DIIS extrapolation
 Exchange:     0.2000 Hartree-Fock + 0.0800 Slater + 0.7200 B88
 Correlation:  0.1900 VWN1RPA + 0.8100 LYP
 Using SG-1 standard quadrature grid
 Dispersion:   Grimme D3
 SCF converges when DIIS error is below 1.0E-08
 Geometry optimization detected.  Setting ReadMinima to 0
 Setting SaveMinima to 0
 -------------------------------------------------------
 OpenMP Integral computing Module                
 Release: version 1.0, May 2013, Q-Chem Inc. Pittsburgh 
 -------------------------------------------------------
 -------------------------------------------------------
 OpenMP BLAS3 based DFT computing Module                
 Release: version 1.0, May 2013, Q-Chem Inc. Pittsburgh 
 -------------------------------------------------------
 ---------------------------------------
  Cycle       Energy         DIIS Error
 ---------------------------------------
    1    -756.7989552975      2.00E-03
    2    -756.8077186452      3.14E-04
    3    -756.8071745243      7.32E-04
    4    -756.8078613619      6.81E-05
    5    -756.8078665891      2.97E-05
    6    -756.8078676463      1.04E-05
    7    -756.8078677583      5.81E-06
    8    -756.8078678005      1.32E-06
    9    -756.8078678027      4.80E-07
   10    -756.8078678031      1.11E-07
   11    -756.8078678031      2.39E-08
   12    -756.8078678031      1.07E-08
   13    -756.8078678031      3.55E-09 Convergence criterion met
 ---------------------------------------
 SCF time:  CPU 76.69 s  wall 3.27 s
 SCF   energy in the final basis set = -756.8078678031
 Total energy in the final basis set = -756.8078678031
 
 --------------------------------------------------------------
 
                    Orbital Energies (a.u.)
 --------------------------------------------------------------
 
 Alpha MOs
 -- Occupied --
-18.937 -18.929 -18.873 -18.872 -10.103 -10.099 -10.066 -10.059
-10.025 -10.024 -10.023 -10.022 -10.018 -10.018 -10.010 -10.009
 -1.012  -1.003  -0.935  -0.930  -0.815  -0.745  -0.719  -0.680
 -0.668  -0.656  -0.621  -0.584  -0.556  -0.495  -0.488  -0.447
 -0.441  -0.431  -0.412  -0.409  -0.405  -0.389  -0.381  -0.376
 -0.371  -0.367  -0.355  -0.348  -0.345  -0.337  -0.318  -0.309
 -0.306  -0.290  -0.283  -0.254  -0.250  -0.195  -0.183  -0.178
 -0.171  -0.154  -0.148
 -- Virtual --
  0.053   0.070   0.116   0.129   0.231   0.247   0.272   0.315
  0.338   0.346   0.368   0.382   0.400   0.413   0.421   0.427
  0.430   0.432   0.436   0.437   0.443   0.446   0.454   0.457
  0.464   0.475   0.482   0.547   0.557   0.574   0.602   0.647
  0.651   0.757   0.769
 --------------------------------------------------------------
 
          Ground-State Mulliken Net Atomic Charges

     Atom                 Charge (a.u.)
  ----------------------------------------
      1 C                    -0.019580
      2 C                    -0.016552
      3 C                     0.208723
      4 C                     0.211422
      5 O                    -0.164695
      6 O                    -0.211942
      7 O                    -0.168517
      8 O                    -0.207031
      9 C                    -0.129126
     10 C                    -0.128175
     11 C                     0.009247
     12 C                    -0.079177
     13 C                    -0.078339
     14 C                     0.008453
     15 H                     0.092734
     16 H                     0.088737
     17 H                     0.079942
     18 H                     0.087341
     19 H                     0.088807
     20 H                     0.090978
     21 H                     0.090572
     22 H                     0.079232
     23 C                    -0.224465
     24 C                    -0.221824
     25 H                     0.084299
     26 H                     0.079698
     27 H                     0.091582
     28 H                     0.092823
     29 H                     0.084135
     30 H                     0.080698
  ----------------------------------------
  Sum of atomic charges =     0.000000

 -----------------------------------------------------------------
                    Cartesian Multipole Moments
 -----------------------------------------------------------------
    Charge (ESU x 10^10)
                -0.0000
    Dipole Moment (Debye)
         X       1.0099      Y      -0.5298      Z       1.2367
       Tot       1.6822
    Quadrupole Moments (Debye-Ang)
        XX     -77.0984     XY       2.7453     YY     -77.5986
        XZ      -2.3560     YZ       4.0735     ZZ     -90.1766
    Octopole Moments (Debye-Ang^2)
       XXX      27.8992    XXY       8.6113    XYY       2.5504
       YYY      31.6404    XXZ       3.0730    XYZ      -1.2970
       YYZ       8.9286    XZZ       7.1882    YZZ       8.2911
       ZZZ     -10.5713
    Hexadecapole Moments (Debye-Ang^3)
      XXXX   -2020.2949   XXXY      41.3927   XXYY    -672.4705
      XYYY     -24.4869   YYYY   -1844.7435   XXXZ      -5.8318
      XXYZ      12.7611   XYYZ      -9.9006   YYYZ      19.1070
      XXZZ    -399.5530   XYZZ      -6.0612   YYZZ    -382.6905
      XZZZ       0.9386   YZZZ       0.7831   ZZZZ    -217.8268
 -----------------------------------------------------------------
 Calculating analytic gradient of the SCF energy
 Gradient of SCF Energy
            1           2           3           4           5           6
    1  -0.0012440   0.0000879  -0.0002981   0.0020738  -0.0006650   0.0000434
    2  -0.0008981  -0.0009274  -0.0013054  -0.0016295   0.0002380   0.0009748
    3   0.0013068   0.0026890  -0.0001711  -0.0007136   0.0001965  -0.0013102
            7           8           9          10          11          12
    1  -0.0009705  -0.0008373   0.0004700   0.0014683  -0.0002006  -0.0000652
    2  -0.0003995   0.0010634   0.0015253   0.0003371  -0.0001877   0.0002495
    3   0.0001087  -0.0012788   0.0009052   0.0006669  -0.0019512   0.0001605
           13          14          15          16          17          18
    1   0.0001090  -0.0002080  -0.0002939  -0.0000680  -0.0001316   0.0000341
    2   0.0000335  -0.0000825   0.0000441   0.0002140  -0.0000471   0.0000470
    3  -0.0001314  -0.0001382  -0.0000919  -0.0000645  -0.0000433  -0.0001364
           19          20          21          22          23          24
    1   0.0001065   0.0003278   0.0000751   0.0000830  -0.0004595   0.0004590
    2   0.0003889   0.0001854   0.0000183  -0.0000435   0.0000050   0.0000188
    3   0.0000462   0.0000240  -0.0002027   0.0001610  -0.0000355   0.0000155
           25          26          27          28          29          30
    1  -0.0000179  -0.0001543   0.0000616   0.0000192   0.0001210   0.0000741
    2   0.0002125   0.0000170  -0.0001014  -0.0000479   0.0001807  -0.0000833
    3   0.0000257  -0.0000790   0.0000900  -0.0000414  -0.0001619   0.0001554
 Max gradient component =       2.689E-03
 RMS gradient           =       6.717E-04
 Gradient time:  CPU 17.90 s  wall 0.76 s
 Geometry Optimization Parameters
   NAtoms,    NIC,     NZ,  NCons,   NDum,   NFix, NCnnct, MaxDiis
       30     194       0       2       0       0       0       0

 Cartesian Hessian Update
 Hessian Updated using BFGS Update


** CONSTRAINED OPTIMIZATION IN DELOCALIZED INTERNAL COORDINATES **
   Searching for a Minimum

   Optimization Cycle:   4

                       Coordinates (Angstroms)
     ATOM                X               Y               Z
      1  C         0.3876769255   -0.6975736684   -0.0495963009
      2  C        -0.9569623340   -0.2400776684   -0.0098303871
      3  C         1.4758765184    0.3653501767   -0.3048641687
      4  C        -1.2415734991    1.2686041466   -0.1997567623
      5  O         2.6262824109    0.1155351062    0.5098965792
      6  O         1.3804059630    1.3371101879   -1.0939153959
      7  O        -0.6140648748    1.9915460384    0.8701738891
      8  O        -1.9309437361    1.8042950562   -1.0976231290
      9  C        -0.8078448008    3.4496121828    0.6825601651
     10  C         3.6568074534    1.1540684620    0.2665429112
     11  C         0.6782033377   -2.0888027161    0.0333241355
     12  C        -0.4038462822   -2.9851318953    0.1889194223
     13  C        -1.7338494180   -2.5292409480    0.2379645771
     14  C        -2.0364039519   -1.1536308518    0.1280477505
     15  H        -0.3769779294    3.7929636391   -0.2800366472
     16  H         4.0030545118    1.1459454849   -0.7873664929
     17  H        -2.5525491285   -3.2531479463    0.3515978502
     18  H        -1.8821690941    3.7251877123    0.7042934676
     19  H        -0.2822411259    3.9404885402    1.5224535610
     20  H         4.5015268200    0.9104288328    0.9369202704
     21  H         3.2746909965    2.1684941022    0.5007392727
     22  H        -0.1990218735   -4.0620639395    0.2597945523
     23  C        -3.4951853379   -0.6640083795    0.1411260648
     24  C         2.1154579901   -2.6344330293   -0.0418352071
     25  H         2.6891681943   -2.1292760429   -0.8344364118
     26  H         2.0976688963   -3.7150433570   -0.2486604730
     27  H         2.6450292949   -2.4690922599    0.9117041672
     28  H        -3.7810623850   -0.2851615691   -0.8549137503
     29  H        -3.6276024632    0.1586172230    0.8622560751
     30  H        -4.1733573890   -1.4859814986    0.4136560379
   Point Group: c1    Number of degrees of freedom:    84


   Energy is   -756.807867803

              Constraints and their Current Values
                                        Value     Constraint
   Dihedral:        2   1   3   5      140.200      140.200
   Dihedral:        1   2   4   7      -62.300      -62.300
 Hessian Updated using BFGS Update

   Using Lagrange Multiplier Algorithm


 76 Hessian modes will be used to form the next step
  Hessian Eigenvalues:
    -0.977778   -0.972339    0.029788    0.045000    0.045000    0.045000
     0.045000    0.045000    0.045001    0.045003    0.045005    0.045007
     0.045018    0.045041    0.045103    0.045298    0.048465    0.093292
     0.093993    0.094234    0.094398    0.113853    0.114742    0.116861
     0.116884    0.159482    0.159978    0.159999    0.160410    0.161241
     0.164308    0.224667    0.243369    0.246980    0.249182    0.249436
     0.249640    0.249991    0.249996    0.249998    0.250000    0.250523
     0.250634    0.300627    0.319026    0.321835    0.341630    0.341781
     0.342544    0.342586    0.342906    0.342940    0.343027    0.343295
     0.343466    0.343806    0.344142    0.344424    0.347577    0.348820
     0.349876    0.375407    0.408072    0.409803    0.413492    0.438104
     0.444636    0.452283    0.459266    0.465636    0.536519    0.548252
     0.959156    0.995231    1.022814    1.040834

 Minimum Search - Taking P-RFO Step
 Searching for Lamda that Maximizes Along the Constraint modes Only
 Value Taken    Lamda =   0.00000241
 Searching for Lamda that Minimizes Along All other modes
 Value Taken    Lamda =  -0.00014870
 Step Taken.  Stepsize is  0.051192

                             Maximum     Tolerance    Cnvgd?
         Gradient            0.003495       0.000300      NO
         Displacement        0.016685       0.001200      NO
         Energy change     -0.000466       0.000001      NO


 New Cartesian Coordinates Obtained by Inverse Iteration

 Displacement from previous Coordinates is:  0.088343
 Adding empirical dispersion correction 
 ----------------------------------------------------------------
 Doing -D3(op) with
 s6 =   1.00000
 s8 =   0.78311
 a1 =   0.30000
 a2 =   4.25000
 n  =  10.00000
 -D3 energy without 3body term =     -0.0327359703 hartrees
 ----------------------------------------------------------------
             Standard Nuclear Orientation (Angstroms)
    I     Atom           X                Y                Z
 ----------------------------------------------------------------
    1      C       0.3890207251    -0.6948016727    -0.0630883903
    2      C      -0.9564784115    -0.2372440617    -0.0179726230
    3      C       1.4785259071     0.3674300924    -0.3071065587
    4      C      -1.2465072915     1.2705885935    -0.2005962433
    5      O       2.6283620556     0.1059417259     0.5054507160
    6      O       1.3849364527     1.3492199193    -1.0825856684
    7      O      -0.6173988318     1.9901301343     0.8713537916
    8      O      -1.9390430562     1.8073751333    -1.0938315802
    9      C      -0.8125158239     3.4464267982     0.6792532946
   10      C       3.6564288318     1.1465998642     0.2657977333
   11      C       0.6794120046    -2.0858432748     0.0293548583
   12      C      -0.4021305306    -2.9829699303     0.1847549885
   13      C      -1.7319228941    -2.5276597530     0.2339022426
   14      C      -2.0343320634    -1.1520415947     0.1246577479
   15      H      -0.3764347530     3.7875511530    -0.2818276614
   16      H       4.0004744643     1.1450573467    -0.7888159989
   17      H      -2.5499982141    -3.2514798256     0.3511807800
   18      H      -1.8870720223     3.7213895271     0.6967721687
   19      H      -0.2905663241     3.9377254099     1.5207040481
   20      H       4.5018402616     0.8974550141     0.9327429630
   21      H       3.2738694837     2.1588056621     0.5089698683
   22      H      -0.1969964649    -4.0596443266     0.2574266186
   23      C      -3.4928428628    -0.6619530429     0.1454914025
   24      C       2.1165863098    -2.6320516136    -0.0384974513
   25      H       2.6931586302    -2.1331484004    -0.8328716024
   26      H       2.1009186943    -3.7142541802    -0.2363279649
   27      H       2.6430391513    -2.4582114860     0.9151788408
   28      H      -3.7827506060    -0.2793874729    -0.8479637802
   29      H      -3.6222347290     0.1582566232     0.8699008730
   30      H      -4.1711544032    -1.4836812405     0.4177282100
 ----------------------------------------------------------------
 Molecular Point Group                 C1    NOp =  1
 Largest Abelian Subgroup              C1    NOp =  1
 Nuclear Repulsion Energy =  1117.7544421532 hartrees
 There are       59 alpha and       59 beta electrons
 Applying Cartesian multipole field
    Component          Value
    ---------          -----
     (2,0,0)        1.00000E-11
     (0,2,0)        2.00000E-11
     (0,0,2)       -3.00000E-10
 Nucleus-field energy     =     0.0000000059 hartrees
 Requested basis set is STO-3G
 There are 46 shells and 94 basis functions
 A cutoff of  1.0D-12 yielded    914 shell pairs
 There are      4286 function pairs
 Smallest overlap matrix eigenvalue = 1.83E-01
 Guess MOs from SCF MO coefficient file
 Reading MOs from coefficient file
 Reading MOs from coefficient file
 A restricted hybrid HF-DFT SCF calculation will be
 performed using Pulay DIIS extrapolation
 Exchange:     0.2000 Hartree-Fock + 0.0800 Slater + 0.7200 B88
 Correlation:  0.1900 VWN1RPA + 0.8100 LYP
 Using SG-1 standard quadrature grid
 Dispersion:   Grimme D3
 SCF converges when DIIS error is below 1.0E-08
 Geometry optimization detected.  Setting ReadMinima to 0
 Setting SaveMinima to 0
 -------------------------------------------------------
 OpenMP Integral computing Module                
 Release: version 1.0, May 2013, Q-Chem Inc. Pittsburgh 
 -------------------------------------------------------
 -------------------------------------------------------
 OpenMP BLAS3 based DFT computing Module                
 Release: version 1.0, May 2013, Q-Chem Inc. Pittsburgh 
 -------------------------------------------------------
 ---------------------------------------
  Cycle       Energy         DIIS Error
 ---------------------------------------
    1    -756.8089907224      6.35E-04
    2    -756.8079625710      3.32E-05
    3    -756.8079651049      2.42E-05
    4    -756.8079652603      2.29E-05
    5    -756.8079658819      6.44E-06
    6    -756.8079659338      1.58E-06
    7    -756.8079659374      5.27E-07
    8    -756.8079659377      3.20E-07
    9    -756.8079659379      8.09E-08
   10    -756.8079659379      3.24E-08
   11    -756.8079659379      5.71E-09 Convergence criterion met
 ---------------------------------------
 SCF time:  CPU 61.50 s  wall 2.62 s
 SCF   energy in the final basis set = -756.8079659379
 Total energy in the final basis set = -756.8079659379
 
 --------------------------------------------------------------
 
                    Orbital Energies (a.u.)
 --------------------------------------------------------------
 
 Alpha MOs
 -- Occupied --
-18.937 -18.929 -18.874 -18.873 -10.103 -10.099 -10.065 -10.059
-10.025 -10.024 -10.024 -10.022 -10.018 -10.018 -10.010 -10.009
 -1.012  -1.004  -0.935  -0.931  -0.815  -0.745  -0.719  -0.680
 -0.668  -0.656  -0.621  -0.584  -0.556  -0.495  -0.488  -0.447
 -0.441  -0.432  -0.412  -0.409  -0.405  -0.389  -0.381  -0.376
 -0.371  -0.367  -0.355  -0.348  -0.345  -0.337  -0.318  -0.310
 -0.306  -0.290  -0.283  -0.255  -0.251  -0.195  -0.183  -0.178
 -0.171  -0.154  -0.149
 -- Virtual --
  0.053   0.070   0.116   0.129   0.231   0.249   0.273   0.315
  0.338   0.345   0.368   0.382   0.400   0.413   0.421   0.427
  0.431   0.433   0.436   0.437   0.443   0.446   0.454   0.457
  0.464   0.476   0.483   0.547   0.558   0.574   0.602   0.648
  0.652   0.757   0.769
 --------------------------------------------------------------
 
          Ground-State Mulliken Net Atomic Charges

     Atom                 Charge (a.u.)
  ----------------------------------------
      1 C                    -0.019743
      2 C                    -0.016576
      3 C                     0.208797
      4 C                     0.211826
      5 O                    -0.164637
      6 O                    -0.212167
      7 O                    -0.168279
      8 O                    -0.206996
      9 C                    -0.129210
     10 C                    -0.128231
     11 C                     0.009373
     12 C                    -0.079191
     13 C                    -0.078358
     14 C                     0.008455
     15 H                     0.092745
     16 H                     0.088729
     17 H                     0.080012
     18 H                     0.087417
     19 H                     0.088668
     20 H                     0.090794
     21 H                     0.090642
     22 H                     0.079275
     23 C                    -0.224580
     24 C                    -0.221875
     25 H                     0.084302
     26 H                     0.079590
     27 H                     0.091715
     28 H                     0.092746
     29 H                     0.084081
     30 H                     0.080677
  ----------------------------------------
  Sum of atomic charges =     0.000000

 -----------------------------------------------------------------
                    Cartesian Multipole Moments
 -----------------------------------------------------------------
    Charge (ESU x 10^10)
                -0.0000
    Dipole Moment (Debye)
         X       1.0018      Y      -0.5429      Z       1.2290
       Tot       1.6759
    Quadrupole Moments (Debye-Ang)
        XX     -77.1739     XY       2.7161     YY     -77.7198
        XZ      -2.3668     YZ       4.0351     ZZ     -90.1160
    Octopole Moments (Debye-Ang^2)
       XXX      27.7741    XXY       8.3992    XYY       2.4212
       YYY      31.0783    XXZ       3.2092    XYZ      -1.2908
       YYZ       9.0369    XZZ       7.2386    YZZ       8.2804
       ZZZ     -10.3114
    Hexadecapole Moments (Debye-Ang^3)
      XXXX   -2023.0611   XXXY      42.7180   XXYY    -672.9073
      XYYY     -22.7691   YYYY   -1843.7145   XXXZ      -6.1165
      XXYZ      12.6972   XYYZ      -9.9192   YYYZ      18.7219
      XXZZ    -399.5568   XYZZ      -5.3724   YYZZ    -382.0952
      XZZZ       0.8480   YZZZ       0.5785   ZZZZ    -216.5407
 -----------------------------------------------------------------
 Calculating analytic gradient of the SCF energy
 Gradient of SCF Energy
            1           2           3           4           5           6
    1  -0.0001617  -0.0003546   0.0001253   0.0003951  -0.0001541   0.0001546
    2  -0.0004509   0.0001411  -0.0002645  -0.0002686  -0.0002532   0.0001057
    3  -0.0003304   0.0028138  -0.0008725  -0.0019576   0.0010218  -0.0003947
            7           8           9          10          11          12
    1  -0.0002922  -0.0000030   0.0000510   0.0006657  -0.0000862  -0.0002278
    2  -0.0000761   0.0002018   0.0007588   0.0003790  -0.0001135   0.0000630
    3   0.0012121  -0.0001458   0.0001211  -0.0000428  -0.0010396   0.0001132
           13          14          15          16          17          18
    1   0.0001618   0.0000155  -0.0001019  -0.0000297  -0.0000074  -0.0000196
    2  -0.0001113  -0.0002074  -0.0000637   0.0000556  -0.0000184   0.0000113
    3  -0.0002372  -0.0000952  -0.0001241  -0.0000709   0.0000389   0.0000183
           19          20          21          22          23          24
    1   0.0000286  -0.0000671  -0.0000802  -0.0000072  -0.0002802   0.0001122
    2  -0.0000761  -0.0000362   0.0000137  -0.0000255  -0.0001250  -0.0000740
    3  -0.0000808  -0.0000499  -0.0000318   0.0000660   0.0001291  -0.0000685
           25          26          27          28          29          30
    1   0.0000287   0.0000199   0.0000157  -0.0000058   0.0000646   0.0000401
    2   0.0001667   0.0001047  -0.0000516  -0.0000546   0.0001618   0.0001076
    3   0.0001188  -0.0000469   0.0000662  -0.0000431  -0.0001869   0.0000995
 Max gradient component =       2.814E-03
 RMS gradient           =       4.609E-04
 Gradient time:  CPU 17.36 s  wall 0.73 s
 Geometry Optimization Parameters
   NAtoms,    NIC,     NZ,  NCons,   NDum,   NFix, NCnnct, MaxDiis
       30     194       0       2       0       0       0       0

 Cartesian Hessian Update
 Hessian Updated using BFGS Update


** CONSTRAINED OPTIMIZATION IN DELOCALIZED INTERNAL COORDINATES **
   Searching for a Minimum

   Optimization Cycle:   5

                       Coordinates (Angstroms)
     ATOM                X               Y               Z
      1  C         0.3890207251   -0.6948016727   -0.0630883903
      2  C        -0.9564784115   -0.2372440617   -0.0179726230
      3  C         1.4785259071    0.3674300924   -0.3071065587
      4  C        -1.2465072915    1.2705885935   -0.2005962433
      5  O         2.6283620556    0.1059417259    0.5054507160
      6  O         1.3849364527    1.3492199193   -1.0825856684
      7  O        -0.6173988318    1.9901301343    0.8713537916
      8  O        -1.9390430562    1.8073751333   -1.0938315802
      9  C        -0.8125158239    3.4464267982    0.6792532946
     10  C         3.6564288318    1.1465998642    0.2657977333
     11  C         0.6794120046   -2.0858432748    0.0293548583
     12  C        -0.4021305306   -2.9829699303    0.1847549885
     13  C        -1.7319228941   -2.5276597530    0.2339022426
     14  C        -2.0343320634   -1.1520415947    0.1246577479
     15  H        -0.3764347530    3.7875511530   -0.2818276614
     16  H         4.0004744643    1.1450573467   -0.7888159989
     17  H        -2.5499982141   -3.2514798256    0.3511807800
     18  H        -1.8870720223    3.7213895271    0.6967721687
     19  H        -0.2905663241    3.9377254099    1.5207040481
     20  H         4.5018402616    0.8974550141    0.9327429630
     21  H         3.2738694837    2.1588056621    0.5089698683
     22  H        -0.1969964649   -4.0596443266    0.2574266186
     23  C        -3.4928428628   -0.6619530429    0.1454914025
     24  C         2.1165863098   -2.6320516136   -0.0384974513
     25  H         2.6931586302   -2.1331484004   -0.8328716024
     26  H         2.1009186943   -3.7142541802   -0.2363279649
     27  H         2.6430391513   -2.4582114860    0.9151788408
     28  H        -3.7827506060   -0.2793874729   -0.8479637802
     29  H        -3.6222347290    0.1582566232    0.8699008730
     30  H        -4.1711544032   -1.4836812405    0.4177282100
   Point Group: c1    Number of degrees of freedom:    84


   Energy is   -756.807965938

              Constraints and their Current Values
                                        Value     Constraint
   Dihedral:        2   1   3   5      140.200      140.200
   Dihedral:        1   2   4   7      -62.300      -62.300
 Hessian Updated using BFGS Update

 74 Hessian modes will be used to form the next step
  Hessian Eigenvalues:
     0.018628    0.044691    0.045000    0.045000    0.045000    0.045000
     0.045000    0.045001    0.045002    0.045004    0.045007    0.045008
     0.045038    0.045080    0.045274    0.046633    0.093328    0.093898
[...]
 H         -0.004  0.003  0.000   -0.003 -0.007  0.006    0.001 -0.139  0.032
 H         -0.006 -0.002  0.006   -0.003 -0.009  0.001    0.161  0.086 -0.067
 H         -0.012  0.002  0.005   -0.013 -0.001 -0.005    0.111 -0.019  0.054
 H         -0.327  0.183  0.024   -0.490 -0.045  0.058    0.007 -0.000  0.000
 C         -0.003 -0.027  0.002   -0.030  0.008  0.004   -0.002 -0.007  0.002
 C          0.022  0.014 -0.003    0.022 -0.023 -0.003   -0.002 -0.001  0.001
 H          0.194 -0.056  0.100    0.050  0.000  0.026    0.013 -0.015  0.005
 H         -0.239  0.099 -0.025    0.002 -0.016  0.015   -0.002  0.006 -0.025
 H          0.152  0.056 -0.095    0.053 -0.018 -0.030    0.006  0.033 -0.003
 H          0.015 -0.179 -0.074   -0.010  0.051  0.024    0.047  0.029  0.003
 H          0.110 -0.147  0.119   -0.002  0.043 -0.040    0.017  0.021 -0.028
 H         -0.177  0.193 -0.026   -0.016 -0.007 -0.009    0.022 -0.025  0.012
 TransDip  -0.060  0.101 -0.013   -0.044  0.005 -0.018   -0.261 -0.026  0.181

 Mode:                70                     71                     72
 Frequency:      1778.39                3034.88                3041.21
 Force Cnst:     21.8363                 5.6223                 5.6436
 Red. Mass:      11.7185                 1.0361                 1.0356
 IR Active:          YES                    YES                    YES
 IR Intens:      421.381                 24.316                 23.330
 Raman Active:       YES                    YES                    YES
               X      Y      Z        X      Y      Z        X      Y      Z
 C         -0.053 -0.039  0.023   -0.000  0.001 -0.000    0.000 -0.000  0.000
 C          0.044 -0.062  0.010    0.000 -0.000  0.000   -0.001 -0.000  0.000
 C          0.140  0.238 -0.363    0.000 -0.000  0.000   -0.000 -0.000 -0.000
 C         -0.359  0.418 -0.320    0.000  0.000  0.000    0.000 -0.000  0.000
 O         -0.001 -0.014  0.026   -0.000  0.000 -0.000    0.000  0.000  0.000
 O         -0.072 -0.149  0.242   -0.000 -0.000  0.000    0.000  0.000 -0.000
 O          0.026 -0.019  0.023   -0.000 -0.000 -0.000    0.000  0.000 -0.000
 O          0.239 -0.249  0.218    0.000 -0.000  0.000   -0.000  0.000 -0.000
 C         -0.000  0.025 -0.007   -0.000 -0.000  0.000   -0.000  0.000 -0.000
 C          0.016  0.008 -0.007   -0.000  0.000  0.000    0.000  0.000 -0.000
 C          0.008  0.016 -0.003   -0.000  0.000 -0.000   -0.000  0.000  0.000
 C         -0.011  0.004 -0.000   -0.001  0.001 -0.000    0.000 -0.000  0.000
 C          0.014 -0.011 -0.002    0.000 -0.000  0.000   -0.002 -0.000  0.000
 C         -0.026  0.016 -0.003   -0.000  0.000  0.000   -0.000  0.001 -0.000
 H         -0.055 -0.090 -0.062    0.001  0.001 -0.003   -0.002 -0.001  0.006
 H         -0.069 -0.012 -0.054    0.000 -0.001 -0.001   -0.002  0.003  0.005
 H         -0.012  0.037  0.001   -0.000 -0.000 -0.000    0.017  0.006 -0.003
 H         -0.095 -0.074 -0.026   -0.003  0.002  0.001    0.006 -0.004 -0.002
 H         -0.002 -0.182  0.043    0.002  0.000  0.002   -0.004 -0.001 -0.003
 H         -0.114 -0.059  0.049   -0.000  0.000 -0.000   -0.002  0.001 -0.004
 H         -0.075  0.013 -0.040    0.000 -0.002  0.000    0.000 -0.006  0.001
 H          0.012  0.002  0.000   -0.000 -0.012  0.001    0.000 -0.001 -0.000
 C         -0.005 -0.007  0.003    0.000 -0.000 -0.000    0.041 -0.027 -0.010
 C          0.001 -0.000 -0.000    0.045 -0.023 -0.008   -0.000  0.000  0.000
 H         -0.019  0.014 -0.011   -0.366 -0.170  0.512    0.003  0.001 -0.004
 H          0.012 -0.009  0.017    0.157  0.465  0.059   -0.001 -0.002 -0.000
 H         -0.013 -0.024  0.009   -0.315 -0.034 -0.477    0.002  0.000  0.003
 H          0.076  0.043  0.000   -0.000  0.001 -0.002   -0.092  0.209 -0.456
 H          0.029  0.035 -0.039    0.001  0.003  0.002    0.062  0.460  0.421
 H          0.041 -0.048  0.019   -0.004 -0.003  0.001   -0.447 -0.349  0.151
 TransDip  -0.241  0.382 -0.477    0.114 -0.107 -0.023    0.143 -0.036 -0.046

 Mode:                73                     74                     75
 Frequency:      3050.11                3050.49                3090.37
 Force Cnst:      5.6430                 5.6436                 6.1918
 Red. Mass:       1.0295                 1.0294                 1.1004
 IR Active:          YES                    YES                    YES
 IR Intens:       20.939                 47.452                 10.730
 Raman Active:       YES                    YES                    YES
               X      Y      Z        X      Y      Z        X      Y      Z
 C         -0.000  0.000 -0.000    0.000 -0.000  0.000   -0.000 -0.000  0.000
 C          0.000  0.000  0.000    0.000  0.000  0.000    0.000 -0.000 -0.000
 C          0.001 -0.001  0.002   -0.001  0.000 -0.001   -0.000 -0.000 -0.000
 C         -0.001 -0.000 -0.001   -0.002 -0.000 -0.002    0.000  0.000 -0.000
 O         -0.003 -0.001 -0.000    0.001  0.000  0.000   -0.000 -0.000  0.000
 O          0.000  0.000 -0.001   -0.000 -0.000  0.000   -0.000 -0.000  0.000
 O          0.001  0.001  0.000    0.001  0.002  0.000   -0.000  0.000  0.000
 O          0.000 -0.000  0.000    0.001 -0.001  0.000   -0.000 -0.000  0.000
 C          0.001  0.017 -0.006    0.002  0.038 -0.013   -0.000 -0.000  0.000
 C         -0.033 -0.017  0.016    0.015  0.008 -0.007    0.000  0.000  0.000
 C          0.000  0.000 -0.000    0.000 -0.000  0.000   -0.000  0.000 -0.001
 C          0.000 -0.000 -0.000   -0.000  0.000 -0.000    0.000 -0.001 -0.000
 C         -0.000  0.000 -0.000    0.000  0.000 -0.000   -0.000  0.000 -0.000
 C         -0.000  0.000  0.000   -0.000  0.000 -0.000   -0.000 -0.000  0.000
 H         -0.073 -0.047  0.254   -0.159 -0.102  0.554    0.000  0.000 -0.001
 H          0.235 -0.247 -0.479   -0.108  0.113  0.220   -0.000  0.000  0.001
 H          0.000  0.000 -0.000   -0.001 -0.000  0.000   -0.001 -0.001  0.000
 H          0.205 -0.140 -0.065    0.447 -0.306 -0.143    0.000 -0.000 -0.000
 H         -0.143 -0.031 -0.118   -0.312 -0.067 -0.257    0.000  0.000  0.000
 H          0.202 -0.105  0.330   -0.093  0.048 -0.151   -0.001  0.001 -0.002
 H         -0.025  0.561 -0.052    0.011 -0.257  0.024    0.000 -0.004  0.000
 H         -0.000  0.000  0.000   -0.000 -0.001  0.000   -0.000  0.006 -0.001
 C          0.000 -0.000 -0.000   -0.000  0.001  0.000    0.000  0.000  0.000
 C         -0.000 -0.000 -0.000    0.000  0.000  0.000    0.003  0.020 -0.090
 H         -0.002 -0.001  0.002   -0.002 -0.001  0.002   -0.408 -0.179  0.535
 H          0.001  0.005  0.000    0.000  0.000  0.000   -0.034 -0.104 -0.033
 H          0.002  0.000  0.002   -0.003 -0.000 -0.004    0.408  0.046  0.571
 H         -0.000  0.001 -0.002    0.001 -0.003  0.007   -0.001  0.002 -0.004
 H          0.000  0.002  0.001   -0.001 -0.007 -0.006   -0.000 -0.003 -0.002
 H         -0.002 -0.002  0.001    0.005  0.004 -0.002   -0.000 -0.000  0.000
 TransDip  -0.144  0.029  0.005    0.126  0.181  0.013    0.010  0.039 -0.097

 Mode:                76                     77                     78
 Frequency:      3099.82                3108.37                3112.04
 Force Cnst:      6.2291                 6.2737                 6.2919
 Red. Mass:       1.1003                 1.1021                 1.1027
 IR Active:          YES                    YES                    YES
 IR Intens:       12.711                 17.551                 12.717
 Raman Active:       YES                    YES                    YES
               X      Y      Z        X      Y      Z        X      Y      Z
 C          0.000 -0.000 -0.000   -0.000 -0.000 -0.000   -0.000  0.000 -0.000
 C          0.000 -0.000  0.000   -0.000  0.000 -0.000    0.000  0.000  0.000
 C         -0.000 -0.000  0.000   -0.000  0.000 -0.000    0.000  0.000 -0.000
 C          0.000 -0.000  0.000   -0.000 -0.000 -0.000   -0.001  0.000 -0.000
 O          0.000  0.000  0.000    0.000 -0.000  0.000    0.000 -0.000  0.000
 O          0.000  0.000 -0.000    0.000 -0.000  0.000    0.000 -0.000  0.000
 O         -0.000 -0.000 -0.000    0.000  0.000  0.000    0.000  0.000  0.000
 O          0.000  0.000  0.000    0.000 -0.000  0.000    0.000 -0.000  0.000
 C         -0.000  0.000  0.000    0.000 -0.000 -0.000    0.000 -0.000  0.000
 C         -0.000  0.000  0.000    0.001 -0.001 -0.001    0.000 -0.000 -0.000
 C          0.000  0.000 -0.000   -0.001 -0.000 -0.000   -0.000 -0.000  0.000
 C         -0.000 -0.000  0.000    0.000  0.004 -0.000    0.000  0.001 -0.000
 C          0.002  0.001 -0.001   -0.000 -0.000  0.000   -0.004 -0.002  0.001
 C         -0.000 -0.001 -0.000    0.000  0.000 -0.000   -0.000  0.001 -0.000
 H          0.001  0.001 -0.003   -0.001 -0.000  0.002    0.001  0.000 -0.002
 H          0.000 -0.000 -0.001   -0.005  0.006  0.011   -0.000  0.000  0.001
 H         -0.019 -0.007  0.003    0.007  0.003 -0.001    0.043  0.018 -0.006
 H          0.004 -0.003 -0.001   -0.002  0.001  0.000   -0.001  0.001  0.000
 H          0.000  0.000  0.000   -0.001 -0.000 -0.001   -0.001 -0.000 -0.001
 H         -0.000  0.000  0.000   -0.001  0.000 -0.001   -0.000  0.000 -0.000
 H          0.000 -0.001  0.000   -0.001  0.006 -0.001   -0.000  0.002 -0.000
 H          0.000  0.004 -0.000   -0.002 -0.041  0.002   -0.001 -0.009  0.001
 C         -0.036 -0.045 -0.071   -0.000  0.000 -0.000    0.035  0.064 -0.057
 C          0.000  0.000 -0.000   -0.052 -0.074 -0.019    0.000  0.000 -0.000
 H         -0.003 -0.001  0.004    0.151  0.058 -0.229   -0.001 -0.000  0.001
 H         -0.001 -0.003 -0.001    0.259  0.813  0.104   -0.001 -0.003 -0.000
 H          0.001  0.000  0.002    0.227  0.007  0.347    0.001  0.000  0.001
 H          0.095 -0.243  0.461    0.001 -0.002  0.004    0.142 -0.278  0.601
 H          0.062  0.567  0.504    0.000  0.002  0.001   -0.004 -0.079 -0.101
 H          0.275  0.208 -0.110    0.000  0.000 -0.000   -0.553 -0.420  0.181
 TransDip  -0.058 -0.072 -0.067   -0.057 -0.120 -0.021    0.082  0.065 -0.046

 Mode:                79                     80                     81
 Frequency:      3122.34                3125.31                3156.35
 Force Cnst:      6.3573                 6.3721                 6.4942
 Red. Mass:       1.1068                 1.1073                 1.1064
 IR Active:          YES                    YES                    YES
 IR Intens:       18.038                 13.769                 13.120
 Raman Active:       YES                    YES                    YES
               X      Y      Z        X      Y      Z        X      Y      Z
 C          0.000 -0.000 -0.000   -0.000 -0.000  0.000    0.000 -0.000 -0.000
 C          0.000  0.000  0.000    0.000 -0.000 -0.000    0.000 -0.000  0.000
 C         -0.000  0.000  0.000    0.000  0.000 -0.000   -0.000  0.000 -0.000
 C         -0.000 -0.000 -0.000    0.000 -0.000  0.000   -0.000  0.001 -0.000
 O         -0.000  0.000  0.000   -0.000 -0.000  0.000    0.000  0.000  0.000
 O         -0.000  0.000  0.000   -0.000 -0.000  0.000    0.000 -0.000  0.000
 O          0.000  0.000  0.000   -0.000 -0.000  0.000    0.000 -0.000  0.000
 O          0.000  0.000  0.000   -0.000  0.000  0.000    0.000 -0.000  0.000
 C          0.002 -0.001 -0.002    0.061 -0.022 -0.069   -0.070  0.006 -0.063
 C          0.024 -0.081 -0.043   -0.001  0.002  0.002   -0.000 -0.000 -0.001
 C         -0.000 -0.000  0.000    0.000  0.000  0.000   -0.000 -0.000  0.000
 C          0.000 -0.000  0.000   -0.000 -0.000  0.000    0.000  0.000 -0.000
 C         -0.000  0.000 -0.000    0.000 -0.000  0.000   -0.000 -0.000  0.000
 C         -0.000 -0.000  0.000   -0.000  0.000  0.000   -0.000  0.000  0.000
 H         -0.004 -0.003  0.017   -0.172 -0.126  0.658   -0.098 -0.050  0.285
 H         -0.274  0.277  0.577    0.008 -0.008 -0.017   -0.002  0.002  0.004
 H          0.000  0.000 -0.000   -0.000 -0.000  0.000    0.002  0.001 -0.000
 H         -0.018  0.012  0.005   -0.574  0.392  0.165    0.247 -0.173 -0.094
 H         -0.003 -0.000 -0.003    0.024 -0.001 -0.003    0.679  0.145  0.562
 H          0.018 -0.023  0.014   -0.002  0.001 -0.003    0.002 -0.001  0.003
 H         -0.030  0.704 -0.085    0.001 -0.019  0.002    0.000  0.003 -0.001
 H          0.000  0.001 -0.000    0.000  0.001 -0.000   -0.000 -0.001  0.000
 C         -0.000 -0.000  0.000   -0.000 -0.000 -0.000    0.000  0.000 -0.000
 C          0.001  0.001  0.000    0.000  0.000  0.000   -0.000 -0.000 -0.000
 H         -0.004 -0.001  0.006   -0.001 -0.000  0.001    0.000  0.000 -0.000
 H         -0.003 -0.011 -0.001   -0.001 -0.002 -0.000    0.000  0.000  0.000
 H         -0.003  0.000 -0.005   -0.000  0.000 -0.001    0.000 -0.000  0.000
 H         -0.000  0.000 -0.001    0.001 -0.001  0.003    0.000 -0.000  0.001
 H          0.000  0.001  0.001    0.000  0.003  0.003    0.000 -0.001 -0.001
 H          0.002  0.001 -0.001    0.001  0.001 -0.000   -0.001 -0.001  0.001
 TransDip   0.035 -0.115 -0.064    0.070 -0.039 -0.088   -0.090 -0.015 -0.072

 Mode:                82                     83                     84
 Frequency:      3158.06                3160.94                3177.99
 Force Cnst:      6.5007                 6.3998                 6.5135
 Red. Mass:       1.1063                 1.0871                 1.0946
 IR Active:          YES                    YES                    YES
 IR Intens:       12.729                  8.196                 20.439
 Raman Active:       YES                    YES                    YES
               X      Y      Z        X      Y      Z        X      Y      Z
 C         -0.000 -0.000  0.000   -0.000  0.001 -0.000   -0.000  0.001 -0.000
 C         -0.000 -0.000  0.000   -0.001  0.000  0.000    0.001  0.000 -0.000
 C          0.001  0.001 -0.001    0.000  0.000  0.000    0.000  0.000 -0.000
 C          0.000 -0.000  0.000    0.000 -0.000  0.000   -0.000  0.000 -0.000
 O          0.000 -0.000  0.000   -0.000  0.000 -0.000   -0.000 -0.000 -0.000
 O         -0.000 -0.000  0.000   -0.000 -0.000  0.000   -0.000 -0.000  0.000
 O         -0.000  0.000  0.000    0.000  0.000  0.000   -0.000 -0.000 -0.000
 O         -0.000  0.000 -0.000   -0.000  0.000 -0.000    0.000 -0.000  0.000
 C          0.000 -0.000  0.000   -0.000 -0.000 -0.000    0.000  0.000  0.000
 C         -0.029  0.035 -0.083    0.000 -0.000  0.001    0.000 -0.000  0.000
 C         -0.000  0.000  0.000    0.002 -0.000 -0.000    0.003  0.000 -0.000
 C         -0.000 -0.001  0.000   -0.008 -0.059  0.004   -0.004 -0.063  0.003
 C          0.000  0.000 -0.000    0.053  0.027 -0.007   -0.057 -0.025  0.008
 C          0.000 -0.000 -0.000    0.001 -0.002  0.000   -0.001  0.003 -0.000
 H         -0.000 -0.000  0.001   -0.000  0.000  0.000   -0.000 -0.000  0.000
 H         -0.121  0.132  0.227    0.001 -0.001 -0.002    0.000 -0.000 -0.000
 H         -0.004 -0.002  0.001   -0.632 -0.299  0.086    0.632  0.293 -0.086
 H         -0.003  0.002  0.001    0.001 -0.000 -0.000    0.000 -0.000 -0.000
 H         -0.003 -0.001 -0.002    0.001  0.000  0.001   -0.001 -0.000 -0.001
 H          0.453 -0.236  0.739   -0.004  0.002 -0.007   -0.001  0.001 -0.002
 H          0.012 -0.317  0.015   -0.000  0.003 -0.000   -0.000 -0.000  0.000
 H          0.001  0.008 -0.000    0.073  0.697 -0.039    0.068  0.701 -0.039
 C          0.000  0.000 -0.000    0.003  0.003 -0.001   -0.002 -0.002  0.001
 C          0.000  0.000 -0.000   -0.001 -0.003 -0.000   -0.001 -0.002 -0.000
 H         -0.000  0.000  0.000    0.004  0.003 -0.006    0.001  0.002 -0.002
 H         -0.000 -0.000  0.000    0.009  0.033  0.004    0.006  0.024  0.003
 H         -0.000 -0.000  0.000    0.003  0.000  0.005    0.000  0.001  0.002
 H          0.000 -0.000  0.000    0.002 -0.004  0.010   -0.000  0.002 -0.005
 H          0.000  0.000 -0.000   -0.001 -0.007 -0.007    0.001  0.003  0.003
 H         -0.001 -0.000  0.000   -0.035 -0.023  0.011    0.026  0.017 -0.008
 TransDip  -0.056  0.034 -0.094    0.076 -0.051 -0.006   -0.084 -0.117  0.015

 STANDARD THERMODYNAMIC QUANTITIES AT   298.15 K  AND     1.00 ATM

   This Molecule has  0 Imaginary Frequencies
   Zero point vibrational energy:      150.401 kcal/mol

   Atom    1 Element C  Has Mass   12.00000
   Atom    2 Element C  Has Mass   12.00000
   Atom    3 Element C  Has Mass   12.00000
   Atom    4 Element C  Has Mass   12.00000
   Atom    5 Element O  Has Mass   15.99491
   Atom    6 Element O  Has Mass   15.99491
   Atom    7 Element O  Has Mass   15.99491
   Atom    8 Element O  Has Mass   15.99491
   Atom    9 Element C  Has Mass   12.00000
   Atom   10 Element C  Has Mass   12.00000
   Atom   11 Element C  Has Mass   12.00000
   Atom   12 Element C  Has Mass   12.00000
   Atom   13 Element C  Has Mass   12.00000
   Atom   14 Element C  Has Mass   12.00000
   Atom   15 Element H  Has Mass    1.00783
   Atom   16 Element H  Has Mass    1.00783
   Atom   17 Element H  Has Mass    1.00783
   Atom   18 Element H  Has Mass    1.00783
   Atom   19 Element H  Has Mass    1.00783
   Atom   20 Element H  Has Mass    1.00783
   Atom   21 Element H  Has Mass    1.00783
   Atom   22 Element H  Has Mass    1.00783
   Atom   23 Element C  Has Mass   12.00000
   Atom   24 Element C  Has Mass   12.00000
   Atom   25 Element H  Has Mass    1.00783
   Atom   26 Element H  Has Mass    1.00783
   Atom   27 Element H  Has Mass    1.00783
   Atom   28 Element H  Has Mass    1.00783
   Atom   29 Element H  Has Mass    1.00783
   Atom   30 Element H  Has Mass    1.00783
   Molecular Mass:   222.089260 amu
   Principal axes and moments of inertia in amu*Bohr^2:
                             1           2           3
    Eigenvalues --     2853.52258  3199.45183  5565.26998
          X               0.99994     0.01132     0.00103
          Y              -0.01133     0.99990     0.00800
          Z              -0.00094    -0.00801     0.99997
   Rotational Symmetry Number is   1
   The Molecule is an Asymmetric Top
   Translational Enthalpy:        0.889 kcal/mol
   Rotational Enthalpy:           0.889 kcal/mol
   Vibrational Enthalpy:        159.280 kcal/mol
   gas constant (RT):             0.592 kcal/mol
   Translational Entropy:        42.096  cal/mol.K
   Rotational Entropy:           32.296  cal/mol.K
   Vibrational Entropy:          59.309  cal/mol.K

   Total Enthalpy:              161.650 kcal/mol
   Total Entropy:               133.702  cal/mol.K
Archival summary:
1\1\nid03055\FREQ\ProcedureUnspecified\BasisUnspecified\41214\junteng\WedOct421:25:182017WedOct421:25:182017\0\\#,FREQ,ProcedureUnspecified,BasisUnspecified,\\0,1\O\C,1,1.35013\O,2,1.20725,1,123.42\C,1,1.43879,2,115.907,3,-7.55361,0\H,4,1.08775,1,105.394,2,178.944,0\H,4,1.09064,1,110.542,2,59.3029,0\H,4,1.0912,1,109.97,2,-61.6733,0\C,2,1.49604,1,111.396,3,-178.967,0\C,8,1.40677,2,120.164,1,-44.1117,0\C,9,1.4038,8,121.029,2,-178.911,0\C,10,1.39573,9,117.615,8,-0.921146,0\H,11,1.08505,10,119.107,9,179.761,0\C,11,1.38874,10,121.48,9,0.244197,0\H,13,1.08483,11,119.399,10,-179.775,0\C,13,1.39601,11,121.619,10,0.816763,0\C,9,1.50105,8,119.598,2,-4.55886,0\O,16,1.20745,9,124.393,8,-60.415,0\O,16,1.34525,9,111.75,8,121.555,0\C,18,1.43958,16,115.843,9,178.148,0\H,19,1.08761,18,105.417,16,179.183,0\H,19,1.09086,18,110.33,16,59.6232,0\H,19,1.09122,18,110.488,16,-61.1822,0\C,15,1.51014,13,119.407,11,179.145,0\H,23,1.09163,15,111.037,13,-111.636,0\H,23,1.09166,15,110.071,13,8.81962,0\H,23,1.09257,15,112.01,13,129.178,0\C,10,1.51061,9,122.473,8,177.881,0\H,27,1.09134,10,110.361,9,-167.385,0\H,27,1.09284,10,111.24,9,72.3802,0\H,27,1.0933,10,111.641,9,-47.5404,0\\\@

 Total job time:  8357.74s(wall), 47336.12s(cpu) 
 Wed Oct  4 21:25:19 2017

        *************************************************************
        *                                                           *
        *  Thank you very much for using Q-Chem.  Have a nice day.  *
        *                                                           *
        *************************************************************


