nid04271 10.128.16
Q-Chem Developer Version! Running on 10.128.16.*
                  Welcome to Q-Chem
     A Quantum Leap Into The Future Of Chemistry


 Q-Chem 5.0, Q-Chem, Inc., Pleasanton, CA (2017)

 Yihan Shao,  Zhengting Gan,  E. Epifanovsky,  A. T. B. Gilbert,  M. Wormit,  
 J. Kussmann,  A. W. Lange,  A. Behn,  Jia Deng,  Xintian Feng,  D. Ghosh,  
 M. Goldey,  P. R. Horn,  L. D. Jacobson,  I. Kaliman,  T. Kus,  A. Landau,  
 Jie Liu,  E. I. Proynov,  R. M. Richard,  R. P. Steele,  E. J. Sundstrom,  
 H. L. Woodcock III,  P. M. Zimmerman,  D. Zuev,  B. Albrecht,  E. Alguire,  
 S. A. Baeppler,  Z. Benda,  Y. A. Bernard,  E. J. Berquist,  K. B. Bravaya,  
 D. Casanova,  Chun-Min Chang,  Yunqing Chen,  A. Chien,  K. D. Closser,  
 M. P. Coons,  S. Dasgupta,  M. Diedenhofen,  Hainam Do,  R. G. Edgar,  
 Po-Tung Fang,  S. Fatehi,  Qingguo Feng,  Qinghui Ge,  A. Ghysels,  
 J. Gomes,  J. Gonthier,  A. Gunina,  M. W. D. Hanson-Heine,  
 P. H. P. Harbach,  A. W. Hauser,  J. E. Herr,  E. G. Hohenstein,  
 Z. C. Holden,  Kerwin Hui,  T.-C. Jagau,  Hyunjun Ji,  B. Kaduk,  
 K. Khistyaev,  Jaehoon Kim,  P. Klunzinger,  K. Koh,  D. Kosenkov,  
 T. Kowalczyk,  C. M. Krauter,  A. Kunitsa,  Ka Un Lao,  A. Laurent,  
 K. V. Lawler,  Joonho Lee,  D. Lefrancois,  S. Lehtola,  D. S. Levine,  
 Yi-Pei Li,  You-Sheng Lin,  Fenglai Liu,  E. Livshits,  A. Luenser,  
 P. Manohar,  E. Mansoor,  S. F. Manzer,  Shan-Ping Mao,  Yuezhi Mao,  
 N. Mardirossian,  A. V. Marenich,  L. A. Martinez-Martinez,  S. A. Maurer,  
 N. J. Mayhall,  S. C. McKenzie,  J.-M. Mewes,  A. F. Morrison,  K. Nanda,  
 T. S. Nguyen-Beck,  R. Olivares-Amaya,  J. A. Parkhill,  T. M. Perrine,  
 F. Plasser,  S. Prager,  A. Prociuk,  D. R. Rehn,  F. Rob,  M. Schneider,  
 N. Sergueev,  S. M. Sharada,  S. Sharma,  D. W. Small,  T. Stauch,  
 T. Stein,  Yu-Chuan Su,  A. J. W. Thom,  T. Tsuchimochi,  L. Vogt,  
 O. Vydrov,  M. A. Watson,  J. Wenzel,  M. de Wergifosse,  T. A. Wesolowski,  
 A. White,  J. Witte,  A. Yamada,  Jun Yang,  K. Yao,  S. Yeganeh,  
 S. R. Yost,  Zhi-Qiang You,  A. Zech,  Igor Ying Zhang,  Xing Zhang,  
 Yan Zhao,  Ying Zhu,  B. R. Brooks,  G. K. L. Chan,  C. J. Cramer,  
 M. S. Gordon,  W. J. Hehre,  A. Klamt,  M. W. Schmidt,  C. D. Sherrill,  
 D. G. Truhlar,  A. Aspuru-Guzik,  R. Baer,  A. T. Bell,  N. A. Besley,  
 Jeng-Da Chai,  A. Dreuw,  B. D. Dunietz,  T. R. Furlani,  Chao-Ping Hsu,  
 Yousung Jung,  Jing Kong,  D. S. Lambrecht,  WanZhen Liang,  C. Ochsenfeld,  
 V. A. Rassolov,  L. V. Slipchenko,  J. E. Subotnik,  T. Van Voorhis,  
 J. M. Herbert,  A. I. Krylov,  P. M. W. Gill,  M. Head-Gordon

 Contributors to earlier versions of Q-Chem not listed above: 
 R. D. Adamson,  B. Austin,  J. Baker,  G. J. O. Beran,  K. Brandhorst,  
 S. T. Brown,  E. F. C. Byrd,  A. K. Chakraborty,  C.-L. Cheng,  
 Siu Hung Chien,  D. M. Chipman,  D. L. Crittenden,  H. Dachsel,  
 R. A. DiStasio Jr.,  R. J. Doerksen,  A. D. Dutoi,  L. Fusti-Molnar,  
 W. A. Goddard III,  A. Golubeva-Zadorozhnaya,  S. R. Gwaltney,  G. Hawkins,  
 A. Heyden,  S. Hirata,  G. Kedziora,  F. J. Keil,  C. Kelley,  Jihan Kim,  
 R. A. King,  R. Z. Khaliullin,  P. P. Korambath,  W. Kurlancheek,  
 A. M. Lee,  M. S. Lee,  S. V. Levchenko,  Ching Yeh Lin,  D. Liotard,  
 R. C. Lochan,  I. Lotan,  P. E. Maslen,  N. Nair,  D. P. O'Neill,  
 D. Neuhauser,  E. Neuscamman,  C. M. Oana,  R. Olson,  B. Peters,  
 R. Peverati,  P. A. Pieniazek,  Y. M. Rhee,  J. Ritchie,  M. A. Rohrdanz,  
 E. Rosta,  N. J. Russ,  H. F. Schaefer III,  N. E. Schultz,  N. Shenvi,  
 A. C. Simmonett,  A. Sodt,  D. Stuck,  K. S. Thanthiriwatte,  V. Vanovschi,  
 Tao Wang,  A. Warshel,  C. F. Williams,  Q. Wu,  X. Xu,  W. Zhang

 Please cite Q-Chem as follows:
 Y. Shao et al., Mol. Phys. 113, 184-215 (2015)
 DOI: 10.1080/00268976.2014.952696

 Q-Chem 5.0.0 for Intel X86 EM64T Linux

 Parts of Q-Chem use Armadillo 5.200.1 (Boston Tea Smuggler).
 http://arma.sourceforge.net/

 Q-Chem begins on Wed Oct  4 17:59:30 2017  

Host: nid04271
0

     Scratch files written to /global/cscratch1/sd/junteng/scratch/15/opt_1111-o.save//

Checking the input file for inconsistencies... 	...done.

--------------------------------------------------------------
User input:
--------------------------------------------------------------
$molecule
0  1
C    0.579  -1.978   0.499
C   -0.345  -1.987   1.740
C    0.941  -0.610  -0.048
C   -0.562  -0.630   2.386
O    2.215  -0.645  -0.542
O    0.210   0.366  -0.087
O    0.648  -0.161   2.826
O   -1.631  -0.088   2.617
C    0.572   1.116   3.461
C    2.652   0.593  -1.106
C   -0.242  -2.782  -0.524
C   -0.292  -4.259  -0.098
C   -1.265  -4.223   1.081
C   -1.594  -2.718   1.188
O   -1.591  -2.362  -0.216
H    1.516  -2.494   0.747
H    0.090  -2.606   2.538
H   -0.024   1.052   4.377
H    2.622   1.389  -0.356
H   -0.708  -4.895  -0.888
H    0.690  -4.657   0.174
H   -2.154  -4.811   0.825
H   -0.840  -4.639   1.999
H    1.587   1.422   3.729
H    0.156   1.863   2.777
H    2.039   0.852  -1.975
H    3.687   0.467  -1.436
C   -2.945  -2.478   1.828
H   -3.699  -3.155   1.411
H   -2.911  -2.635   2.910
H   -3.320  -1.473   1.614
C    0.085  -2.603  -1.994
H   -0.579  -3.214  -2.616
H   -0.074  -1.570  -2.320
H    1.119  -2.890  -2.210
$end


$opt
CONSTRAINT
tors    2    1    3    5    142.3
tors    1    2    4    7    -64.6
ENDCONSTRAINT
$end

$rem
JOBTYPE                   OPT
METHOD                    B3LYP
DFT_D                     D3_OP
BASIS                     STO-3G
GEOM_OPT_MAX_CYCLES       500
SYMMETRY                  False
THRESH                    12
SCF_CONVERGENCE           8
MAX_SUB_FILE_NUM          128
MEM_STATIC                400
MEM_TOTAL                 4000
$end

--------------------------------------------------------------
 Adding empirical dispersion correction 
 ----------------------------------------------------------------
 Doing -D3(op) with
 s6 =   1.00000
 s8 =   0.78311
 a1 =   0.30000
 a2 =   4.25000
 n  =  10.00000
 -D3 energy without 3body term =     -0.0411703493 hartrees
 ----------------------------------------------------------------
             Standard Nuclear Orientation (Angstroms)
    I     Atom           X                Y                Z
 ----------------------------------------------------------------
    1      C       0.0405485511     0.6575719166     0.6279970458
    2      C       0.4485580788    -0.8348816956     0.6210370951
    3      C      -1.2236982091     1.0027230799    -0.1363509142
    4      C      -0.5983616521    -1.7818052351     0.0614400192
    5      O      -1.8727982861     2.0215992616     0.5030999569
    6      O      -1.5961984503     0.4914952944    -1.1795899671
    7      O      -1.7171432315    -1.7052423029     0.8489213808
    8      O      -0.4521119641    -2.5882506495    -0.8430724586
    9      C      -2.7784272181    -2.5607562126     0.4228905721
   10      C      -3.0723596472     2.4436939349    -0.1485116050
   11      C       1.2695511140     1.3340043222    -0.0036499292
   12      C       2.4565832498     1.2598809157     0.9715246343
   13      C       2.8623527980    -0.2112841170     0.8761804153
   14      C       1.8144140588    -0.7767714946    -0.1070608698
   15      O       1.6672726917     0.3585939812    -0.9943351534
   16      H      -0.1006442077     0.9849117819     1.6665740614
   17      H       0.6216642017    -1.1903109685     1.6471434747
   18      H      -2.4797608129    -3.6105469360     0.5071865717
   19      H      -3.7802435395     1.6131239838    -0.2264214976
   20      H       3.2933331402     1.8856898890     0.6400661152
   21      H       2.1911460006     1.5619689502     1.9888730929
   22      H       3.8755559769    -0.2734341450     0.4624683269
   23      H       2.8636012425    -0.7181800102     1.8454378604
   24      H      -3.6353600821    -2.3906923623     1.0804841802
   25      H      -3.0783059100    -2.3222438675    -0.6028314328
   26      H      -2.8433670294     2.8555358485    -1.1364182905
   27      H      -3.5276066382     3.2308286629     0.4590820891
   28      C       2.3256610058    -2.0007489527    -0.8370654871
   29      H       3.3506780532    -1.8430305545    -1.1909001368
   30      H       2.3227728949    -2.8841446677    -0.1919820277
   31      H       1.7440132593    -2.2037087567    -1.7409123862
   32      C       1.0880301320     2.7130571330    -0.6079126850
   33      H       2.0289460417     3.0747186755    -1.0380047444
   34      H       0.3716132743     2.6999266795    -1.4356931372
   35      H       0.7526844869     3.4359215512     0.1425480610
 ----------------------------------------------------------------
 Molecular Point Group                 C1    NOp =  1
 Largest Abelian Subgroup              C1    NOp =  1
 Nuclear Repulsion Energy =  1395.7531872986 hartrees
 There are       65 alpha and       65 beta electrons
 Requested basis set is STO-3G
 There are 52 shells and 103 basis functions

 Total QAlloc Memory Limit   4000 MB
 Mega-Array Size       392 MB
 MEM_STATIC part       400 MB
 A cutoff of  1.0D-12 yielded   1204 shell pairs
 There are      5194 function pairs
 
 -------------------------------------------------------
 OpenMP Integral Computing Module                       
 Release: version 1.0, May 2013, Q-Chem Inc. Pittsburgh 
 -------------------------------------------------------
 Integral Job Info:
 Integral job number is                      11
 Integral operator is                         1
 short-range coefficients                     0
 long-range coefficients              100000000
 Omega coefficients                           0
 if combine SR and LR in K                    0
 Integral screening is                        0
 Integral computing path is                   2
 max size of driver memory is            800000
 size of driver memory is                 45569
 size of scratch memory is               945100
 max col of scratch BK array                289
 max len of scratch array in speh3           22
 max len of scratch index in speh4            8
 max int batch size is                      520
 min int batch size is                       52
 fixed nKL is                                52
 max L of basis functions is                  1
 order of int derivative is                   0
 number of shells is                         52
 number of basis is                         103
 number of cartesian basis is               103
 number of contracted shell pairs          1204
 number of primitive shell pairs           6556
 maxK2 (contraction) of shell pair            9
 max number of K2 of shell pair               1
 max number of CS2 of shell pair            185
 max number of PS2 of shell pair            828
 mem total for path MDJ                   33898
 -------------------------------------------------------
 Smallest overlap matrix eigenvalue = 1.95E-01

 Scale SEOQF with 1.000000e-01/1.000000e-01/1.000000e-01

 Standard Electronic Orientation quadrupole field applied
 Nucleus-field energy     =     0.0000000384 hartrees
 Guess from superposition of atomic densities
 Warning:  Energy on first SCF cycle will be non-variational
 A restricted hybrid HF-DFT SCF calculation will be
 performed using Pulay DIIS extrapolation
 Exchange:     0.2000 Hartree-Fock + 0.0800 Slater + 0.7200 B88
 Correlation:  0.1900 VWN1RPA + 0.8100 LYP
 Using SG-1 standard quadrature grid
 Dispersion:   Grimme D3
 SCF converges when DIIS error is below 1.0E-08
 -------------------------------------------------------
 OpenMP Integral computing Module                
 Release: version 1.0, May 2013, Q-Chem Inc. Pittsburgh 
 -------------------------------------------------------
 -------------------------------------------------------
 OpenMP BLAS3 based DFT computing Module                
 Release: version 1.0, May 2013, Q-Chem Inc. Pittsburgh 
 -------------------------------------------------------
 ---------------------------------------
  Cycle       Energy         DIIS Error
 ---------------------------------------
    1    -832.4613427662      1.05E-01
    2    -833.1370762580      1.27E-02
    3    -832.1370895692      3.08E-02
    4    -833.3782765538      4.55E-03
    5    -833.4066960607      1.46E-03
    6    -833.4098473704      2.71E-04
    7    -833.4099544728      7.62E-05
    8    -833.4099606041      4.17E-05
    9    -833.4099632398      4.63E-06
   10    -833.4099632746      1.22E-06
   11    -833.4099632769      3.03E-07
   12    -833.4099632770      8.71E-08
   13    -833.4099632770      1.56E-08
   14    -833.4099632771      3.41E-09 Convergence criterion met
 ---------------------------------------
 SCF time:  CPU 139.07 s  wall 6.97 s
 SCF   energy in the final basis set = -833.4099632771
 Total energy in the final basis set = -833.4099632771
 
 --------------------------------------------------------------
 
                    Orbital Energies (a.u.)
 --------------------------------------------------------------
 
 Alpha MOs
 -- Occupied --
-18.942 -18.934 -18.865 -18.864 -18.861 -10.107 -10.103 -10.074
-10.068 -10.064 -10.060 -10.030 -10.029 -10.013 -10.007 -10.005
-10.002  -1.042  -1.034  -0.985  -0.951  -0.945  -0.773  -0.753
 -0.733  -0.690  -0.680  -0.671  -0.624  -0.593  -0.545  -0.520
 -0.491  -0.482  -0.466  -0.447  -0.439  -0.429  -0.428  -0.422
 -0.411  -0.391  -0.387  -0.379  -0.371  -0.369  -0.364  -0.345
 -0.341  -0.334  -0.309  -0.305  -0.304  -0.292  -0.287  -0.281
 -0.271  -0.247  -0.241  -0.214  -0.181  -0.175  -0.151  -0.141
 -0.130
 -- Virtual --
  0.111   0.129   0.243   0.280   0.295   0.311   0.331   0.354
  0.372   0.379   0.388   0.400   0.403   0.413   0.419   0.432
  0.439   0.444   0.449   0.451   0.456   0.457   0.463   0.467
  0.475   0.480   0.487   0.492   0.498   0.506   0.510   0.513
  0.537   0.546   0.583   0.586   0.707   0.709
 --------------------------------------------------------------
 
          Ground-State Mulliken Net Atomic Charges

     Atom                 Charge (a.u.)
  ----------------------------------------
      1 C                    -0.084595
      2 C                    -0.084928
      3 C                     0.236932
      4 C                     0.238677
      5 O                    -0.187608
      6 O                    -0.231157
      7 O                    -0.194162
      8 O                    -0.225991
      9 C                    -0.126414
     10 C                    -0.126312
     11 C                     0.111091
     12 C                    -0.148495
     13 C                    -0.147098
     14 C                     0.111557
     15 O                    -0.214092
     16 H                     0.087026
     17 H                     0.085427
     18 H                     0.091170
     19 H                     0.093535
     20 H                     0.075293
     21 H                     0.069960
     22 H                     0.075299
     23 H                     0.068530
     24 H                     0.092479
     25 H                     0.096380
     26 H                     0.092817
     27 H                     0.095226
     28 C                    -0.230291
     29 H                     0.078853
     30 H                     0.081177
     31 H                     0.098540
     32 C                    -0.231645
     33 H                     0.084746
     34 H                     0.083765
     35 H                     0.084309
  ----------------------------------------
  Sum of atomic charges =    -0.000000

 -----------------------------------------------------------------
                    Cartesian Multipole Moments
 -----------------------------------------------------------------
    Charge (ESU x 10^10)
                 0.0000
    Dipole Moment (Debye)
         X      -0.8782      Y       1.1630      Z       2.3527
       Tot       2.7675
    Quadrupole Moments (Debye-Ang)
        XX     -83.8071     XY      -0.7113     YY     -88.8934
        XZ       0.9767     YZ      -3.9015     ZZ     -96.9292
    Octopole Moments (Debye-Ang^2)
       XXX     -46.3966    XXY      -1.7284    XYY     -21.3534
       YYY       5.1219    XXZ      -0.4018    XYZ       3.8207
       YYZ       2.3429    XZZ      -3.9993    YZZ      -0.3880
       ZZZ      -3.3241
    Hexadecapole Moments (Debye-Ang^3)
      XXXX   -2091.2066   XXXY      -6.0688   XXYY    -600.9185
      XYYY      -2.1704   YYYY   -1803.7757   XXXZ     -28.9029
      XXYZ      -4.3762   XYYZ      -7.7605   YYYZ     -36.1812
      XXZZ    -448.9289   XYZZ      -3.9821   YYZZ    -373.8865
      XZZZ      -5.3102   YZZZ       4.7161   ZZZZ    -389.6427
 -----------------------------------------------------------------
 Calculating analytic gradient of the SCF energy
 Gradient of SCF Energy
            1           2           3           4           5           6
    1   0.0068753  -0.0046877  -0.0166998  -0.0197001  -0.0083837   0.0221746
    2  -0.0061405   0.0027730   0.0136587  -0.0050542  -0.0333299   0.0277086
    3  -0.0439619  -0.0259477  -0.0049261   0.0059897  -0.0526228   0.0536548
            7           8           9          10          11          12
    1   0.0189254  -0.0015472   0.0137487   0.0155365  -0.0147881  -0.0140183
    2  -0.0354658   0.0374925   0.0122788  -0.0053058  -0.0088645  -0.0163340
    3  -0.0479698   0.0469183   0.0073292   0.0104380   0.0044710  -0.0276032
           13          14          15          16          17          18
    1  -0.0188788  -0.0134132   0.0002181   0.0010425   0.0008687  -0.0002796
    2   0.0098466   0.0013371  -0.0017583  -0.0047971  -0.0026952   0.0134481
    3  -0.0239240   0.0041002   0.0591838  -0.0036425  -0.0066526   0.0045960
           19          20          21          22          23          24
    1   0.0096437   0.0015668   0.0018289  -0.0016174   0.0000789   0.0064180
    2   0.0080000  -0.0065480  -0.0026222   0.0062579   0.0036352  -0.0035888
    3   0.0068064   0.0026614  -0.0056205   0.0037838  -0.0055836  -0.0080883
           25          26          27          28          29          30
    1   0.0035522   0.0029766   0.0019587  -0.0076661  -0.0055637   0.0022017
    2   0.0031584  -0.0020146  -0.0071906   0.0172553  -0.0035201   0.0034711
    3   0.0127123   0.0138624  -0.0075342   0.0224771  -0.0038969  -0.0029576
           31          32          33          34          35
    1   0.0094985   0.0042312  -0.0054129   0.0069380   0.0023733
    2   0.0036308  -0.0187618   0.0004390   0.0011666  -0.0015662
    3  -0.0003602   0.0173100  -0.0021302   0.0011114  -0.0039838
 Max gradient component =       5.918E-02
 RMS gradient           =       1.675E-02
 Gradient time:  CPU 27.82 s  wall 1.24 s
 Geometry Optimization Parameters
   NAtoms,    NIC,     NZ,  NCons,   NDum,   NFix, NCnnct, MaxDiis
       35     275       0       2       0       0       0       0


** CONSTRAINED OPTIMIZATION IN DELOCALIZED INTERNAL COORDINATES **
   Searching for a Minimum

   Optimization Cycle:   1

                       Coordinates (Angstroms)
     ATOM                X               Y               Z
      1  C         0.0405485511    0.6575719166    0.6279970458
      2  C         0.4485580788   -0.8348816956    0.6210370951
      3  C        -1.2236982091    1.0027230799   -0.1363509142
      4  C        -0.5983616521   -1.7818052351    0.0614400192
      5  O        -1.8727982861    2.0215992616    0.5030999569
      6  O        -1.5961984503    0.4914952944   -1.1795899671
      7  O        -1.7171432315   -1.7052423029    0.8489213808
      8  O        -0.4521119641   -2.5882506495   -0.8430724586
      9  C        -2.7784272181   -2.5607562126    0.4228905721
     10  C        -3.0723596472    2.4436939349   -0.1485116050
     11  C         1.2695511140    1.3340043222   -0.0036499292
     12  C         2.4565832498    1.2598809157    0.9715246343
     13  C         2.8623527980   -0.2112841170    0.8761804153
     14  C         1.8144140588   -0.7767714946   -0.1070608698
     15  O         1.6672726917    0.3585939812   -0.9943351534
     16  H        -0.1006442077    0.9849117819    1.6665740614
     17  H         0.6216642017   -1.1903109685    1.6471434747
     18  H        -2.4797608129   -3.6105469360    0.5071865717
     19  H        -3.7802435395    1.6131239838   -0.2264214976
     20  H         3.2933331402    1.8856898890    0.6400661152
     21  H         2.1911460006    1.5619689502    1.9888730929
     22  H         3.8755559769   -0.2734341450    0.4624683269
     23  H         2.8636012425   -0.7181800102    1.8454378604
     24  H        -3.6353600821   -2.3906923623    1.0804841802
     25  H        -3.0783059100   -2.3222438675   -0.6028314328
     26  H        -2.8433670294    2.8555358485   -1.1364182905
     27  H        -3.5276066382    3.2308286629    0.4590820891
     28  C         2.3256610058   -2.0007489527   -0.8370654871
     29  H         3.3506780532   -1.8430305545   -1.1909001368
     30  H         2.3227728949   -2.8841446677   -0.1919820277
     31  H         1.7440132593   -2.2037087567   -1.7409123862
     32  C         1.0880301320    2.7130571330   -0.6079126850
     33  H         2.0289460417    3.0747186755   -1.0380047444
     34  H         0.3716132743    2.6999266795   -1.4356931372
     35  H         0.7526844869    3.4359215512    0.1425480610
   Point Group: c1    Number of degrees of freedom:    99


   Energy is   -833.409963277

              Constraints and their Current Values
                                        Value     Constraint
   Dihedral:        2   1   3   5      145.794      142.300
   Dihedral:        1   2   4   7      -61.913      -64.600

 Attempting to Generate Delocalized Internal Coordinates

   Using Lagrange Multiplier Algorithm


101 Hessian modes will be used to form the next step
  Hessian Eigenvalues:
    -0.977753   -0.977753    0.045000    0.045000    0.045000    0.045000
     0.045000    0.045000    0.045023    0.045263    0.045502    0.048606
     0.060298    0.061777    0.067925    0.070278    0.071449    0.071695
     0.075522    0.076606    0.078244    0.080811    0.081377    0.081808
     0.083396    0.083502    0.083514    0.083675    0.084645    0.090017
     0.091538    0.091907    0.106339    0.109001    0.113820    0.113949
     0.116299    0.116905    0.116996    0.126894    0.131265    0.139894
     0.144501    0.160000    0.160000    0.160000    0.160000    0.160000
     0.160000    0.160000    0.160000    0.160000    0.160000    0.160000
     0.160000    0.165730    0.185925    0.241736    0.248635    0.249881
     0.250000    0.250000    0.250000    0.250000    0.250633    0.260748
     0.267050    0.282050    0.285547    0.305111    0.306449    0.307030
     0.309452    0.327325    0.337229    0.338979    0.340712    0.341060
     0.341086    0.341343    0.341531    0.342465    0.342607    0.342751
     0.342848    0.342936    0.343451    0.343609    0.343704    0.343747
     0.343768    0.343978    0.344143    0.411501    0.412503    0.509233
     0.515826    0.951140    0.953727    1.022753    1.022753

 Minimum Search - Taking P-RFO Step
 Searching for Lamda that Maximizes Along the Constraint modes Only
 Value Taken    Lamda =   0.00383767
 Searching for Lamda that Minimizes Along All other modes
 Value Taken    Lamda =  -0.06673666
 Calculated Step too Large.  Step scaled by  0.713688
 Step Taken.  Stepsize is  0.300000

                             Maximum     Tolerance    Cnvgd?
         Gradient            0.083192       0.000300      NO
         Displacement        0.102112       0.001200      NO
         Energy change     *********       0.000001      NO


 New Cartesian Coordinates Obtained by Inverse Iteration

 Displacement from previous Coordinates is:  0.803857
 Adding empirical dispersion correction 
 ----------------------------------------------------------------
 Doing -D3(op) with
 s6 =   1.00000
 s8 =   0.78311
 a1 =   0.30000
 a2 =   4.25000
 n  =  10.00000
 -D3 energy without 3body term =     -0.0406667681 hartrees
 ----------------------------------------------------------------
             Standard Nuclear Orientation (Angstroms)
    I     Atom           X                Y                Z
 ----------------------------------------------------------------
    1      C       0.0716315775     0.6867605285     0.6411015867
    2      C       0.4669814405    -0.8286305513     0.6437863485
    3      C      -1.2290816311     1.0065395691    -0.1384828596
    4      C      -0.6158699642    -1.7740113961     0.0495426927
    5      O      -1.9221480239     2.0221653177     0.5343022107
    6      O      -1.6173818147     0.4624060268    -1.1873876905
    7      O      -1.7497709947    -1.6910647659     0.8752423491
    8      O      -0.5009910077    -2.5799945856    -0.8894313162
    9      C      -2.8379281651    -2.5438014594     0.4128378794
   10      C      -3.1647129726     2.3890549572    -0.1363331550
   11      C       1.3304771970     1.3642068320    -0.0129560175
   12      C       2.5249662524     1.2864408247     1.0055132004
   13      C       2.9232776570    -0.2186757548     0.9133942256
   14      C       1.8607585308    -0.7786205435    -0.1087694677
   15      O       1.7255727848     0.3700725581    -1.0272547257
   16      H      -0.0716284381     1.0276248383     1.6799855176
   17      H       0.6387705196    -1.1862275534     1.6745719056
   18      H      -2.5619598766    -3.6143607344     0.4546589574
   19      H      -3.8490710258     1.5248781719    -0.2247390961
   20      H       3.3614293293     1.9198095903     0.6774525048
   21      H       2.2455466996     1.5970566024     2.0229060477
   22      H       3.9390713986    -0.3092422745     0.5032535899
   23      H       2.9058479362    -0.7320524579     1.8859881086
   24      H      -3.6920907653    -2.3739244077     1.0898224198
   25      H      -3.1473696352    -2.2850176491    -0.6172015803
   26      H      -2.9744014288     2.8101227119    -1.1413999382
   27      H      -3.6504082078     3.1615239628     0.4832869029
   28      C       2.3441376327    -2.0324968589    -0.8585932565
   29      H       3.3762872025    -1.8872277278    -1.2098175822
   30      H       2.3202475832    -2.9172906804    -0.2087651825
   31      H       1.7344393676    -2.2218473551    -1.7529005701
   32      C       1.1412572973     2.7556329910    -0.6444211865
   33      H       2.0904667771     3.1099095483    -1.0710681247
   34      H       0.4162556206     2.7264448616    -1.4709138080
   35      H       0.7999845208     3.4830497968     0.1050313405
 ----------------------------------------------------------------
 Molecular Point Group                 C1    NOp =  1
 Largest Abelian Subgroup              C1    NOp =  1
 Nuclear Repulsion Energy =  1373.8313593298 hartrees
 There are       65 alpha and       65 beta electrons
 Applying Cartesian multipole field
    Component          Value
    ---------          -----
     (2,0,0)        1.00000E-11
     (0,2,0)        2.00000E-11
     (0,0,2)       -3.00000E-11
 Nucleus-field energy     =     0.0000000388 hartrees
 Requested basis set is STO-3G
 There are 52 shells and 103 basis functions
 A cutoff of  1.0D-12 yielded   1202 shell pairs
 There are      5186 function pairs
 Smallest overlap matrix eigenvalue = 2.08E-01
 Guess MOs from SCF MO coefficient file
 Reading MOs from coefficient file
 Reading MOs from coefficient file
 A restricted hybrid HF-DFT SCF calculation will be
 performed using Pulay DIIS extrapolation
 Exchange:     0.2000 Hartree-Fock + 0.0800 Slater + 0.7200 B88
 Correlation:  0.1900 VWN1RPA + 0.8100 LYP
 Using SG-1 standard quadrature grid
 Dispersion:   Grimme D3
 SCF converges when DIIS error is below 1.0E-08
 Geometry optimization detected.  Setting ReadMinima to 0
 Setting SaveMinima to 0
 -------------------------------------------------------
 OpenMP Integral computing Module                
 Release: version 1.0, May 2013, Q-Chem Inc. Pittsburgh 
 -------------------------------------------------------
 -------------------------------------------------------
 OpenMP BLAS3 based DFT computing Module                
 Release: version 1.0, May 2013, Q-Chem Inc. Pittsburgh 
 -------------------------------------------------------
 ---------------------------------------
  Cycle       Energy         DIIS Error
 ---------------------------------------
    1    -833.2758710101      4.84E-03
    2    -833.4348500127      1.82E-03
    3    -833.4292310478      2.70E-03
    4    -833.4393634598      6.18E-04
    5    -833.4399566218      1.02E-04
    6    -833.4399734094      2.59E-05
    7    -833.4399739250      2.02E-05
    8    -833.4399745369      3.98E-06
    9    -833.4399745653      6.80E-07
   10    -833.4399745661      3.07E-07
   11    -833.4399745663      6.45E-08
   12    -833.4399745663      2.17E-08
   13    -833.4399745664      4.12E-09 Convergence criterion met
 ---------------------------------------
 SCF time:  CPU 121.12 s  wall 6.15 s
 SCF   energy in the final basis set = -833.4399745664
 Total energy in the final basis set = -833.4399745664
 
 --------------------------------------------------------------
 
                    Orbital Energies (a.u.)
 --------------------------------------------------------------
 
 Alpha MOs
 -- Occupied --
-18.939 -18.929 -18.868 -18.867 -18.864 -10.100 -10.096 -10.069
-10.063 -10.062 -10.058 -10.031 -10.030 -10.014 -10.010 -10.008
-10.003  -1.022  -1.014  -0.966  -0.939  -0.933  -0.763  -0.741
 -0.722  -0.679  -0.675  -0.661  -0.619  -0.589  -0.537  -0.514
 -0.483  -0.475  -0.455  -0.437  -0.429  -0.419  -0.419  -0.411
 -0.403  -0.384  -0.383  -0.378  -0.368  -0.365  -0.358  -0.342
 -0.338  -0.332  -0.307  -0.298  -0.295  -0.290  -0.286  -0.277
 -0.266  -0.249  -0.243  -0.218  -0.178  -0.172  -0.150  -0.141
 -0.132
 -- Virtual --
  0.102   0.120   0.234   0.264   0.276   0.294   0.314   0.336
  0.352   0.357   0.371   0.380   0.389   0.398   0.410   0.416
  0.425   0.427   0.431   0.432   0.437   0.441   0.445   0.449
  0.452   0.466   0.470   0.478   0.485   0.486   0.493   0.499
  0.520   0.523   0.559   0.564   0.668   0.671
 --------------------------------------------------------------
 
          Ground-State Mulliken Net Atomic Charges

     Atom                 Charge (a.u.)
  ----------------------------------------
      1 C                    -0.081386
      2 C                    -0.081392
      3 C                     0.220119
      4 C                     0.222312
      5 O                    -0.176567
      6 O                    -0.219965
      7 O                    -0.184173
      8 O                    -0.215786
      9 C                    -0.125449
     10 C                    -0.125319
     11 C                     0.106843
     12 C                    -0.146532
     13 C                    -0.145618
     14 C                     0.107029
     15 O                    -0.202541
     16 H                     0.085542
     17 H                     0.083582
     18 H                     0.087982
     19 H                     0.090546
     20 H                     0.074376
     21 H                     0.069959
     22 H                     0.074221
     23 H                     0.068412
     24 H                     0.089032
     25 H                     0.093031
     26 H                     0.089563
     27 H                     0.091944
     28 C                    -0.227739
     29 H                     0.078115
     30 H                     0.079925
     31 H                     0.097936
     32 C                    -0.228569
     33 H                     0.083879
     34 H                     0.083803
     35 H                     0.082884
  ----------------------------------------
  Sum of atomic charges =    -0.000000

 -----------------------------------------------------------------
                    Cartesian Multipole Moments
 -----------------------------------------------------------------
    Charge (ESU x 10^10)
                 0.0000
    Dipole Moment (Debye)
         X      -0.7459      Y       1.1383      Z       2.2852
       Tot       2.6598
    Quadrupole Moments (Debye-Ang)
        XX     -83.4794     XY      -0.7300     YY     -88.9272
        XZ       1.3704     YZ      -3.7529     ZZ     -96.8434
    Octopole Moments (Debye-Ang^2)
       XXX     -49.0813    XXY      -1.9471    XYY     -20.4037
       YYY       2.8088    XXZ      -0.4579    XYZ       4.1383
       YYZ       1.6642    XZZ      -4.1845    YZZ      -0.1059
       ZZZ      -3.1702
    Hexadecapole Moments (Debye-Ang^3)
      XXXX   -2181.3568   XXXY     -16.8234   XXYY    -616.0871
      XYYY      -7.2132   YYYY   -1806.9134   XXXZ     -27.6251
      XXYZ      -5.9289   XYYZ      -7.2895   YYYZ     -37.7983
      XXZZ    -468.3233   XYZZ      -7.7137   YYZZ    -377.5887
      XZZZ      -5.4229   YZZZ       0.5170   ZZZZ    -405.9826
 -----------------------------------------------------------------
 Calculating analytic gradient of the SCF energy
 Gradient of SCF Energy
            1           2           3           4           5           6
    1   0.0070287  -0.0061497  -0.0059334  -0.0139873  -0.0032708   0.0064632
    2  -0.0060305   0.0030221   0.0129679   0.0069133  -0.0154109   0.0063815
    3  -0.0233551  -0.0052887   0.0065639   0.0097923  -0.0219458   0.0126804
            7           8           9          10          11          12
    1   0.0092893   0.0019335   0.0070647   0.0086551  -0.0109270  -0.0043784
    2  -0.0163271   0.0064736   0.0066220  -0.0018530   0.0000076  -0.0020074
    3  -0.0211542   0.0127204   0.0049331   0.0063613   0.0041165  -0.0102771
           13          14          15          16          17          18
    1  -0.0041439  -0.0078566   0.0028382   0.0002579   0.0017329  -0.0005873
    2   0.0015413  -0.0033940   0.0013245  -0.0039848  -0.0027212   0.0029452
    3  -0.0095063   0.0020283   0.0180244  -0.0002119  -0.0021982   0.0022497
           19          20          21          22          23          24
    1   0.0014619   0.0010199   0.0021333  -0.0004425   0.0016564   0.0005928
    2   0.0023960  -0.0029180  -0.0000634   0.0031576   0.0010285  -0.0017615
    3   0.0026050   0.0020605  -0.0011794   0.0024793  -0.0013710  -0.0028252
           25          26          27          28          29          30
    1  -0.0001545   0.0006748  -0.0006663  -0.0037353  -0.0019485   0.0013699
    2   0.0012251   0.0007101  -0.0016402   0.0054727  -0.0015147   0.0008265
    3   0.0034101   0.0036148  -0.0027555   0.0114200  -0.0028282  -0.0013954
           31          32          33          34          35
    1   0.0056026   0.0024455  -0.0023244   0.0032686   0.0010172
    2   0.0015435  -0.0068307   0.0004821   0.0014452  -0.0000290
    3  -0.0024659   0.0086332  -0.0020524  -0.0012588  -0.0016243
 Max gradient component =       2.336E-02
 RMS gradient           =       6.786E-03
 Gradient time:  CPU 26.63 s  wall 1.14 s
 Geometry Optimization Parameters
   NAtoms,    NIC,     NZ,  NCons,   NDum,   NFix, NCnnct, MaxDiis
       35     275       0       2       0       0       0       0

 Cartesian Hessian Update
 Hessian Updated using BFGS Update


** CONSTRAINED OPTIMIZATION IN DELOCALIZED INTERNAL COORDINATES **
   Searching for a Minimum

   Optimization Cycle:   2

                       Coordinates (Angstroms)
     ATOM                X               Y               Z
      1  C         0.0716315775    0.6867605285    0.6411015867
      2  C         0.4669814405   -0.8286305513    0.6437863485
      3  C        -1.2290816311    1.0065395691   -0.1384828596
      4  C        -0.6158699642   -1.7740113961    0.0495426927
      5  O        -1.9221480239    2.0221653177    0.5343022107
      6  O        -1.6173818147    0.4624060268   -1.1873876905
      7  O        -1.7497709947   -1.6910647659    0.8752423491
      8  O        -0.5009910077   -2.5799945856   -0.8894313162
      9  C        -2.8379281651   -2.5438014594    0.4128378794
     10  C        -3.1647129726    2.3890549572   -0.1363331550
     11  C         1.3304771970    1.3642068320   -0.0129560175
     12  C         2.5249662524    1.2864408247    1.0055132004
     13  C         2.9232776570   -0.2186757548    0.9133942256
     14  C         1.8607585308   -0.7786205435   -0.1087694677
     15  O         1.7255727848    0.3700725581   -1.0272547257
     16  H        -0.0716284381    1.0276248383    1.6799855176
     17  H         0.6387705196   -1.1862275534    1.6745719056
     18  H        -2.5619598766   -3.6143607344    0.4546589574
     19  H        -3.8490710258    1.5248781719   -0.2247390961
     20  H         3.3614293293    1.9198095903    0.6774525048
     21  H         2.2455466996    1.5970566024    2.0229060477
     22  H         3.9390713986   -0.3092422745    0.5032535899
     23  H         2.9058479362   -0.7320524579    1.8859881086
     24  H        -3.6920907653   -2.3739244077    1.0898224198
     25  H        -3.1473696352   -2.2850176491   -0.6172015803
     26  H        -2.9744014288    2.8101227119   -1.1413999382
     27  H        -3.6504082078    3.1615239628    0.4832869029
     28  C         2.3441376327   -2.0324968589   -0.8585932565
     29  H         3.3762872025   -1.8872277278   -1.2098175822
     30  H         2.3202475832   -2.9172906804   -0.2087651825
     31  H         1.7344393676   -2.2218473551   -1.7529005701
     32  C         1.1412572973    2.7556329910   -0.6444211865
     33  H         2.0904667771    3.1099095483   -1.0710681247
     34  H         0.4162556206    2.7264448616   -1.4709138080
     35  H         0.7999845208    3.4830497968    0.1050313405
   Point Group: c1    Number of degrees of freedom:    99


   Energy is   -833.439974566

              Constraints and their Current Values
                                        Value     Constraint
   Dihedral:        2   1   3   5      143.375      142.300
   Dihedral:        1   2   4   7      -63.780      -64.600
 Hessian Updated using BFGS Update

   Using Lagrange Multiplier Algorithm


 85 Hessian modes will be used to form the next step
  Hessian Eigenvalues:
    -0.977838   -0.977525    0.044974    0.045001    0.045054    0.045178
     0.045493    0.048593    0.060299    0.061418    0.067861    0.070221
     0.071446    0.071694    0.075545    0.076593    0.078258    0.080791
     0.081257    0.081781    0.083117    0.083417    0.083517    0.083637
     0.084735    0.090007    0.091428    0.091893    0.106273    0.109027
     0.113696    0.113904    0.115726    0.116905    0.116996    0.126590
     0.131469    0.139922    0.144224    0.158547    0.161634    0.166136
     0.185738    0.240037    0.244179    0.248811    0.249885    0.250074
     0.250830    0.260785    0.268735    0.283635    0.290053    0.305727
     0.306854    0.308773    0.316882    0.327363    0.337240    0.338986
     0.340983    0.341073    0.341341    0.341524    0.342225    0.342573
     0.342653    0.342837    0.342869    0.343332    0.343591    0.343688
     0.343724    0.343759    0.343915    0.344099    0.376399    0.411936
     0.418443    0.498352    0.513760    0.952356    0.975922    1.022721
     1.023855

 Minimum Search - Taking P-RFO Step
 Searching for Lamda that Maximizes Along the Constraint modes Only
 Value Taken    Lamda =   0.00023968
 Searching for Lamda that Minimizes Along All other modes
 Value Taken    Lamda =  -0.01219144
 Step Taken.  Stepsize is  0.275164

                             Maximum     Tolerance    Cnvgd?
         Gradient            0.027259       0.000300      NO
         Displacement        0.079990       0.001200      NO
         Energy change     -0.030011       0.000001      NO


 New Cartesian Coordinates Obtained by Inverse Iteration

 Displacement from previous Coordinates is:  0.921235
 Adding empirical dispersion correction 
 ----------------------------------------------------------------
 Doing -D3(op) with
 s6 =   1.00000
 s8 =   0.78311
 a1 =   0.30000
 a2 =   4.25000
 n  =  10.00000
 -D3 energy without 3body term =     -0.0408975864 hartrees
 ----------------------------------------------------------------
             Standard Nuclear Orientation (Angstroms)
    I     Atom           X                Y                Z
 ----------------------------------------------------------------
    1      C       0.1035230306     0.7172965392     0.6852122119
    2      C       0.4974494985    -0.8100727450     0.6891692882
    3      C      -1.2227666494     0.9949342298    -0.0946767208
    4      C      -0.6035989345    -1.7343497642     0.0566260744
    5      O      -1.9487382366     2.0082623724     0.5955725991
    6      O      -1.6293559510     0.4177282107    -1.1289157927
    7      O      -1.7540394257    -1.6376737617     0.9000867419
    8      O      -0.5258350576    -2.5015989771    -0.9271370567
    9      C      -2.8463700158    -2.4568894329     0.3427030061
   10      C      -3.2121384911     2.2870590613    -0.1157838760
   11      C       1.3698560006     1.3724400668    -0.0176144020
   12      C       2.5746352349     1.2988450477     1.0084539278
   13      C       2.9624734384    -0.2212953534     0.9304889814
   14      C       1.8865748364    -0.7774263483    -0.0945810260
   15      O       1.7388086077     0.3590211356    -1.0393006171
   16      H      -0.0306775188     1.0922097904     1.7157656209
   17      H       0.6701154294    -1.1612194158     1.7228639057
   18      H      -2.5835032479    -3.5349835685     0.3225984232
   19      H      -3.8427240365     1.3781262515    -0.2006990909
   20      H       3.4038313946     1.9370103185     0.6630302240
   21      H       2.2869585269     1.6228955638     2.0217028467
   22      H       3.9728940805    -0.3463781592     0.5088922334
   23      H       2.9307661611    -0.7301389900     1.9076512912
   24      H      -3.7146016396    -2.3027707759     1.0103625204
   25      H      -3.1102003375    -2.1393414310    -0.6873236988
   26      H      -3.0302410438     2.6849956083    -1.1355452819
   27      H      -3.7405592253     3.0485841736     0.4874164893
   28      C       2.3168743001    -2.0594859251    -0.8508890269
   29      H       3.3466494142    -1.9409304305    -1.2230913427
   30      H       2.2786223174    -2.9298568250    -0.1787749181
   31      H       1.6473869941    -2.2392879914    -1.7056770359
   32      C       1.1476350842     2.7552246713    -0.6806442622
   33      H       2.0903431893     3.1066815647    -1.1273677834
   34      H       0.3912375261     2.6842278357    -1.4779413623
   35      H       0.8113081199     3.4873703872     0.0696091394
 ----------------------------------------------------------------
 Molecular Point Group                 C1    NOp =  1
 Largest Abelian Subgroup              C1    NOp =  1
 Nuclear Repulsion Energy =  1371.7443713127 hartrees
 There are       65 alpha and       65 beta electrons
 Applying Cartesian multipole field
    Component          Value
    ---------          -----
     (2,0,0)        1.00000E-11
     (0,2,0)        2.00000E-11
     (0,0,2)       -3.00000E-11
 Nucleus-field energy     =     0.0000000380 hartrees
 Requested basis set is STO-3G
 There are 52 shells and 103 basis functions
 A cutoff of  1.0D-12 yielded   1202 shell pairs
 There are      5186 function pairs
 Smallest overlap matrix eigenvalue = 2.13E-01
 Guess MOs from SCF MO coefficient file
 Reading MOs from coefficient file
 Reading MOs from coefficient file
 A restricted hybrid HF-DFT SCF calculation will be
 performed using Pulay DIIS extrapolation
 Exchange:     0.2000 Hartree-Fock + 0.0800 Slater + 0.7200 B88
 Correlation:  0.1900 VWN1RPA + 0.8100 LYP
 Using SG-1 standard quadrature grid
 Dispersion:   Grimme D3
 SCF converges when DIIS error is below 1.0E-08
 Geometry optimization detected.  Setting ReadMinima to 0
 Setting SaveMinima to 0
 -------------------------------------------------------
 OpenMP Integral computing Module                
 Release: version 1.0, May 2013, Q-Chem Inc. Pittsburgh 
 -------------------------------------------------------
 -------------------------------------------------------
 OpenMP BLAS3 based DFT computing Module                
 Release: version 1.0, May 2013, Q-Chem Inc. Pittsburgh 
 -------------------------------------------------------
 ---------------------------------------
  Cycle       Energy         DIIS Error
 ---------------------------------------
    1    -833.3564810387      3.78E-03
    2    -833.4443364052      1.19E-03
    3    -833.4400268482      2.10E-03
    4    -833.4463291430      3.69E-04
    5    -833.4465388773      8.29E-05
    6    -833.4465495128      2.40E-05
    7    -833.4465498995      1.94E-05
    8    -833.4465504684      3.52E-06
    9    -833.4465504907      6.02E-07
   10    -833.4465504913      2.90E-07
   11    -833.4465504915      5.37E-08
   12    -833.4465504915      2.13E-08
   13    -833.4465504915      3.88E-09 Convergence criterion met
 ---------------------------------------
 SCF time:  CPU 131.67 s  wall 6.61 s
 SCF   energy in the final basis set = -833.4465504915
 Total energy in the final basis set = -833.4465504915
 
 --------------------------------------------------------------
 
                    Orbital Energies (a.u.)
 --------------------------------------------------------------
 
 Alpha MOs
 -- Occupied --
-18.937 -18.925 -18.871 -18.871 -18.868 -10.097 -10.093 -10.065
-10.061 -10.058 -10.056 -10.031 -10.029 -10.015 -10.013 -10.010
-10.003  -1.014  -1.004  -0.961  -0.935  -0.929  -0.760  -0.737
 -0.718  -0.674  -0.671  -0.655  -0.616  -0.588  -0.533  -0.511
 -0.479  -0.471  -0.452  -0.434  -0.424  -0.416  -0.414  -0.405
 -0.399  -0.384  -0.381  -0.377  -0.367  -0.363  -0.353  -0.342
 -0.336  -0.330  -0.310  -0.295  -0.292  -0.288  -0.287  -0.275
 -0.264  -0.253  -0.246  -0.222  -0.178  -0.170  -0.152  -0.142
 -0.134
 -- Virtual --
  0.096   0.116   0.234   0.259   0.271   0.288   0.306   0.324
  0.342   0.342   0.362   0.371   0.383   0.392   0.404   0.412
  0.414   0.421   0.427   0.427   0.431   0.433   0.438   0.440
  0.447   0.459   0.464   0.471   0.480   0.481   0.489   0.494
  0.509   0.515   0.550   0.557   0.652   0.658
 --------------------------------------------------------------
 
          Ground-State Mulliken Net Atomic Charges

     Atom                 Charge (a.u.)
  ----------------------------------------
      1 C                    -0.080622
      2 C                    -0.081105
      3 C                     0.212568
      4 C                     0.215228
      5 O                    -0.169285
      6 O                    -0.215198
      7 O                    -0.177951
      8 O                    -0.210556
      9 C                    -0.128084
     10 C                    -0.127435
     11 C                     0.104984
     12 C                    -0.145601
     13 C                    -0.144992
     14 C                     0.104876
     15 O                    -0.197642
     16 H                     0.084949
     17 H                     0.082790
     18 H                     0.086659
     19 H                     0.089838
     20 H                     0.074384
     21 H                     0.070742
     22 H                     0.073780
     23 H                     0.069245
     24 H                     0.086500
     25 H                     0.092340
     26 H                     0.088365
     27 H                     0.090022
     28 C                    -0.227541
     29 H                     0.077692
     30 H                     0.078208
     31 H                     0.100115
     32 C                    -0.227075
     33 H                     0.083489
     34 H                     0.084315
     35 H                     0.081997
  ----------------------------------------
  Sum of atomic charges =    -0.000000

 -----------------------------------------------------------------
                    Cartesian Multipole Moments
 -----------------------------------------------------------------
    Charge (ESU x 10^10)
                -0.0000
    Dipole Moment (Debye)
         X      -0.5708      Y       1.1025      Z       2.1647
       Tot       2.4954
    Quadrupole Moments (Debye-Ang)
        XX     -83.8877     XY      -0.7147     YY     -89.3321
        XZ       1.8412     YZ      -3.4908     ZZ     -96.7558
    Octopole Moments (Debye-Ang^2)
       XXX     -49.4223    XXY      -1.9198    XYY     -18.2566
       YYY      -0.8938    XXZ      -1.8866    XYZ       3.6657
       YYZ       0.0218    XZZ      -4.5218    YZZ      -0.0120
       ZZZ      -5.4109
    Hexadecapole Moments (Debye-Ang^3)
      XXXX   -2223.2176   XXXY     -20.2984   XXYY    -620.6149
      XYYY      -5.9451   YYYY   -1755.6120   XXXZ     -30.2219
      XXYZ      -8.2272   XYYZ      -6.3745   YYYZ     -40.2801
      XXZZ    -476.0465   XYZZ      -8.8354   YYZZ    -370.3656
      XZZZ      -6.6379   YZZZ      -8.1576   ZZZZ    -411.3444
 -----------------------------------------------------------------
 Calculating analytic gradient of the SCF energy
 Gradient of SCF Energy
            1           2           3           4           5           6
    1   0.0044436  -0.0039196  -0.0025238  -0.0067931  -0.0005246  -0.0001564
    2  -0.0012305   0.0022652   0.0069417   0.0039879  -0.0029872  -0.0016827
    3  -0.0081040   0.0027799   0.0016049   0.0025369  -0.0010302  -0.0003724
            7           8           9          10          11          12
    1   0.0024153   0.0017719   0.0040316   0.0037892  -0.0041487  -0.0016299
    2  -0.0019007  -0.0027111   0.0016290  -0.0019794   0.0014541   0.0003792
    3  -0.0017311  -0.0005298   0.0000577   0.0006680   0.0044725  -0.0012563
           13          14          15          16          17          18
    1  -0.0017160  -0.0032077   0.0033999  -0.0007839   0.0023752   0.0000485
    2  -0.0008077  -0.0022519  -0.0000302  -0.0017450  -0.0002081  -0.0002917
    3  -0.0008706   0.0003274  -0.0004758   0.0011242  -0.0002213   0.0001726
           19          20          21          22          23          24
    1  -0.0003337   0.0005627   0.0008524   0.0002144   0.0012859  -0.0000077
    2  -0.0001143  -0.0003385   0.0006630   0.0002875  -0.0001609   0.0002878
    3   0.0001296   0.0001382   0.0003486  -0.0001570   0.0004171   0.0002218
           25          26          27          28          29          30
    1  -0.0003219   0.0000151   0.0000653  -0.0016771   0.0002909  -0.0001942
    2  -0.0000591   0.0002097   0.0001198   0.0003343   0.0001860   0.0000596
    3  -0.0001840  -0.0001670   0.0002771   0.0022709  -0.0005455   0.0000696
           31          32          33          34          35
    1   0.0014508   0.0001192   0.0002836   0.0003774   0.0001451
    2   0.0008854  -0.0009731  -0.0003954   0.0001662   0.0000110
    3  -0.0019109   0.0011472  -0.0004727  -0.0009149   0.0001795
 Max gradient component =       8.104E-03
 RMS gradient           =       2.010E-03
 Gradient time:  CPU 27.52 s  wall 1.22 s
 Geometry Optimization Parameters
   NAtoms,    NIC,     NZ,  NCons,   NDum,   NFix, NCnnct, MaxDiis
       35     275       0       2       0       0       0       0

 Cartesian Hessian Update
 Hessian Updated using BFGS Update


** CONSTRAINED OPTIMIZATION IN DELOCALIZED INTERNAL COORDINATES **
   Searching for a Minimum

   Optimization Cycle:   3

                       Coordinates (Angstroms)
     ATOM                X               Y               Z
      1  C         0.1035230306    0.7172965392    0.6852122119
      2  C         0.4974494985   -0.8100727450    0.6891692882
      3  C        -1.2227666494    0.9949342298   -0.0946767208
      4  C        -0.6035989345   -1.7343497642    0.0566260744
      5  O        -1.9487382366    2.0082623724    0.5955725991
      6  O        -1.6293559510    0.4177282107   -1.1289157927
      7  O        -1.7540394257   -1.6376737617    0.9000867419
      8  O        -0.5258350576   -2.5015989771   -0.9271370567
      9  C        -2.8463700158   -2.4568894329    0.3427030061
     10  C        -3.2121384911    2.2870590613   -0.1157838760
     11  C         1.3698560006    1.3724400668   -0.0176144020
     12  C         2.5746352349    1.2988450477    1.0084539278
     13  C         2.9624734384   -0.2212953534    0.9304889814
     14  C         1.8865748364   -0.7774263483   -0.0945810260
     15  O         1.7388086077    0.3590211356   -1.0393006171
     16  H        -0.0306775188    1.0922097904    1.7157656209
     17  H         0.6701154294   -1.1612194158    1.7228639057
     18  H        -2.5835032479   -3.5349835685    0.3225984232
     19  H        -3.8427240365    1.3781262515   -0.2006990909
     20  H         3.4038313946    1.9370103185    0.6630302240
     21  H         2.2869585269    1.6228955638    2.0217028467
     22  H         3.9728940805   -0.3463781592    0.5088922334
     23  H         2.9307661611   -0.7301389900    1.9076512912
     24  H        -3.7146016396   -2.3027707759    1.0103625204
     25  H        -3.1102003375   -2.1393414310   -0.6873236988
     26  H        -3.0302410438    2.6849956083   -1.1355452819
     27  H        -3.7405592253    3.0485841736    0.4874164893
     28  C         2.3168743001   -2.0594859251   -0.8508890269
     29  H         3.3466494142   -1.9409304305   -1.2230913427
     30  H         2.2786223174   -2.9298568250   -0.1787749181
     31  H         1.6473869941   -2.2392879914   -1.7056770359
     32  C         1.1476350842    2.7552246713   -0.6806442622
     33  H         2.0903431893    3.1066815647   -1.1273677834
     34  H         0.3912375261    2.6842278357   -1.4779413623
     35  H         0.8113081199    3.4873703872    0.0696091394
   Point Group: c1    Number of degrees of freedom:    99


   Energy is   -833.446550492

              Constraints and their Current Values
                                        Value     Constraint
   Dihedral:        2   1   3   5      142.306      142.300
   Dihedral:        1   2   4   7      -64.593      -64.600
 Hessian Updated using BFGS Update

   Using Lagrange Multiplier Algorithm


 88 Hessian modes will be used to form the next step
  Hessian Eigenvalues:
    -0.977666   -0.976931    0.042530    0.045000    0.045002    0.045035
     0.045263    0.045479    0.048402    0.058752    0.060353    0.067314
     0.070133    0.071419    0.071663    0.075455    0.075992    0.078225
     0.080424    0.080962    0.081723    0.082825    0.083414    0.083590
     0.083629    0.084818    0.090105    0.091415    0.092040    0.106517
     0.108472    0.113538    0.113898    0.116030    0.116912    0.116997
     0.127323    0.131661    0.139897    0.144943    0.158785    0.160903
     0.162101    0.168164    0.185496    0.240499    0.244805    0.249393
     0.249995    0.250069    0.250434    0.260780    0.268485    0.269111
     0.283471    0.289864    0.305719    0.306870    0.308769    0.314503
     0.328159    0.337199    0.339014    0.341061    0.341083    0.341373
     0.341481    0.341963    0.342543    0.342662    0.342846    0.342870
     0.343295    0.343597    0.343683    0.343726    0.343759    0.343934
     0.344103    0.384119    0.398086    0.412043    0.478985    0.513315
     0.952291    0.989586    1.022943    1.028611

 Minimum Search - Taking P-RFO Step
 Searching for Lamda that Maximizes Along the Constraint modes Only
 Value Taken    Lamda =   0.00001590
 Searching for Lamda that Minimizes Along All other modes
 Value Taken    Lamda =  -0.00144575
 Step Taken.  Stepsize is  0.146488

                             Maximum     Tolerance    Cnvgd?
         Gradient            0.006892       0.000300      NO
         Displacement        0.043280       0.001200      NO
         Energy change     -0.006576       0.000001      NO


 New Cartesian Coordinates Obtained by Inverse Iteration

 Displacement from previous Coordinates is:  0.409228
 Adding empirical dispersion correction 
 ----------------------------------------------------------------
 Doing -D3(op) with
 s6 =   1.00000
 s8 =   0.78311
 a1 =   0.30000
 a2 =   4.25000
 n  =  10.00000
 -D3 energy without 3body term =     -0.0410596779 hartrees
 ----------------------------------------------------------------
             Standard Nuclear Orientation (Angstroms)
    I     Atom           X                Y                Z
 ----------------------------------------------------------------
    1      C       0.1157852637     0.7111077260     0.7056072097
    2      C       0.5180520225    -0.8215589843     0.7073709833
    3      C      -1.2136575080     0.9777087898    -0.0777786203
    4      C      -0.5868715014    -1.7373712257     0.0586623396
    5      O      -1.9561801036     1.9911390698     0.6119333215
    6      O      -1.6156520096     0.4035853624    -1.1155664517
    7      O      -1.7516140022    -1.6430481894     0.8990209070
    8      O      -0.5253834265    -2.4711796302    -0.9504363747
    9      C      -2.8690209569    -2.4190658843     0.3110726718
   10      C      -3.2252631618     2.2728957321    -0.1035037550
   11      C       1.3768596277     1.3650721857    -0.0218322768
   12      C       2.5905890764     1.3067683377     0.9980648034
   13      C       2.9879754278    -0.2108188162     0.9300965176
   14      C       1.9074640114    -0.7814713060    -0.0847964797
   15      O       1.7328745645     0.3441711041    -1.0391129415
   16      H      -0.0133594132     1.1018288241     1.7300040421
   17      H       0.6825747788    -1.1725126135     1.7420015135
   18      H      -2.6322245066    -3.5014573042     0.2524728286
   19      H      -3.8497696104     1.3609682911    -0.1971723371
   20      H       3.4097920959     1.9528950494     0.6440225988
   21      H       2.2979879608     1.6329478755     2.0088259431
   22      H       3.9970941931    -0.3374177407     0.5062233669
   23      H       2.9546194248    -0.7134948730     1.9097487475
   24      H      -3.7364996191    -2.2669150222     0.9798684854
   25      H      -3.1167607713    -2.0593026251    -0.7088153689
   26      H      -3.0407985378     2.6749616879    -1.1209374072
   27      H      -3.7588312638     3.0290769541     0.5015180634
   28      C       2.3322738899    -2.0736403938    -0.8333872603
   29      H       3.3543590841    -1.9594508618    -1.2253741654
   30      H       2.3090278683    -2.9327563395    -0.1459829646
   31      H       1.6353390943    -2.2710300357    -1.6609937224
   32      C       1.1257559430     2.7428265395    -0.6921500849
   33      H       2.0538859786     3.1091155685    -1.1560207485
   34      H       0.3524651186     2.6509752513    -1.4699826337
   35      H       0.7897043418     3.4736604300     0.0595714800
 ----------------------------------------------------------------
 Molecular Point Group                 C1    NOp =  1
 Largest Abelian Subgroup              C1    NOp =  1
 Nuclear Repulsion Energy =  1371.0570477752 hartrees
 There are       65 alpha and       65 beta electrons
 Applying Cartesian multipole field
    Component          Value
    ---------          -----
     (2,0,0)        1.00000E-11
     (0,2,0)        2.00000E-11
     (0,0,2)       -3.00000E-11
 Nucleus-field energy     =     0.0000000379 hartrees
 Requested basis set is STO-3G
 There are 52 shells and 103 basis functions
 A cutoff of  1.0D-12 yielded   1201 shell pairs
 There are      5182 function pairs
 Smallest overlap matrix eigenvalue = 2.13E-01
 Guess MOs from SCF MO coefficient file
 Reading MOs from coefficient file
 Reading MOs from coefficient file
 A restricted hybrid HF-DFT SCF calculation will be
 performed using Pulay DIIS extrapolation
 Exchange:     0.2000 Hartree-Fock + 0.0800 Slater + 0.7200 B88
 Correlation:  0.1900 VWN1RPA + 0.8100 LYP
 Using SG-1 standard quadrature grid
 Dispersion:   Grimme D3
 SCF converges when DIIS error is below 1.0E-08
 Geometry optimization detected.  Setting ReadMinima to 0
 Setting SaveMinima to 0
 -------------------------------------------------------
 OpenMP Integral computing Module                
 Release: version 1.0, May 2013, Q-Chem Inc. Pittsburgh 
 -------------------------------------------------------
 -------------------------------------------------------
 OpenMP BLAS3 based DFT computing Module                
 Release: version 1.0, May 2013, Q-Chem Inc. Pittsburgh 
 -------------------------------------------------------
 ---------------------------------------
  Cycle       Energy         DIIS Error
 ---------------------------------------
    1    -833.4294049665      1.77E-03
    2    -833.4471188218      3.81E-04
    3    -833.4462717399      8.52E-04
    4    -833.4473518970      6.98E-05
    5    -833.4473590886      2.44E-05
    6    -833.4473598202      1.19E-05
    7    -833.4473599893      6.10E-06
    8    -833.4473600461      1.02E-06
    9    -833.4473600479      1.41E-07
   10    -833.4473600479      3.13E-08
   11    -833.4473600479      1.44E-08
   12    -833.4473600479      1.98E-09 Convergence criterion met
 ---------------------------------------
 SCF time:  CPU 115.34 s  wall 5.69 s
 SCF   energy in the final basis set = -833.4473600479
 Total energy in the final basis set = -833.4473600479
 
 --------------------------------------------------------------
 
                    Orbital Energies (a.u.)
 --------------------------------------------------------------
 
 Alpha MOs
 -- Occupied --
-18.934 -18.922 -18.873 -18.871 -18.869 -10.096 -10.092 -10.064
-10.061 -10.057 -10.057 -10.032 -10.030 -10.015 -10.014 -10.011
-10.003  -1.010  -1.000  -0.961  -0.933  -0.927  -0.759  -0.736
 -0.718  -0.674  -0.670  -0.653  -0.616  -0.588  -0.532  -0.511
 -0.478  -0.470  -0.451  -0.434  -0.423  -0.415  -0.412  -0.403
 -0.399  -0.385  -0.381  -0.378  -0.367  -0.363  -0.352  -0.342
 -0.336  -0.329  -0.311  -0.295  -0.293  -0.288  -0.286  -0.275
 -0.263  -0.252  -0.246  -0.223  -0.176  -0.169  -0.152  -0.143
 -0.135
 -- Virtual --
  0.095   0.116   0.231   0.255   0.267   0.287   0.304   0.323
  0.339   0.340   0.359   0.369   0.381   0.390   0.402   0.409
  0.414   0.420   0.424   0.426   0.431   0.432   0.438   0.440
  0.448   0.457   0.463   0.470   0.480   0.481   0.487   0.495
  0.506   0.514   0.547   0.556   0.650   0.657
 --------------------------------------------------------------
 
          Ground-State Mulliken Net Atomic Charges

     Atom                 Charge (a.u.)
  ----------------------------------------
      1 C                    -0.080338
      2 C                    -0.080627
      3 C                     0.210787
      4 C                     0.213906
      5 O                    -0.169108
      6 O                    -0.214690
      7 O                    -0.177565
      8 O                    -0.209058
      9 C                    -0.129597
     10 C                    -0.128797
     11 C                     0.105321
     12 C                    -0.145746
     13 C                    -0.145290
     14 C                     0.105122
     15 O                    -0.196831
     16 H                     0.085140
     17 H                     0.082886
     18 H                     0.086459
     19 H                     0.089529
     20 H                     0.074723
     21 H                     0.071232
     22 H                     0.074422
     23 H                     0.070066
     24 H                     0.086648
     25 H                     0.092254
     26 H                     0.087995
     27 H                     0.090163
     28 C                    -0.228866
     29 H                     0.078075
     30 H                     0.077593
     31 H                     0.101332
     32 C                    -0.227391
     33 H                     0.083474
     34 H                     0.084778
     35 H                     0.081998
  ----------------------------------------
  Sum of atomic charges =    -0.000000

 -----------------------------------------------------------------
                    Cartesian Multipole Moments
 -----------------------------------------------------------------
    Charge (ESU x 10^10)
                -0.0000
    Dipole Moment (Debye)
         X      -0.5011      Y       1.1012      Z       2.1496
       Tot       2.4667
    Quadrupole Moments (Debye-Ang)
        XX     -83.6967     XY      -0.7382     YY     -89.3133
        XZ       1.9803     YZ      -3.4188     ZZ     -96.8473
    Octopole Moments (Debye-Ang^2)
       XXX     -50.7688    XXY      -1.6915    XYY     -18.1769
       YYY      -0.6349    XXZ      -2.3270    XYZ       3.3632
       YYZ      -0.5629    XZZ      -4.7509    YZZ       0.4889
       ZZZ      -5.7178
    Hexadecapole Moments (Debye-Ang^3)
      XXXX   -2237.8587   XXXY     -17.6641   XXYY    -621.1453
      XYYY      -2.7720   YYYY   -1737.0992   XXXZ     -32.2162
      XXYZ      -9.0140   XYYZ      -6.5565   YYYZ     -40.9428
      XXZZ    -479.2682   XYZZ      -8.0366   YYZZ    -368.0402
      XZZZ      -8.0229   YZZZ     -11.2706   ZZZZ    -411.5093
 -----------------------------------------------------------------
 Calculating analytic gradient of the SCF energy
 Gradient of SCF Energy
            1           2           3           4           5           6
    1   0.0028266  -0.0018355   0.0024501   0.0006528  -0.0004069  -0.0009479
    2   0.0006512  -0.0004017   0.0024472   0.0020163  -0.0014029  -0.0017236
    3  -0.0027705   0.0030761  -0.0001073   0.0002412   0.0010645  -0.0007692
            7           8           9          10          11          12
    1   0.0005027  -0.0001071  -0.0019038  -0.0015628  -0.0012737  -0.0001407
    2  -0.0001544  -0.0014727  -0.0004535   0.0011521   0.0008418  -0.0000995
    3  -0.0000010  -0.0005740   0.0005000   0.0001240   0.0027405   0.0004411
           13          14          15          16          17          18
    1   0.0003875  -0.0009620   0.0014260  -0.0008776   0.0015129  -0.0000046
    2  -0.0005956  -0.0006389   0.0001259  -0.0006956   0.0004486  -0.0001026
    3   0.0007331   0.0000429  -0.0017220   0.0001750  -0.0002485  -0.0001932
           19          20          21          22          23          24
    1  -0.0000427   0.0000815   0.0001928   0.0000892   0.0006263  -0.0004445
    2  -0.0000555  -0.0000816   0.0003118   0.0001835  -0.0001414  -0.0001600
    3  -0.0001969  -0.0002354   0.0000642  -0.0002745  -0.0000073  -0.0000897
           25          26          27          28          29          30
    1  -0.0000102  -0.0001568  -0.0003399  -0.0002330   0.0003730  -0.0006007
    2  -0.0002782  -0.0001364   0.0002082  -0.0005835  -0.0000525  -0.0001196
    3  -0.0001490  -0.0001804  -0.0000829  -0.0007829   0.0005079  -0.0002583
           31          32          33          34          35
    1   0.0007771  -0.0002156   0.0001041   0.0000244   0.0000392
    2   0.0005813   0.0005038  -0.0000827  -0.0001150   0.0000754
    3  -0.0004595  -0.0007043   0.0001076  -0.0000327   0.0000211
 Max gradient component =       3.076E-03
 RMS gradient           =       9.287E-04
 Gradient time:  CPU 26.89 s  wall 1.20 s
 Geometry Optimization Parameters
   NAtoms,    NIC,     NZ,  NCons,   NDum,   NFix, NCnnct, MaxDiis
       35     275       0       2       0       0       0       0

 Cartesian Hessian Update
 Hessian Updated using BFGS Update


** CONSTRAINED OPTIMIZATION IN DELOCALIZED INTERNAL COORDINATES **
   Searching for a Minimum

   Optimization Cycle:   4

                       Coordinates (Angstroms)
     ATOM                X               Y               Z
      1  C         0.1157852637    0.7111077260    0.7056072097
      2  C         0.5180520225   -0.8215589843    0.7073709833
      3  C        -1.2136575080    0.9777087898   -0.0777786203
      4  C        -0.5868715014   -1.7373712257    0.0586623396
      5  O        -1.9561801036    1.9911390698    0.6119333215
      6  O        -1.6156520096    0.4035853624   -1.1155664517
      7  O        -1.7516140022   -1.6430481894    0.8990209070
      8  O        -0.5253834265   -2.4711796302   -0.9504363747
      9  C        -2.8690209569   -2.4190658843    0.3110726718
     10  C        -3.2252631618    2.2728957321   -0.1035037550
     11  C         1.3768596277    1.3650721857   -0.0218322768
     12  C         2.5905890764    1.3067683377    0.9980648034
     13  C         2.9879754278   -0.2108188162    0.9300965176
     14  C         1.9074640114   -0.7814713060   -0.0847964797
     15  O         1.7328745645    0.3441711041   -1.0391129415
     16  H        -0.0133594132    1.1018288241    1.7300040421
     17  H         0.6825747788   -1.1725126135    1.7420015135
     18  H        -2.6322245066   -3.5014573042    0.2524728286
     19  H        -3.8497696104    1.3609682911   -0.1971723371
     20  H         3.4097920959    1.9528950494    0.6440225988
     21  H         2.2979879608    1.6329478755    2.0088259431
     22  H         3.9970941931   -0.3374177407    0.5062233669
     23  H         2.9546194248   -0.7134948730    1.9097487475
     24  H        -3.7364996191   -2.2669150222    0.9798684854
     25  H        -3.1167607713   -2.0593026251   -0.7088153689
     26  H        -3.0407985378    2.6749616879   -1.1209374072
     27  H        -3.7588312638    3.0290769541    0.5015180634
     28  C         2.3322738899   -2.0736403938   -0.8333872603
     29  H         3.3543590841   -1.9594508618   -1.2253741654
     30  H         2.3090278683   -2.9327563395   -0.1459829646
     31  H         1.6353390943   -2.2710300357   -1.6609937224
     32  C         1.1257559430    2.7428265395   -0.6921500849
     33  H         2.0538859786    3.1091155685   -1.1560207485
     34  H         0.3524651186    2.6509752513   -1.4699826337
     35  H         0.7897043418    3.4736604300    0.0595714800
   Point Group: c1    Number of degrees of freedom:    99


   Energy is   -833.447360048

              Constraints and their Current Values
                                        Value     Constraint
   Dihedral:        2   1   3   5      142.300      142.300
   Dihedral:        1   2   4   7      -64.600      -64.600
 Hessian Updated using BFGS Update

   Using Lagrange Multiplier Algorithm


 91 Hessian modes will be used to form the next step
  Hessian Eigenvalues:
    -0.977603   -0.974805    0.026019    0.045000    0.045002    0.045004
     0.045063    0.045380    0.045917    0.048137    0.057366    0.060395
     0.066960    0.070131    0.071373    0.071766    0.075191    0.075712
     0.078176    0.080730    0.081051    0.081757    0.083114    0.083414
     0.083608    0.083687    0.084825    0.090065    0.091600    0.092050
     0.106522    0.107916    0.113882    0.114520    0.115930    0.116914
     0.116998    0.127642    0.131442    0.139843    0.144909    0.158924
     0.160332    0.160990    0.162820    0.168253    0.186380    0.239344
     0.244550    0.249321    0.250000    0.250065    0.250097    0.250431
     0.260774    0.268521    0.282256    0.287507    0.291523    0.306077
     0.306952    0.308798    0.322653    0.327944    0.337390    0.339219
     0.341067    0.341123    0.341386    0.341595    0.342500    0.342653
     0.342815    0.342863    0.343030    0.343445    0.343601    0.343684
     0.343749    0.343891    0.344092    0.345388    0.382813    0.411985
     0.451382    0.512689    0.544125    0.952805    0.985600    1.023451
     1.033622

 Minimum Search - Taking P-RFO Step
 Searching for Lamda that Maximizes Along the Constraint modes Only
 Value Taken    Lamda =   0.00000117
 Searching for Lamda that Minimizes Along All other modes
 Value Taken    Lamda =  -0.00050420
 Step Taken.  Stepsize is  0.121348

                             Maximum     Tolerance    Cnvgd?
         Gradient            0.003685       0.000300      NO
         Displacement        0.042767       0.001200      NO
         Energy change     -0.000810       0.000001      NO


 New Cartesian Coordinates Obtained by Inverse Iteration

 Displacement from previous Coordinates is:  0.353523
 Adding empirical dispersion correction 
 ----------------------------------------------------------------
 Doing -D3(op) with
 s6 =   1.00000
 s8 =   0.78311
 a1 =   0.30000
 a2 =   4.25000
 n  =  10.00000
 -D3 energy without 3body term =     -0.0412292661 hartrees
 ----------------------------------------------------------------
             Standard Nuclear Orientation (Angstroms)
    I     Atom           X                Y                Z
 ----------------------------------------------------------------
    1      C       0.1180624967     0.7034953902     0.7204389120
    2      C       0.5258721241    -0.8300677607     0.7212840799
    3      C      -1.2131363777     0.9691374830    -0.0593870305
    4      C      -0.5762300776    -1.7415436463     0.0627259646
    5      O      -1.9527628987     1.9820504048     0.6373480532
    6      O      -1.6143913028     0.4099349090    -1.1047946293
    7      O      -1.7457045331    -1.6477897157     0.8997269828
    8      O      -0.5191423525    -2.4522014358    -0.9622384785
    9      C      -2.8633667510    -2.3934643093     0.2751480279
   10      C      -3.2159196380     2.2668530126    -0.0867477673
   11      C       1.3713860269     1.3564107479    -0.0291873444
   12      C       2.5931035420     1.3149557849     0.9823044507
   13      C       2.9962000129    -0.2001141887     0.9260584063
   14      C       1.9124098929    -0.7859050956    -0.0759114329
   15      O       1.7155278217     0.3275364557    -1.0398362328
   16      H      -0.0024036686     1.1038376125     1.7419500655
   17      H       0.6824813853    -1.1811772399     1.7573661100
   18      H      -2.6390384734    -3.4765168819     0.1872196700
   19      H      -3.8396409331     1.3553340119    -0.1897007520
   20      H       3.4051550207     1.9654409062     0.6203518861
   21      H       2.2999515158     1.6450809379     1.9914749682
   22      H       4.0040915367    -0.3299550127     0.5010657602
   23      H       2.9626962634    -0.6934401634     1.9103323125
   24      H      -3.7350740251    -2.2489180414     0.9395414506
   25      H      -3.0933499878    -1.9983549648    -0.7359490523
   26      H      -3.0229197729     2.6752747056    -1.1001089308
   27      H      -3.7517432082     3.0193666686     0.5202726265
   28      C       2.3335496552    -2.0875688373    -0.8103109223
   29      H       3.3459606065    -1.9757170183    -1.2261409127
   30      H       2.3310807800    -2.9322628695    -0.1045187512
   31      H       1.6146948266    -2.3082059432    -1.6133684136
   32      C       1.1013511122     2.7288480122    -0.7037186811
   33      H       2.0187442162     3.1027771334    -1.1823476758
   34      H       0.3161033086     2.6265613364    -1.4679513081
   35      H       0.7689952297     3.4595205452     0.0498508193
 ----------------------------------------------------------------
 Molecular Point Group                 C1    NOp =  1
 Largest Abelian Subgroup              C1    NOp =  1
 Nuclear Repulsion Energy =  1372.9167652918 hartrees
 There are       65 alpha and       65 beta electrons
 Applying Cartesian multipole field
    Component          Value
    ---------          -----
     (2,0,0)        1.00000E-11
     (0,2,0)        2.00000E-11
     (0,0,2)       -3.00000E-11
 Nucleus-field energy     =     0.0000000376 hartrees
 Requested basis set is STO-3G
 There are 52 shells and 103 basis functions
 A cutoff of  1.0D-12 yielded   1201 shell pairs
 There are      5182 function pairs
 Smallest overlap matrix eigenvalue = 2.13E-01
 Guess MOs from SCF MO coefficient file
 Reading MOs from coefficient file
 Reading MOs from coefficient file
 A restricted hybrid HF-DFT SCF calculation will be
 performed using Pulay DIIS extrapolation
 Exchange:     0.2000 Hartree-Fock + 0.0800 Slater + 0.7200 B88
 Correlation:  0.1900 VWN1RPA + 0.8100 LYP
 Using SG-1 standard quadrature grid
 Dispersion:   Grimme D3
 SCF converges when DIIS error is below 1.0E-08
 Geometry optimization detected.  Setting ReadMinima to 0
 Setting SaveMinima to 0
 -------------------------------------------------------
 OpenMP Integral computing Module                
 Release: version 1.0, May 2013, Q-Chem Inc. Pittsburgh 
 -------------------------------------------------------
 -------------------------------------------------------
 OpenMP BLAS3 based DFT computing Module                
 Release: version 1.0, May 2013, Q-Chem Inc. Pittsburgh 
 -------------------------------------------------------
 ---------------------------------------
  Cycle       Energy         DIIS Error
 ---------------------------------------
    1    -833.4445391812      1.27E-03
    2    -833.4476545686      1.31E-04
    3    -833.4476007977      2.49E-04
    4    -833.4476884042      4.86E-05
    5    -833.4476916336      1.76E-05
    6    -833.4476920861      6.49E-06
    7    -833.4476921435      2.53E-06
    8    -833.4476921529      6.73E-07
    9    -833.4476921536      1.17E-07
   10    -833.4476921537      5.06E-08
   11    -833.4476921536      1.09E-08
   12    -833.4476921536      3.70E-09 Convergence criterion met
 ---------------------------------------
 SCF time:  CPU 120.66 s  wall 5.60 s
 SCF   energy in the final basis set = -833.4476921536
 Total energy in the final basis set = -833.4476921536
 
 --------------------------------------------------------------
 
                    Orbital Energies (a.u.)
 --------------------------------------------------------------
 
 Alpha MOs
 -- Occupied --
-18.933 -18.922 -18.874 -18.871 -18.871 -10.096 -10.093 -10.064
-10.061 -10.057 -10.057 -10.031 -10.030 -10.015 -10.014 -10.012
-10.003  -1.010  -1.000  -0.962  -0.933  -0.928  -0.759  -0.736
 -0.719  -0.674  -0.669  -0.653  -0.616  -0.588  -0.531  -0.511
 -0.477  -0.470  -0.451  -0.434  -0.424  -0.416  -0.413  -0.403
 -0.399  -0.385  -0.381  -0.378  -0.367  -0.363  -0.352  -0.341
 -0.336  -0.329  -0.311  -0.295  -0.293  -0.289  -0.286  -0.275
 -0.263  -0.252  -0.247  -0.223  -0.176  -0.169  -0.152  -0.143
 -0.136
 -- Virtual --
  0.095   0.115   0.232   0.256   0.268   0.288   0.304   0.323
  0.338   0.340   0.358   0.369   0.381   0.391   0.401   0.408
  0.414   0.420   0.424   0.426   0.431   0.432   0.438   0.440
  0.448   0.456   0.463   0.470   0.480   0.481   0.486   0.496
  0.505   0.514   0.546   0.556   0.651   0.658
 --------------------------------------------------------------
 
          Ground-State Mulliken Net Atomic Charges

     Atom                 Charge (a.u.)
  ----------------------------------------
      1 C                    -0.080456
      2 C                    -0.080663
      3 C                     0.210524
      4 C                     0.214136
      5 O                    -0.169022
      6 O                    -0.215195
      7 O                    -0.176809
      8 O                    -0.208144
      9 C                    -0.129978
     10 C                    -0.129075
     11 C                     0.105688
     12 C                    -0.145839
     13 C                    -0.145477
     14 C                     0.105309
     15 O                    -0.196590
     16 H                     0.084954
     17 H                     0.082704
     18 H                     0.086642
     19 H                     0.089381
     20 H                     0.074845
     21 H                     0.071419
     22 H                     0.074789
     23 H                     0.070382
     24 H                     0.086430
     25 H                     0.092537
     26 H                     0.087830
     27 H                     0.089835
     28 C                    -0.229870
     29 H                     0.078075
     30 H                     0.076867
     31 H                     0.102171
     32 C                    -0.227631
     33 H                     0.083426
     34 H                     0.084841
[...]
 C          0.000  0.000 -0.000    0.000  0.000 -0.000   -0.001  0.000 -0.001
 C         -0.000 -0.000  0.000    0.015  0.032  0.021    0.020  0.040  0.021
 C         -0.001  0.001 -0.001   -0.032  0.022 -0.030    0.010 -0.013  0.018
 C          0.000  0.000 -0.000    0.000  0.000  0.000   -0.001 -0.001 -0.001
 O         -0.000 -0.000  0.000   -0.000 -0.000 -0.000    0.000 -0.000  0.000
 H          0.001 -0.001 -0.003   -0.007  0.023  0.062    0.003 -0.010 -0.030
 H         -0.003  0.007 -0.023   -0.043  0.086 -0.293    0.085 -0.171  0.585
 H         -0.108  0.417  0.010    0.007 -0.026 -0.001   -0.005  0.021  0.000
 H          0.268  0.356  0.048    0.001  0.002  0.000    0.001  0.001  0.000
 H          0.001  0.001 -0.001   -0.301 -0.243  0.152   -0.375 -0.303  0.189
 H          0.000 -0.000 -0.001    0.134 -0.137 -0.396    0.148 -0.150 -0.431
 H          0.017 -0.001 -0.007    0.411 -0.031 -0.160   -0.134  0.009  0.056
 H         -0.002 -0.009  0.019   -0.045 -0.236  0.504    0.023  0.129 -0.270
 H          0.228 -0.052 -0.207   -0.014  0.003  0.013    0.011 -0.003 -0.010
 H          0.110 -0.140  0.386   -0.007  0.009 -0.024    0.006 -0.007  0.020
 H         -0.102 -0.197  0.423   -0.000 -0.001  0.002   -0.000 -0.000  0.001
 H          0.131 -0.215 -0.199    0.001 -0.001 -0.001    0.000 -0.000 -0.000
 C          0.001 -0.001  0.000   -0.005  0.005  0.000    0.000 -0.000  0.000
 H         -0.010 -0.003  0.004    0.072  0.019 -0.029   -0.001 -0.001  0.000
 H         -0.001  0.010 -0.008    0.006 -0.066  0.054    0.000  0.002 -0.002
 H          0.003  0.001  0.004   -0.022 -0.010 -0.030   -0.001  0.001  0.000
 C         -0.000  0.000  0.000   -0.001  0.003 -0.002   -0.001  0.003 -0.001
 H         -0.001 -0.000  0.001   -0.037 -0.015  0.019   -0.027 -0.011  0.014
 H          0.003  0.001  0.003    0.032  0.007  0.034    0.029  0.005  0.030
 H          0.002 -0.004 -0.004    0.017 -0.033 -0.032    0.014 -0.027 -0.025
 TransDip  -0.226 -0.016 -0.045   -0.066  0.163 -0.004    0.086  0.119  0.049

 Mode:                88                     89                     90
 Frequency:      3067.56                3090.53                3099.48
 Force Cnst:      5.9413                 6.2292                 6.2387
 Red. Mass:       1.0716                 1.1069                 1.1022
 IR Active:          YES                    YES                    YES
 IR Intens:       28.929                  0.218                 12.640
 Raman Active:       YES                    YES                    YES
               X      Y      Z        X      Y      Z        X      Y      Z
 C         -0.001  0.004  0.010   -0.001  0.002  0.007   -0.001  0.002  0.006
 C         -0.007  0.016 -0.054    0.001 -0.003  0.009    0.000 -0.000  0.001
 C          0.000 -0.000  0.000   -0.000  0.000  0.000   -0.000  0.000  0.000
 C          0.000 -0.000 -0.001   -0.000  0.000  0.000    0.000 -0.000 -0.000
 O         -0.000  0.000 -0.000    0.000 -0.000 -0.000   -0.000 -0.000 -0.000
 O         -0.000 -0.000 -0.000    0.000 -0.000  0.000    0.000 -0.000 -0.000
 O         -0.000 -0.000  0.000   -0.000 -0.000 -0.000   -0.000  0.000  0.000
 O         -0.000  0.000  0.000    0.000 -0.000 -0.000   -0.000  0.000  0.000
 C         -0.000 -0.001 -0.000    0.000  0.000 -0.000   -0.000  0.000  0.000
 C          0.000 -0.000  0.000   -0.000 -0.000  0.000    0.000  0.000 -0.000
 C          0.001 -0.001  0.000    0.001  0.000 -0.000    0.000  0.000 -0.000
 C         -0.008 -0.020 -0.012    0.042  0.011 -0.052    0.017  0.004 -0.020
 C         -0.034  0.018 -0.017   -0.041 -0.011  0.046    0.002  0.001 -0.004
 C         -0.000  0.001  0.000   -0.000 -0.000  0.000   -0.001 -0.001  0.001
 O          0.000 -0.000  0.000   -0.000  0.000  0.000   -0.000  0.000 -0.000
 H          0.013 -0.043 -0.118    0.007 -0.029 -0.078    0.007 -0.025 -0.069
 H          0.094 -0.191  0.653   -0.016  0.034 -0.115   -0.001  0.003 -0.011
 H         -0.002  0.009  0.000    0.000 -0.001 -0.000    0.001 -0.003 -0.000
 H         -0.004 -0.005 -0.001    0.000  0.000  0.000   -0.001 -0.001 -0.000
 H          0.172  0.139 -0.088   -0.360 -0.300  0.167   -0.143 -0.119  0.067
 H         -0.079  0.082  0.231   -0.144  0.170  0.457   -0.055  0.065  0.173
 H          0.428 -0.034 -0.161    0.466 -0.042 -0.163   -0.024  0.004  0.010
 H         -0.033 -0.172  0.365    0.020  0.179 -0.380   -0.002 -0.017  0.031
 H          0.005 -0.001 -0.004   -0.001  0.000  0.001    0.000 -0.000 -0.000
 H          0.002 -0.002  0.007   -0.000  0.000 -0.001    0.000 -0.000  0.000
 H          0.002  0.003 -0.007    0.000  0.000 -0.001    0.000  0.000 -0.000
 H         -0.002  0.003  0.003   -0.000  0.000  0.000   -0.000  0.000  0.000
 C         -0.003  0.004  0.000    0.009  0.011 -0.010   -0.043 -0.054  0.054
 H          0.052  0.013 -0.021   -0.114 -0.028  0.041    0.608  0.145 -0.222
 H          0.005 -0.052  0.041    0.013 -0.110  0.090   -0.065  0.526 -0.429
 H         -0.020 -0.009 -0.026   -0.002  0.001 -0.009   -0.023 -0.019 -0.001
 C          0.000 -0.001  0.001   -0.006  0.000  0.002   -0.003  0.000  0.001
 H          0.010  0.004 -0.005    0.044  0.017 -0.021    0.025  0.010 -0.012
 H         -0.009 -0.001 -0.010    0.013  0.003  0.016    0.006  0.002  0.008
 H         -0.005  0.009  0.008    0.010 -0.022 -0.021    0.006 -0.014 -0.013
 TransDip  -0.118  0.052 -0.114    0.005  0.010 -0.010   -0.072 -0.061  0.064

 Mode:                91                     92                     93
 Frequency:      3108.46                3110.52                3116.46
 Force Cnst:      6.2816                 6.2749                 6.3099
 Red. Mass:       1.1034                 1.1007                 1.1027
 IR Active:          YES                    YES                    YES
 IR Intens:       14.804                 29.138                 20.324
 Raman Active:       YES                    YES                    YES
               X      Y      Z        X      Y      Z        X      Y      Z
 C          0.003 -0.009 -0.025    0.003 -0.008 -0.024   -0.000  0.002  0.003
 C          0.000 -0.000  0.002   -0.000  0.001 -0.001    0.000 -0.000  0.001
 C          0.000 -0.001 -0.001    0.001 -0.000 -0.000    0.000  0.000 -0.000
 C          0.000  0.000  0.000    0.000  0.000  0.000   -0.000  0.000  0.000
 O         -0.000  0.000  0.000   -0.000 -0.000  0.000    0.000 -0.000 -0.000
 O          0.000  0.000  0.000    0.000  0.000 -0.000   -0.000 -0.000  0.000
 O         -0.000 -0.000  0.000   -0.000 -0.000  0.000    0.000 -0.000  0.000
 O         -0.000 -0.000 -0.000   -0.000 -0.000 -0.000    0.000 -0.000 -0.000
 C         -0.000  0.000 -0.000    0.000 -0.000  0.000    0.000 -0.001  0.000
 C          0.000  0.001 -0.001   -0.000 -0.001  0.001   -0.001 -0.002  0.002
 C         -0.000 -0.000 -0.000   -0.001  0.000  0.002   -0.002 -0.001 -0.001
 C         -0.028 -0.009  0.033   -0.016 -0.005  0.018   -0.008 -0.002  0.010
 C         -0.040 -0.012  0.045   -0.017 -0.005  0.019   -0.005 -0.002  0.006
 C         -0.001 -0.001  0.001   -0.001 -0.000  0.001   -0.000 -0.000  0.000
 O          0.000  0.000 -0.000    0.000 -0.000 -0.000    0.000  0.000  0.000
 H         -0.032  0.110  0.298   -0.029  0.102  0.276    0.005 -0.016 -0.042
 H         -0.001  0.006 -0.022    0.003 -0.004  0.012   -0.002  0.004 -0.015
 H          0.001 -0.004 -0.000   -0.000  0.000  0.000   -0.001  0.005  0.000
 H         -0.003 -0.004 -0.001    0.004  0.005  0.001    0.011  0.016  0.003
 H          0.246  0.208 -0.116    0.140  0.117 -0.064    0.073  0.060 -0.033
 H          0.087 -0.105 -0.272    0.046 -0.056 -0.147    0.025 -0.030 -0.080
 H          0.456 -0.043 -0.159    0.195 -0.019 -0.068    0.062 -0.006 -0.022
 H          0.020  0.180 -0.375    0.008  0.075 -0.157    0.003  0.026 -0.053
 H         -0.000 -0.000 -0.000   -0.000  0.000  0.000   -0.000  0.000  0.001
 H          0.000 -0.000  0.000   -0.001  0.001 -0.002   -0.001  0.002 -0.005
 H         -0.002 -0.004  0.009    0.001  0.003 -0.006    0.005  0.009 -0.021
 H          0.001 -0.001 -0.001   -0.000 -0.000 -0.000    0.001 -0.003 -0.002
 C         -0.009 -0.011  0.012   -0.004 -0.004  0.005   -0.001 -0.001  0.001
 H          0.137  0.031 -0.051    0.055  0.013 -0.021    0.014  0.003 -0.005
 H         -0.014  0.108 -0.088   -0.005  0.041 -0.034   -0.001  0.010 -0.008
 H         -0.011 -0.007 -0.010   -0.005 -0.003 -0.004   -0.002 -0.001 -0.002
 C          0.033 -0.008 -0.029   -0.042  0.023  0.065   -0.073 -0.036 -0.041
 H         -0.296 -0.125  0.146    0.453  0.195 -0.221    0.423  0.172 -0.231
 H          0.006 -0.002 -0.008   -0.161 -0.027 -0.141    0.552  0.113  0.573
 H         -0.104  0.222  0.208    0.215 -0.447 -0.418   -0.094  0.153  0.146
 TransDip  -0.082 -0.064  0.066   -0.124 -0.025  0.118   -0.134 -0.054 -0.009

 Mode:                94                     95                     96
 Frequency:      3118.63                3122.13                3123.48
 Force Cnst:      6.2422                 6.3575                 6.3640
 Red. Mass:       1.0893                 1.1070                 1.1071
 IR Active:          YES                    YES                    YES
 IR Intens:       26.049                 20.230                 14.176
 Raman Active:       YES                    YES                    YES
               X      Y      Z        X      Y      Z        X      Y      Z
 C          0.007 -0.026 -0.069    0.000  0.000 -0.000   -0.000  0.000  0.000
 C         -0.002  0.004 -0.010   -0.000  0.000 -0.000    0.000 -0.000  0.000
 C          0.001 -0.001 -0.001   -0.000 -0.000  0.000    0.000  0.000  0.000
 C          0.000  0.000 -0.000    0.000  0.000 -0.000   -0.000 -0.000 -0.000
 O         -0.000  0.000  0.000   -0.000 -0.000  0.000   -0.000 -0.000  0.000
 O          0.000  0.000  0.001   -0.000 -0.000  0.000   -0.000 -0.000 -0.000
 O         -0.000 -0.000  0.000   -0.000 -0.000  0.000   -0.000  0.000 -0.000
 O         -0.000  0.000  0.000   -0.000 -0.000  0.000    0.000  0.000 -0.000
 C          0.000 -0.001  0.001   -0.003  0.008 -0.005    0.031 -0.075  0.048
 C         -0.001 -0.000  0.000    0.048  0.067 -0.046    0.005  0.007 -0.005
 C          0.000 -0.001 -0.001   -0.000 -0.000  0.000    0.000  0.000 -0.000
 C          0.018  0.002 -0.026    0.000 -0.000 -0.000   -0.000  0.000  0.000
 C          0.014  0.005 -0.018    0.000  0.000 -0.000   -0.000 -0.000  0.000
 C         -0.000  0.001 -0.001    0.000  0.000 -0.000    0.000 -0.000  0.000
 O         -0.000  0.000  0.001    0.000 -0.000  0.000   -0.000  0.000 -0.000
 H         -0.090  0.302  0.821   -0.001  0.002  0.004    0.001 -0.002 -0.006
 H          0.019 -0.041  0.131    0.000 -0.001  0.002   -0.000  0.001 -0.002
 H         -0.001  0.005  0.000    0.019 -0.071 -0.003   -0.181  0.683  0.032
 H          0.006  0.008  0.001   -0.417 -0.563 -0.094   -0.042 -0.056 -0.009
 H         -0.142 -0.119  0.067   -0.000 -0.000  0.000    0.000  0.000 -0.000
 H         -0.079  0.093  0.249   -0.000  0.000  0.001    0.000 -0.000 -0.001
 H         -0.158  0.016  0.055   -0.002  0.000  0.001    0.001 -0.000 -0.000
 H         -0.008 -0.075  0.155   -0.000 -0.001  0.002    0.000  0.001 -0.002
 H          0.001 -0.000 -0.001    0.004  0.000 -0.005   -0.022 -0.008  0.034
 H         -0.001  0.002 -0.005    0.016 -0.021  0.062   -0.170  0.213 -0.636
 H          0.000 -0.000  0.001   -0.143 -0.271  0.620   -0.015 -0.028  0.063
 H          0.002 -0.004 -0.004   -0.009  0.043  0.018   -0.002  0.006  0.004
 C          0.002  0.002 -0.002    0.000  0.000 -0.000   -0.000 -0.000  0.000
 H         -0.026 -0.006  0.010   -0.001 -0.000  0.001    0.001  0.000 -0.001
 H          0.003 -0.020  0.016    0.000 -0.001  0.001   -0.000  0.002 -0.002
 H          0.001  0.001  0.001    0.000  0.000 -0.000   -0.000 -0.000 -0.000
 C         -0.002 -0.007 -0.013   -0.003 -0.001 -0.000    0.000  0.000  0.000
 H         -0.010 -0.005  0.003    0.020  0.008 -0.010   -0.003 -0.001  0.001
 H          0.075  0.014  0.076    0.017  0.004  0.018   -0.003 -0.001 -0.003
 H         -0.040  0.081  0.074    0.000 -0.002 -0.002    0.000 -0.001 -0.001
 TransDip   0.054 -0.028 -0.151    0.069  0.103 -0.073    0.038 -0.102  0.053

 Mode:                97                     98                     99
 Frequency:      3152.51                3156.22                3165.50
 Force Cnst:      6.4790                 6.4920                 6.4733
 Red. Mass:       1.1065                 1.1061                 1.0965
 IR Active:          YES                    YES                    YES
 IR Intens:       14.028                 14.393                  2.201
 Raman Active:       YES                    YES                    YES
               X      Y      Z        X      Y      Z        X      Y      Z
 C         -0.000  0.000  0.000    0.000  0.000 -0.000    0.000 -0.000 -0.000
 C          0.000 -0.000 -0.000   -0.000  0.000 -0.000    0.000 -0.000 -0.000
 C         -0.000  0.000  0.000   -0.001 -0.000 -0.001    0.000 -0.000 -0.000
 C          0.000  0.001  0.001   -0.000  0.000 -0.000    0.000 -0.000 -0.000
 O          0.000 -0.000 -0.000   -0.000  0.000  0.000   -0.000  0.000  0.000
 O         -0.000 -0.000 -0.000    0.000  0.000  0.000    0.000  0.000  0.000
 O          0.000 -0.000 -0.000    0.000 -0.000  0.000   -0.000  0.000  0.000
 O         -0.000 -0.000 -0.000    0.000 -0.000  0.000   -0.001 -0.000  0.000
 C         -0.052  0.026  0.075    0.000  0.000 -0.001    0.000 -0.000 -0.000
 C         -0.000 -0.001 -0.000    0.019 -0.062 -0.069    0.000 -0.000 -0.000
 C          0.000  0.000  0.000   -0.000 -0.000  0.000    0.000 -0.000 -0.000
 C         -0.000  0.000  0.000    0.000 -0.000 -0.000   -0.000  0.000 -0.000
 C         -0.000 -0.000  0.000   -0.000  0.000 -0.000   -0.001  0.000  0.001
 C          0.000  0.000  0.000   -0.000  0.000 -0.000   -0.001  0.000 -0.001
 O         -0.000 -0.000 -0.000    0.000  0.000  0.000    0.000 -0.000  0.000
 H          0.000 -0.001 -0.002    0.000  0.000  0.002   -0.000  0.001  0.002
 H         -0.000 -0.000 -0.001    0.000 -0.000  0.000   -0.000 -0.001  0.003
 H          0.067 -0.281  0.008    0.000 -0.001 -0.000   -0.000  0.002 -0.000
 H          0.003  0.004  0.001    0.201  0.257  0.023    0.000  0.000  0.000
 H         -0.000 -0.000  0.000    0.000  0.000 -0.000    0.000  0.000 -0.000
 H          0.000 -0.000 -0.001   -0.000  0.000  0.001   -0.000  0.000  0.002
 H          0.000 -0.000 -0.000    0.000 -0.000 -0.000    0.011  0.000 -0.003
 H          0.000  0.000 -0.000   -0.000 -0.000  0.000    0.000  0.002 -0.005
 H          0.648 -0.146 -0.590   -0.003  0.001  0.003   -0.003  0.001  0.002
 H         -0.099  0.122 -0.306    0.001 -0.001  0.004    0.000 -0.000  0.001
 H          0.000  0.000 -0.001   -0.060 -0.128  0.238   -0.000 -0.000  0.000
 H         -0.002  0.003  0.003   -0.366  0.603  0.556   -0.000  0.001  0.001
 C         -0.000  0.000 -0.000    0.000  0.000  0.000   -0.063 -0.014 -0.063
 H         -0.000 -0.000  0.000    0.000  0.000 -0.000    0.198  0.052 -0.086
 H          0.000 -0.001  0.001   -0.000  0.000 -0.000    0.004 -0.152  0.113
 H          0.003  0.001  0.003   -0.001 -0.000 -0.001    0.563  0.266  0.720
 C         -0.000  0.000  0.000   -0.000 -0.000 -0.000   -0.000 -0.000 -0.000
 H         -0.000 -0.000  0.000    0.001  0.001 -0.001    0.000  0.000 -0.000
 H         -0.000  0.000 -0.000    0.001  0.000  0.002    0.001  0.000  0.001
 H          0.000 -0.000 -0.000   -0.000  0.001  0.001   -0.000  0.001  0.000
 TransDip  -0.083  0.022  0.084    0.045 -0.084 -0.075   -0.024 -0.005 -0.041

 STANDARD THERMODYNAMIC QUANTITIES AT   298.15 K  AND     1.00 ATM

   This Molecule has  0 Imaginary Frequencies
   Zero point vibrational energy:      183.652 kcal/mol

   Atom    1 Element C  Has Mass   12.00000
   Atom    2 Element C  Has Mass   12.00000
   Atom    3 Element C  Has Mass   12.00000
   Atom    4 Element C  Has Mass   12.00000
   Atom    5 Element O  Has Mass   15.99491
   Atom    6 Element O  Has Mass   15.99491
   Atom    7 Element O  Has Mass   15.99491
   Atom    8 Element O  Has Mass   15.99491
   Atom    9 Element C  Has Mass   12.00000
   Atom   10 Element C  Has Mass   12.00000
   Atom   11 Element C  Has Mass   12.00000
   Atom   12 Element C  Has Mass   12.00000
   Atom   13 Element C  Has Mass   12.00000
   Atom   14 Element C  Has Mass   12.00000
   Atom   15 Element O  Has Mass   15.99491
   Atom   16 Element H  Has Mass    1.00783
   Atom   17 Element H  Has Mass    1.00783
   Atom   18 Element H  Has Mass    1.00783
   Atom   19 Element H  Has Mass    1.00783
   Atom   20 Element H  Has Mass    1.00783
   Atom   21 Element H  Has Mass    1.00783
   Atom   22 Element H  Has Mass    1.00783
   Atom   23 Element H  Has Mass    1.00783
   Atom   24 Element H  Has Mass    1.00783
   Atom   25 Element H  Has Mass    1.00783
   Atom   26 Element H  Has Mass    1.00783
   Atom   27 Element H  Has Mass    1.00783
   Atom   28 Element C  Has Mass   12.00000
   Atom   29 Element H  Has Mass    1.00783
   Atom   30 Element H  Has Mass    1.00783
   Atom   31 Element H  Has Mass    1.00783
   Atom   32 Element C  Has Mass   12.00000
   Atom   33 Element H  Has Mass    1.00783
   Atom   34 Element H  Has Mass    1.00783
   Atom   35 Element H  Has Mass    1.00783
   Molecular Mass:   242.115490 amu
   Principal axes and moments of inertia in amu*Bohr^2:
                             1           2           3
    Eigenvalues --     2977.61029  3615.86491  5612.82750
          X               0.99991    -0.01182     0.00562
          Y               0.01185     0.99992    -0.00471
          Z              -0.00556     0.00478     0.99997
   Rotational Symmetry Number is   1
   The Molecule is an Asymmetric Top
   Translational Enthalpy:        0.889 kcal/mol
   Rotational Enthalpy:           0.889 kcal/mol
   Vibrational Enthalpy:        192.702 kcal/mol
   gas constant (RT):             0.592 kcal/mol
   Translational Entropy:        42.354  cal/mol.K
   Rotational Entropy:           32.469  cal/mol.K
   Vibrational Entropy:          58.044  cal/mol.K

   Total Enthalpy:              195.072 kcal/mol
   Total Entropy:               132.867  cal/mol.K
Archival summary:
1\1\nid04271\FREQ\ProcedureUnspecified\BasisUnspecified\51218\junteng\WedOct423:51:352017WedOct423:51:352017\0\\#,FREQ,ProcedureUnspecified,BasisUnspecified,\\0,1\O\C,1,1.43116\C,1,1.44184,2,99.1187\C,2,1.51291,1,110.857,3,179.378,0\H,4,1.09146,2,110.815,1,56.8593,0\H,4,1.09188,2,109.685,1,-62.6521,0\H,4,1.09288,2,110.557,1,177.613,0\C,3,1.51344,1,110.723,2,-176.355,0\H,8,1.08661,3,111.106,1,-55.4042,0\H,8,1.09259,3,109.174,1,65.6029,0\H,8,1.09338,3,110.34,1,-175.317,0\C,2,1.55002,1,102.604,3,55.1275,0\H,12,1.09168,2,112.529,1,-155.453,0\H,12,1.09184,2,109.577,1,84.5118,0\C,12,1.54976,2,101.447,1,-33.351,0\H,15,1.09125,12,111.24,2,117.072,0\H,15,1.09196,12,113.728,2,-120.997,0\C,3,1.56392,1,102.153,2,55.65,0\H,18,1.093,3,110.015,1,-147.829,0\C,18,1.52253,3,117.964,1,92.5025,0\O,20,1.2018,18,128.21,3,3.25387,0\O,20,1.35679,18,108.573,3,-179.899,0\C,22,1.43912,20,115.76,18,174.728,0\H,23,1.08806,22,105.476,20,-179.408,0\H,23,1.09096,22,110.731,20,60.958,0\H,23,1.09119,22,109.843,20,-60.0483,0\C,18,1.56718,3,101.744,1,-32.9286,0\H,27,1.08839,18,111.707,3,-117.658,0\C,27,1.51199,18,115.359,3,119.176,0\O,29,1.20568,27,126.454,18,-38.7105,0\O,29,1.35289,27,110.224,18,144.127,0\C,31,1.43953,29,115.906,27,176.732,0\H,32,1.08777,31,105.475,29,177.894,0\H,32,1.09089,31,110.462,29,58.2929,0\H,32,1.09128,31,110.487,29,-62.5695,0\\\@

 Total job time:  14028.65s(wall), 84442.06s(cpu) 
 Wed Oct  4 23:51:35 2017

        *************************************************************
        *                                                           *
        *  Thank you very much for using Q-Chem.  Have a nice day.  *
        *                                                           *
        *************************************************************


