nid04268 10.128.16
Q-Chem Developer Version! Running on 10.128.16.*
                  Welcome to Q-Chem
     A Quantum Leap Into The Future Of Chemistry


 Q-Chem 5.0, Q-Chem, Inc., Pleasanton, CA (2017)

 Yihan Shao,  Zhengting Gan,  E. Epifanovsky,  A. T. B. Gilbert,  M. Wormit,  
 J. Kussmann,  A. W. Lange,  A. Behn,  Jia Deng,  Xintian Feng,  D. Ghosh,  
 M. Goldey,  P. R. Horn,  L. D. Jacobson,  I. Kaliman,  T. Kus,  A. Landau,  
 Jie Liu,  E. I. Proynov,  R. M. Richard,  R. P. Steele,  E. J. Sundstrom,  
 H. L. Woodcock III,  P. M. Zimmerman,  D. Zuev,  B. Albrecht,  E. Alguire,  
 S. A. Baeppler,  Z. Benda,  Y. A. Bernard,  E. J. Berquist,  K. B. Bravaya,  
 D. Casanova,  Chun-Min Chang,  Yunqing Chen,  A. Chien,  K. D. Closser,  
 M. P. Coons,  S. Dasgupta,  M. Diedenhofen,  Hainam Do,  R. G. Edgar,  
 Po-Tung Fang,  S. Fatehi,  Qingguo Feng,  Qinghui Ge,  A. Ghysels,  
 J. Gomes,  J. Gonthier,  A. Gunina,  M. W. D. Hanson-Heine,  
 P. H. P. Harbach,  A. W. Hauser,  J. E. Herr,  E. G. Hohenstein,  
 Z. C. Holden,  Kerwin Hui,  T.-C. Jagau,  Hyunjun Ji,  B. Kaduk,  
 K. Khistyaev,  Jaehoon Kim,  P. Klunzinger,  K. Koh,  D. Kosenkov,  
 T. Kowalczyk,  C. M. Krauter,  A. Kunitsa,  Ka Un Lao,  A. Laurent,  
 K. V. Lawler,  Joonho Lee,  D. Lefrancois,  S. Lehtola,  D. S. Levine,  
 Yi-Pei Li,  You-Sheng Lin,  Fenglai Liu,  E. Livshits,  A. Luenser,  
 P. Manohar,  E. Mansoor,  S. F. Manzer,  Shan-Ping Mao,  Yuezhi Mao,  
 N. Mardirossian,  A. V. Marenich,  L. A. Martinez-Martinez,  S. A. Maurer,  
 N. J. Mayhall,  S. C. McKenzie,  J.-M. Mewes,  A. F. Morrison,  K. Nanda,  
 T. S. Nguyen-Beck,  R. Olivares-Amaya,  J. A. Parkhill,  T. M. Perrine,  
 F. Plasser,  S. Prager,  A. Prociuk,  D. R. Rehn,  F. Rob,  M. Schneider,  
 N. Sergueev,  S. M. Sharada,  S. Sharma,  D. W. Small,  T. Stauch,  
 T. Stein,  Yu-Chuan Su,  A. J. W. Thom,  T. Tsuchimochi,  L. Vogt,  
 O. Vydrov,  M. A. Watson,  J. Wenzel,  M. de Wergifosse,  T. A. Wesolowski,  
 A. White,  J. Witte,  A. Yamada,  Jun Yang,  K. Yao,  S. Yeganeh,  
 S. R. Yost,  Zhi-Qiang You,  A. Zech,  Igor Ying Zhang,  Xing Zhang,  
 Yan Zhao,  Ying Zhu,  B. R. Brooks,  G. K. L. Chan,  C. J. Cramer,  
 M. S. Gordon,  W. J. Hehre,  A. Klamt,  M. W. Schmidt,  C. D. Sherrill,  
 D. G. Truhlar,  A. Aspuru-Guzik,  R. Baer,  A. T. Bell,  N. A. Besley,  
 Jeng-Da Chai,  A. Dreuw,  B. D. Dunietz,  T. R. Furlani,  Chao-Ping Hsu,  
 Yousung Jung,  Jing Kong,  D. S. Lambrecht,  WanZhen Liang,  C. Ochsenfeld,  
 V. A. Rassolov,  L. V. Slipchenko,  J. E. Subotnik,  T. Van Voorhis,  
 J. M. Herbert,  A. I. Krylov,  P. M. W. Gill,  M. Head-Gordon

 Contributors to earlier versions of Q-Chem not listed above: 
 R. D. Adamson,  B. Austin,  J. Baker,  G. J. O. Beran,  K. Brandhorst,  
 S. T. Brown,  E. F. C. Byrd,  A. K. Chakraborty,  C.-L. Cheng,  
 Siu Hung Chien,  D. M. Chipman,  D. L. Crittenden,  H. Dachsel,  
 R. A. DiStasio Jr.,  R. J. Doerksen,  A. D. Dutoi,  L. Fusti-Molnar,  
 W. A. Goddard III,  A. Golubeva-Zadorozhnaya,  S. R. Gwaltney,  G. Hawkins,  
 A. Heyden,  S. Hirata,  G. Kedziora,  F. J. Keil,  C. Kelley,  Jihan Kim,  
 R. A. King,  R. Z. Khaliullin,  P. P. Korambath,  W. Kurlancheek,  
 A. M. Lee,  M. S. Lee,  S. V. Levchenko,  Ching Yeh Lin,  D. Liotard,  
 R. C. Lochan,  I. Lotan,  P. E. Maslen,  N. Nair,  D. P. O'Neill,  
 D. Neuhauser,  E. Neuscamman,  C. M. Oana,  R. Olson,  B. Peters,  
 R. Peverati,  P. A. Pieniazek,  Y. M. Rhee,  J. Ritchie,  M. A. Rohrdanz,  
 E. Rosta,  N. J. Russ,  H. F. Schaefer III,  N. E. Schultz,  N. Shenvi,  
 A. C. Simmonett,  A. Sodt,  D. Stuck,  K. S. Thanthiriwatte,  V. Vanovschi,  
 Tao Wang,  A. Warshel,  C. F. Williams,  Q. Wu,  X. Xu,  W. Zhang

 Please cite Q-Chem as follows:
 Y. Shao et al., Mol. Phys. 113, 184-215 (2015)
 DOI: 10.1080/00268976.2014.952696

 Q-Chem 5.0.0 for Intel X86 EM64T Linux

 Parts of Q-Chem use Armadillo 5.200.1 (Boston Tea Smuggler).
 http://arma.sourceforge.net/

 Q-Chem begins on Wed Oct  4 17:59:35 2017  

Host: nid04268
0

     Scratch files written to /global/cscratch1/sd/junteng/scratch/15/opt_1111o-.save//

Checking the input file for inconsistencies... 	...done.

--------------------------------------------------------------
User input:
--------------------------------------------------------------
$molecule
0  1
C    0.579  -1.978   0.499
C   -0.345  -1.987   1.740
C    0.941  -0.610  -0.048
C   -0.562  -0.630   2.386
O    2.215  -0.645  -0.542
O    0.210   0.366  -0.087
O    0.648  -0.161   2.826
O   -1.631  -0.088   2.617
C    0.572   1.116   3.461
C    2.652   0.593  -1.106
C   -0.242  -2.782  -0.524
C   -0.292  -4.259  -0.098
C   -1.265  -4.223   1.081
C   -1.594  -2.718   1.188
O   -1.591  -2.362  -0.216
H    1.516  -2.494   0.747
H    0.090  -2.606   2.538
H   -0.024   1.052   4.377
H    2.622   1.389  -0.356
H   -0.708  -4.895  -0.888
H    0.690  -4.657   0.174
H   -2.154  -4.811   0.825
H   -0.840  -4.639   1.999
H    1.587   1.422   3.729
H    0.156   1.863   2.777
H    2.039   0.852  -1.975
H    3.687   0.467  -1.436
C   -2.945  -2.478   1.828
H   -3.699  -3.155   1.411
H   -2.911  -2.635   2.910
H   -3.320  -1.473   1.614
C    0.085  -2.603  -1.994
H   -0.579  -3.214  -2.616
H   -0.074  -1.570  -2.320
H    1.119  -2.890  -2.210
$end


$opt
CONSTRAINT
tors    2    1    3    5    147.3
tors    1    2    4    7    -69.6
ENDCONSTRAINT
$end

$rem
JOBTYPE                   OPT
METHOD                    B3LYP
DFT_D                     D3_OP
BASIS                     STO-3G
GEOM_OPT_MAX_CYCLES       500
SYMMETRY                  False
THRESH                    12
SCF_CONVERGENCE           8
MAX_SUB_FILE_NUM          128
MEM_STATIC                400
MEM_TOTAL                 4000
$end

--------------------------------------------------------------
 Adding empirical dispersion correction 
 ----------------------------------------------------------------
 Doing -D3(op) with
 s6 =   1.00000
 s8 =   0.78311
 a1 =   0.30000
 a2 =   4.25000
 n  =  10.00000
 -D3 energy without 3body term =     -0.0411703493 hartrees
 ----------------------------------------------------------------
             Standard Nuclear Orientation (Angstroms)
    I     Atom           X                Y                Z
 ----------------------------------------------------------------
    1      C       0.0405485511     0.6575719166     0.6279970458
    2      C       0.4485580788    -0.8348816956     0.6210370951
    3      C      -1.2236982091     1.0027230799    -0.1363509142
    4      C      -0.5983616521    -1.7818052351     0.0614400192
    5      O      -1.8727982861     2.0215992616     0.5030999569
    6      O      -1.5961984503     0.4914952944    -1.1795899671
    7      O      -1.7171432315    -1.7052423029     0.8489213808
    8      O      -0.4521119641    -2.5882506495    -0.8430724586
    9      C      -2.7784272181    -2.5607562126     0.4228905721
   10      C      -3.0723596472     2.4436939349    -0.1485116050
   11      C       1.2695511140     1.3340043222    -0.0036499292
   12      C       2.4565832498     1.2598809157     0.9715246343
   13      C       2.8623527980    -0.2112841170     0.8761804153
   14      C       1.8144140588    -0.7767714946    -0.1070608698
   15      O       1.6672726917     0.3585939812    -0.9943351534
   16      H      -0.1006442077     0.9849117819     1.6665740614
   17      H       0.6216642017    -1.1903109685     1.6471434747
   18      H      -2.4797608129    -3.6105469360     0.5071865717
   19      H      -3.7802435395     1.6131239838    -0.2264214976
   20      H       3.2933331402     1.8856898890     0.6400661152
   21      H       2.1911460006     1.5619689502     1.9888730929
   22      H       3.8755559769    -0.2734341450     0.4624683269
   23      H       2.8636012425    -0.7181800102     1.8454378604
   24      H      -3.6353600821    -2.3906923623     1.0804841802
   25      H      -3.0783059100    -2.3222438675    -0.6028314328
   26      H      -2.8433670294     2.8555358485    -1.1364182905
   27      H      -3.5276066382     3.2308286629     0.4590820891
   28      C       2.3256610058    -2.0007489527    -0.8370654871
   29      H       3.3506780532    -1.8430305545    -1.1909001368
   30      H       2.3227728949    -2.8841446677    -0.1919820277
   31      H       1.7440132593    -2.2037087567    -1.7409123862
   32      C       1.0880301320     2.7130571330    -0.6079126850
   33      H       2.0289460417     3.0747186755    -1.0380047444
   34      H       0.3716132743     2.6999266795    -1.4356931372
   35      H       0.7526844869     3.4359215512     0.1425480610
 ----------------------------------------------------------------
 Molecular Point Group                 C1    NOp =  1
 Largest Abelian Subgroup              C1    NOp =  1
 Nuclear Repulsion Energy =  1395.7531872986 hartrees
 There are       65 alpha and       65 beta electrons
 Requested basis set is STO-3G
 There are 52 shells and 103 basis functions

 Total QAlloc Memory Limit   4000 MB
 Mega-Array Size       392 MB
 MEM_STATIC part       400 MB
 A cutoff of  1.0D-12 yielded   1204 shell pairs
 There are      5194 function pairs
 
 -------------------------------------------------------
 OpenMP Integral Computing Module                       
 Release: version 1.0, May 2013, Q-Chem Inc. Pittsburgh 
 -------------------------------------------------------
 Integral Job Info:
 Integral job number is                      11
 Integral operator is                         1
 short-range coefficients                     0
 long-range coefficients              100000000
 Omega coefficients                           0
 if combine SR and LR in K                    0
 Integral screening is                        0
 Integral computing path is                   2
 max size of driver memory is            800000
 size of driver memory is                 45569
 size of scratch memory is               945100
 max col of scratch BK array                289
 max len of scratch array in speh3           22
 max len of scratch index in speh4            8
 max int batch size is                      520
 min int batch size is                       52
 fixed nKL is                                52
 max L of basis functions is                  1
 order of int derivative is                   0
 number of shells is                         52
 number of basis is                         103
 number of cartesian basis is               103
 number of contracted shell pairs          1204
 number of primitive shell pairs           6556
 maxK2 (contraction) of shell pair            9
 max number of K2 of shell pair               1
 max number of CS2 of shell pair            185
 max number of PS2 of shell pair            828
 mem total for path MDJ                   33898
 -------------------------------------------------------
 Smallest overlap matrix eigenvalue = 1.95E-01

 Scale SEOQF with 1.000000e-01/1.000000e-01/1.000000e-01

 Standard Electronic Orientation quadrupole field applied
 Nucleus-field energy     =     0.0000000384 hartrees
 Guess from superposition of atomic densities
 Warning:  Energy on first SCF cycle will be non-variational
 A restricted hybrid HF-DFT SCF calculation will be
 performed using Pulay DIIS extrapolation
 Exchange:     0.2000 Hartree-Fock + 0.0800 Slater + 0.7200 B88
 Correlation:  0.1900 VWN1RPA + 0.8100 LYP
 Using SG-1 standard quadrature grid
 Dispersion:   Grimme D3
 SCF converges when DIIS error is below 1.0E-08
 -------------------------------------------------------
 OpenMP Integral computing Module                
 Release: version 1.0, May 2013, Q-Chem Inc. Pittsburgh 
 -------------------------------------------------------
 -------------------------------------------------------
 OpenMP BLAS3 based DFT computing Module                
 Release: version 1.0, May 2013, Q-Chem Inc. Pittsburgh 
 -------------------------------------------------------
 ---------------------------------------
  Cycle       Energy         DIIS Error
 ---------------------------------------
    1    -832.4613427662      1.05E-01
    2    -833.1370762580      1.27E-02
    3    -832.1370895692      3.08E-02
    4    -833.3782765538      4.55E-03
    5    -833.4066960607      1.46E-03
    6    -833.4098473704      2.71E-04
    7    -833.4099544728      7.62E-05
    8    -833.4099606041      4.17E-05
    9    -833.4099632398      4.63E-06
   10    -833.4099632746      1.22E-06
   11    -833.4099632769      3.03E-07
   12    -833.4099632770      8.71E-08
   13    -833.4099632770      1.56E-08
   14    -833.4099632771      3.41E-09 Convergence criterion met
 ---------------------------------------
 SCF time:  CPU 134.06 s  wall 7.31 s
 SCF   energy in the final basis set = -833.4099632771
 Total energy in the final basis set = -833.4099632771
 
 --------------------------------------------------------------
 
                    Orbital Energies (a.u.)
 --------------------------------------------------------------
 
 Alpha MOs
 -- Occupied --
-18.942 -18.934 -18.865 -18.864 -18.861 -10.107 -10.103 -10.074
-10.068 -10.064 -10.060 -10.030 -10.029 -10.013 -10.007 -10.005
-10.002  -1.042  -1.034  -0.985  -0.951  -0.945  -0.773  -0.753
 -0.733  -0.690  -0.680  -0.671  -0.624  -0.593  -0.545  -0.520
 -0.491  -0.482  -0.466  -0.447  -0.439  -0.429  -0.428  -0.422
 -0.411  -0.391  -0.387  -0.379  -0.371  -0.369  -0.364  -0.345
 -0.341  -0.334  -0.309  -0.305  -0.304  -0.292  -0.287  -0.281
 -0.271  -0.247  -0.241  -0.214  -0.181  -0.175  -0.151  -0.141
 -0.130
 -- Virtual --
  0.111   0.129   0.243   0.280   0.295   0.311   0.331   0.354
  0.372   0.379   0.388   0.400   0.403   0.413   0.419   0.432
  0.439   0.444   0.449   0.451   0.456   0.457   0.463   0.467
  0.475   0.480   0.487   0.492   0.498   0.506   0.510   0.513
  0.537   0.546   0.583   0.586   0.707   0.709
 --------------------------------------------------------------
 
          Ground-State Mulliken Net Atomic Charges

     Atom                 Charge (a.u.)
  ----------------------------------------
      1 C                    -0.084595
      2 C                    -0.084928
      3 C                     0.236932
      4 C                     0.238677
      5 O                    -0.187608
      6 O                    -0.231157
      7 O                    -0.194162
      8 O                    -0.225991
      9 C                    -0.126414
     10 C                    -0.126312
     11 C                     0.111091
     12 C                    -0.148495
     13 C                    -0.147098
     14 C                     0.111557
     15 O                    -0.214092
     16 H                     0.087026
     17 H                     0.085427
     18 H                     0.091170
     19 H                     0.093535
     20 H                     0.075293
     21 H                     0.069960
     22 H                     0.075299
     23 H                     0.068530
     24 H                     0.092479
     25 H                     0.096380
     26 H                     0.092817
     27 H                     0.095226
     28 C                    -0.230291
     29 H                     0.078853
     30 H                     0.081177
     31 H                     0.098540
     32 C                    -0.231645
     33 H                     0.084746
     34 H                     0.083765
     35 H                     0.084309
  ----------------------------------------
  Sum of atomic charges =    -0.000000

 -----------------------------------------------------------------
                    Cartesian Multipole Moments
 -----------------------------------------------------------------
    Charge (ESU x 10^10)
                 0.0000
    Dipole Moment (Debye)
         X      -0.8782      Y       1.1630      Z       2.3527
       Tot       2.7675
    Quadrupole Moments (Debye-Ang)
        XX     -83.8071     XY      -0.7113     YY     -88.8934
        XZ       0.9767     YZ      -3.9015     ZZ     -96.9292
    Octopole Moments (Debye-Ang^2)
       XXX     -46.3966    XXY      -1.7284    XYY     -21.3534
       YYY       5.1219    XXZ      -0.4018    XYZ       3.8207
       YYZ       2.3429    XZZ      -3.9993    YZZ      -0.3880
       ZZZ      -3.3241
    Hexadecapole Moments (Debye-Ang^3)
      XXXX   -2091.2066   XXXY      -6.0688   XXYY    -600.9185
      XYYY      -2.1704   YYYY   -1803.7757   XXXZ     -28.9029
      XXYZ      -4.3762   XYYZ      -7.7605   YYYZ     -36.1812
      XXZZ    -448.9289   XYZZ      -3.9821   YYZZ    -373.8865
      XZZZ      -5.3102   YZZZ       4.7161   ZZZZ    -389.6427
 -----------------------------------------------------------------
 Calculating analytic gradient of the SCF energy
 Gradient of SCF Energy
            1           2           3           4           5           6
    1   0.0068753  -0.0046877  -0.0166998  -0.0197001  -0.0083837   0.0221746
    2  -0.0061405   0.0027730   0.0136587  -0.0050542  -0.0333299   0.0277086
    3  -0.0439619  -0.0259477  -0.0049261   0.0059897  -0.0526228   0.0536548
            7           8           9          10          11          12
    1   0.0189254  -0.0015472   0.0137487   0.0155365  -0.0147881  -0.0140183
    2  -0.0354658   0.0374925   0.0122788  -0.0053058  -0.0088645  -0.0163340
    3  -0.0479698   0.0469183   0.0073292   0.0104380   0.0044710  -0.0276032
           13          14          15          16          17          18
    1  -0.0188788  -0.0134132   0.0002181   0.0010425   0.0008687  -0.0002796
    2   0.0098466   0.0013371  -0.0017583  -0.0047971  -0.0026952   0.0134481
    3  -0.0239240   0.0041002   0.0591838  -0.0036425  -0.0066526   0.0045960
           19          20          21          22          23          24
    1   0.0096437   0.0015668   0.0018289  -0.0016174   0.0000789   0.0064180
    2   0.0080000  -0.0065480  -0.0026222   0.0062579   0.0036352  -0.0035888
    3   0.0068064   0.0026614  -0.0056205   0.0037838  -0.0055836  -0.0080883
           25          26          27          28          29          30
    1   0.0035522   0.0029766   0.0019587  -0.0076661  -0.0055637   0.0022017
    2   0.0031584  -0.0020146  -0.0071906   0.0172553  -0.0035201   0.0034711
    3   0.0127123   0.0138624  -0.0075342   0.0224771  -0.0038969  -0.0029576
           31          32          33          34          35
    1   0.0094985   0.0042312  -0.0054129   0.0069380   0.0023733
    2   0.0036308  -0.0187618   0.0004390   0.0011666  -0.0015662
    3  -0.0003602   0.0173100  -0.0021302   0.0011114  -0.0039838
 Max gradient component =       5.918E-02
 RMS gradient           =       1.675E-02
 Gradient time:  CPU 27.66 s  wall 2.64 s
 Geometry Optimization Parameters
   NAtoms,    NIC,     NZ,  NCons,   NDum,   NFix, NCnnct, MaxDiis
       35     275       0       2       0       0       0       0


** CONSTRAINED OPTIMIZATION IN DELOCALIZED INTERNAL COORDINATES **
   Searching for a Minimum

   Optimization Cycle:   1

                       Coordinates (Angstroms)
     ATOM                X               Y               Z
      1  C         0.0405485511    0.6575719166    0.6279970458
      2  C         0.4485580788   -0.8348816956    0.6210370951
      3  C        -1.2236982091    1.0027230799   -0.1363509142
      4  C        -0.5983616521   -1.7818052351    0.0614400192
      5  O        -1.8727982861    2.0215992616    0.5030999569
      6  O        -1.5961984503    0.4914952944   -1.1795899671
      7  O        -1.7171432315   -1.7052423029    0.8489213808
      8  O        -0.4521119641   -2.5882506495   -0.8430724586
      9  C        -2.7784272181   -2.5607562126    0.4228905721
     10  C        -3.0723596472    2.4436939349   -0.1485116050
     11  C         1.2695511140    1.3340043222   -0.0036499292
     12  C         2.4565832498    1.2598809157    0.9715246343
     13  C         2.8623527980   -0.2112841170    0.8761804153
     14  C         1.8144140588   -0.7767714946   -0.1070608698
     15  O         1.6672726917    0.3585939812   -0.9943351534
     16  H        -0.1006442077    0.9849117819    1.6665740614
     17  H         0.6216642017   -1.1903109685    1.6471434747
     18  H        -2.4797608129   -3.6105469360    0.5071865717
     19  H        -3.7802435395    1.6131239838   -0.2264214976
     20  H         3.2933331402    1.8856898890    0.6400661152
     21  H         2.1911460006    1.5619689502    1.9888730929
     22  H         3.8755559769   -0.2734341450    0.4624683269
     23  H         2.8636012425   -0.7181800102    1.8454378604
     24  H        -3.6353600821   -2.3906923623    1.0804841802
     25  H        -3.0783059100   -2.3222438675   -0.6028314328
     26  H        -2.8433670294    2.8555358485   -1.1364182905
     27  H        -3.5276066382    3.2308286629    0.4590820891
     28  C         2.3256610058   -2.0007489527   -0.8370654871
     29  H         3.3506780532   -1.8430305545   -1.1909001368
     30  H         2.3227728949   -2.8841446677   -0.1919820277
     31  H         1.7440132593   -2.2037087567   -1.7409123862
     32  C         1.0880301320    2.7130571330   -0.6079126850
     33  H         2.0289460417    3.0747186755   -1.0380047444
     34  H         0.3716132743    2.6999266795   -1.4356931372
     35  H         0.7526844869    3.4359215512    0.1425480610
   Point Group: c1    Number of degrees of freedom:    99


   Energy is   -833.409963277

              Constraints and their Current Values
                                        Value     Constraint
   Dihedral:        2   1   3   5      145.794      147.300
   Dihedral:        1   2   4   7      -61.913      -69.600

 Attempting to Generate Delocalized Internal Coordinates

   Using Lagrange Multiplier Algorithm


101 Hessian modes will be used to form the next step
  Hessian Eigenvalues:
    -0.977753   -0.977753    0.045000    0.045000    0.045000    0.045000
     0.045000    0.045000    0.045023    0.045263    0.045502    0.048606
     0.060298    0.061777    0.067925    0.070278    0.071449    0.071695
     0.075522    0.076606    0.078244    0.080811    0.081377    0.081808
     0.083396    0.083502    0.083514    0.083675    0.084645    0.090017
     0.091538    0.091907    0.106339    0.109001    0.113820    0.113949
     0.116299    0.116905    0.116996    0.126894    0.131265    0.139894
     0.144501    0.160000    0.160000    0.160000    0.160000    0.160000
     0.160000    0.160000    0.160000    0.160000    0.160000    0.160000
     0.160000    0.165730    0.185925    0.241736    0.248635    0.249881
     0.250000    0.250000    0.250000    0.250000    0.250633    0.260748
     0.267050    0.282050    0.285547    0.305111    0.306449    0.307030
     0.309452    0.327325    0.337229    0.338979    0.340712    0.341060
     0.341086    0.341343    0.341531    0.342465    0.342607    0.342751
     0.342848    0.342936    0.343451    0.343609    0.343704    0.343747
     0.343768    0.343978    0.344143    0.411501    0.412503    0.509233
     0.515826    0.951140    0.953727    1.022753    1.022753

 Minimum Search - Taking P-RFO Step
 Searching for Lamda that Maximizes Along the Constraint modes Only
 Value Taken    Lamda =   0.01077708
 Searching for Lamda that Minimizes Along All other modes
 Value Taken    Lamda =  -0.07133252
 Calculated Step too Large.  Step scaled by  0.700520
 Step Taken.  Stepsize is  0.300000

                             Maximum     Tolerance    Cnvgd?
         Gradient            0.134155       0.000300      NO
         Displacement        0.099259       0.001200      NO
         Energy change     *********       0.000001      NO


 New Cartesian Coordinates Obtained by Inverse Iteration

 Displacement from previous Coordinates is:  0.730893
 Adding empirical dispersion correction 
 ----------------------------------------------------------------
 Doing -D3(op) with
 s6 =   1.00000
 s8 =   0.78311
 a1 =   0.30000
 a2 =   4.25000
 n  =  10.00000
 -D3 energy without 3body term =     -0.0406407366 hartrees
 ----------------------------------------------------------------
             Standard Nuclear Orientation (Angstroms)
    I     Atom           X                Y                Z
 ----------------------------------------------------------------
    1      C       0.0535889633     0.6854367314     0.6603736465
    2      C       0.4533518470    -0.8344123133     0.6528549310
    3      C      -1.2395445175     1.0143253504    -0.1260277283
    4      C      -0.6225369373    -1.7758273799     0.0428209071
    5      O      -1.8972717427     2.0759130904     0.5082905140
    6      O      -1.6278546420     0.4703107872    -1.1743460556
    7      O      -1.7324852154    -1.7602259517     0.9028183742
    8      O      -0.5024602918    -2.5617829289    -0.9116813918
    9      C      -2.8035193768    -2.6356128067     0.4453757364
   10      C      -3.1162999292     2.4732199085    -0.1859812373
   11      C       1.3113442290     1.3620123671     0.0017856232
   12      C       2.5104463503     1.2817832124     1.0131560257
   13      C       2.9093191787    -0.2215222141     0.9103522877
   14      C       1.8414454358    -0.7737063065    -0.1087103544
   15      O       1.7016546101     0.3768549677    -1.0154050987
   16      H      -0.0840447648     1.0325299298     1.6978090381
   17      H       0.6370285235    -1.2085659179     1.6755284924
   18      H      -2.4888568443    -3.6959123205     0.4444157299
   19      H      -3.8340957527     1.6353709531    -0.2565252495
   20      H       3.3456767458     1.9157904588     0.6834967810
   21      H       2.2364848988     1.5886906951     2.0329689196
   22      H       3.9228695533    -0.3067735443     0.4938110448
   23      H       2.8988155865    -0.7421897714     1.8789592960
   24      H      -3.6420426677    -2.5182898268     1.1519546366
   25      H      -3.1527664057    -2.3550198374    -0.5656966678
   26      H      -2.8980838240     2.8565019850    -1.2000795946
   27      H      -3.5763131765     3.2825076692     0.4050973654
   28      C       2.3202215695    -2.0196095501    -0.8730950357
   29      H       3.3495363000    -1.8706235443    -1.2306451497
   30      H       2.3017741101    -2.9104663314    -0.2316344794
   31      H       1.7050583408    -2.2009570414    -1.7651361931
   32      C       1.1180824105     2.7539019933    -0.6257075219
   33      H       2.0645809268     3.1098822328    -1.0566807317
   34      H       0.3893964824     2.7258806548    -1.4487991085
   35      H       0.7800934001     3.4797975333     0.1265244791
 ----------------------------------------------------------------
 Molecular Point Group                 C1    NOp =  1
 Largest Abelian Subgroup              C1    NOp =  1
 Nuclear Repulsion Energy =  1373.6091999169 hartrees
 There are       65 alpha and       65 beta electrons
 Applying Cartesian multipole field
    Component          Value
    ---------          -----
     (2,0,0)        1.00000E-11
     (0,2,0)        2.00000E-11
     (0,0,2)       -3.00000E-11
 Nucleus-field energy     =     0.0000000392 hartrees
 Requested basis set is STO-3G
 There are 52 shells and 103 basis functions
 A cutoff of  1.0D-12 yielded   1200 shell pairs
 There are      5181 function pairs
 Smallest overlap matrix eigenvalue = 2.08E-01
 Guess MOs from SCF MO coefficient file
 Reading MOs from coefficient file
 Reading MOs from coefficient file
 A restricted hybrid HF-DFT SCF calculation will be
 performed using Pulay DIIS extrapolation
 Exchange:     0.2000 Hartree-Fock + 0.0800 Slater + 0.7200 B88
 Correlation:  0.1900 VWN1RPA + 0.8100 LYP
 Using SG-1 standard quadrature grid
 Dispersion:   Grimme D3
 SCF converges when DIIS error is below 1.0E-08
 Geometry optimization detected.  Setting ReadMinima to 0
 Setting SaveMinima to 0
 -------------------------------------------------------
 OpenMP Integral computing Module                
 Release: version 1.0, May 2013, Q-Chem Inc. Pittsburgh 
 -------------------------------------------------------
 -------------------------------------------------------
 OpenMP BLAS3 based DFT computing Module                
 Release: version 1.0, May 2013, Q-Chem Inc. Pittsburgh 
 -------------------------------------------------------
 ---------------------------------------
  Cycle       Energy         DIIS Error
 ---------------------------------------
    1    -833.2765929983      5.00E-03
    2    -833.4341814514      1.81E-03
    3    -833.4281327443      2.75E-03
    4    -833.4386707605      6.09E-04
    5    -833.4392487791      1.04E-04
    6    -833.4392659018      2.66E-05
    7    -833.4392663644      2.17E-05
    8    -833.4392670676      4.14E-06
    9    -833.4392670978      7.18E-07
   10    -833.4392670986      3.12E-07
   11    -833.4392670988      5.74E-08
   12    -833.4392670988      2.03E-08
   13    -833.4392670989      3.93E-09 Convergence criterion met
 ---------------------------------------
 SCF time:  CPU 125.24 s  wall 6.80 s
 SCF   energy in the final basis set = -833.4392670989
 Total energy in the final basis set = -833.4392670989
 
 --------------------------------------------------------------
 
                    Orbital Energies (a.u.)
 --------------------------------------------------------------
 
 Alpha MOs
 -- Occupied --
-18.940 -18.929 -18.869 -18.868 -18.863 -10.101 -10.096 -10.070
-10.063 -10.063 -10.058 -10.032 -10.030 -10.014 -10.010 -10.008
-10.003  -1.023  -1.014  -0.969  -0.940  -0.933  -0.762  -0.741
 -0.722  -0.679  -0.675  -0.661  -0.619  -0.589  -0.537  -0.515
 -0.484  -0.475  -0.456  -0.438  -0.429  -0.420  -0.419  -0.411
 -0.403  -0.385  -0.383  -0.378  -0.368  -0.364  -0.358  -0.342
 -0.338  -0.332  -0.307  -0.299  -0.296  -0.290  -0.286  -0.277
 -0.266  -0.249  -0.243  -0.219  -0.179  -0.172  -0.151  -0.141
 -0.133
 -- Virtual --
  0.102   0.119   0.236   0.264   0.278   0.295   0.315   0.337
  0.354   0.358   0.372   0.380   0.390   0.398   0.411   0.416
  0.426   0.427   0.431   0.432   0.439   0.441   0.445   0.450
  0.452   0.466   0.471   0.478   0.486   0.487   0.494   0.500
  0.520   0.524   0.559   0.564   0.668   0.671
 --------------------------------------------------------------
 
          Ground-State Mulliken Net Atomic Charges

     Atom                 Charge (a.u.)
  ----------------------------------------
      1 C                    -0.081355
      2 C                    -0.081421
      3 C                     0.220161
      4 C                     0.222554
      5 O                    -0.177076
      6 O                    -0.219450
      7 O                    -0.184359
      8 O                    -0.216178
      9 C                    -0.125531
     10 C                    -0.125371
     11 C                     0.107782
     12 C                    -0.146718
     13 C                    -0.145862
     14 C                     0.107867
     15 O                    -0.203791
     16 H                     0.085630
     17 H                     0.084119
     18 H                     0.088053
     19 H                     0.090717
     20 H                     0.074432
     21 H                     0.069959
     22 H                     0.074196
     23 H                     0.068367
     24 H                     0.089113
     25 H                     0.092661
     26 H                     0.089838
     27 H                     0.092147
     28 C                    -0.227964
     29 H                     0.077864
     30 H                     0.079499
     31 H                     0.098449
     32 C                    -0.228632
     33 H                     0.083757
     34 H                     0.083517
     35 H                     0.083028
  ----------------------------------------
  Sum of atomic charges =    -0.000000

 -----------------------------------------------------------------
                    Cartesian Multipole Moments
 -----------------------------------------------------------------
    Charge (ESU x 10^10)
                -0.0000
    Dipole Moment (Debye)
         X      -0.7229      Y       1.1395      Z       2.2706
       Tot       2.6414
    Quadrupole Moments (Debye-Ang)
        XX     -83.7487     XY      -0.8060     YY     -88.5406
        XZ       1.3588     YZ      -3.8150     ZZ     -96.8562
    Octopole Moments (Debye-Ang^2)
       XXX     -47.0292    XXY      -1.8837    XYY     -21.2679
       YYY       1.7985    XXZ      -0.8666    XYZ       4.4690
       YYZ       1.3466    XZZ      -3.8453    YZZ       0.1492
       ZZZ      -3.7707
    Hexadecapole Moments (Debye-Ang^3)
      XXXX   -2145.0017   XXXY     -15.7820   XXYY    -614.3737
      XYYY      -7.8994   YYYY   -1844.2586   XXXZ     -29.5753
      XXYZ      -5.8419   XYYZ      -7.7533   YYYZ     -33.5883
      XXZZ    -461.3932   XYZZ      -7.6118   YYZZ    -386.5227
      XZZZ      -8.2820   YZZZ       4.9388   ZZZZ    -409.5444
 -----------------------------------------------------------------
 Calculating analytic gradient of the SCF energy
 Gradient of SCF Energy
            1           2           3           4           5           6
    1   0.0052551  -0.0057613  -0.0071629  -0.0146500  -0.0033547   0.0075527
    2  -0.0026673  -0.0007817   0.0113748   0.0086671  -0.0155688   0.0085043
    3  -0.0235144  -0.0033818   0.0071654   0.0068916  -0.0230693   0.0125636
            7           8           9          10          11          12
    1   0.0101966   0.0024330   0.0071858   0.0086582  -0.0102555  -0.0047223
    2  -0.0168612   0.0058421   0.0066573  -0.0019965  -0.0027064  -0.0023800
    3  -0.0220777   0.0150508   0.0050902   0.0065749   0.0030823  -0.0109978
           13          14          15          16          17          18
    1  -0.0048975  -0.0084694   0.0031294   0.0005599   0.0029270  -0.0006718
    2   0.0018650  -0.0010567   0.0009061  -0.0028930  -0.0033950   0.0031543
    3  -0.0100142   0.0011023   0.0216611  -0.0006188  -0.0026418   0.0024846
           19          20          21          22          23          24
    1   0.0018149   0.0011775   0.0021041  -0.0004361   0.0016968   0.0007334
    2   0.0025205  -0.0031809   0.0000405   0.0033665   0.0009637  -0.0016807
    3   0.0026786   0.0021159  -0.0013530   0.0025746  -0.0015495  -0.0030554
           25          26          27          28          29          30
    1   0.0000830   0.0006849  -0.0006328  -0.0043524  -0.0021359   0.0013442
    2   0.0012750   0.0007603  -0.0018599   0.0060147  -0.0015812   0.0009401
    3   0.0037171   0.0039385  -0.0028643   0.0116510  -0.0029611  -0.0013831
           31          32          33          34          35
    1   0.0057394   0.0022958  -0.0024495   0.0032918   0.0010889
    2   0.0015871  -0.0076952   0.0005103   0.0014308  -0.0000756
    3  -0.0025690   0.0086130  -0.0020565  -0.0012198  -0.0016280
 Max gradient component =       2.351E-02
 RMS gradient           =       7.043E-03
 Gradient time:  CPU 27.12 s  wall 2.69 s
 Geometry Optimization Parameters
   NAtoms,    NIC,     NZ,  NCons,   NDum,   NFix, NCnnct, MaxDiis
       35     275       0       2       0       0       0       0

 Cartesian Hessian Update
 Hessian Updated using BFGS Update


** CONSTRAINED OPTIMIZATION IN DELOCALIZED INTERNAL COORDINATES **
   Searching for a Minimum

   Optimization Cycle:   2

                       Coordinates (Angstroms)
     ATOM                X               Y               Z
      1  C         0.0535889633    0.6854367314    0.6603736465
      2  C         0.4533518470   -0.8344123133    0.6528549310
      3  C        -1.2395445175    1.0143253504   -0.1260277283
      4  C        -0.6225369373   -1.7758273799    0.0428209071
      5  O        -1.8972717427    2.0759130904    0.5082905140
      6  O        -1.6278546420    0.4703107872   -1.1743460556
      7  O        -1.7324852154   -1.7602259517    0.9028183742
      8  O        -0.5024602918   -2.5617829289   -0.9116813918
      9  C        -2.8035193768   -2.6356128067    0.4453757364
     10  C        -3.1162999292    2.4732199085   -0.1859812373
     11  C         1.3113442290    1.3620123671    0.0017856232
     12  C         2.5104463503    1.2817832124    1.0131560257
     13  C         2.9093191787   -0.2215222141    0.9103522877
     14  C         1.8414454358   -0.7737063065   -0.1087103544
     15  O         1.7016546101    0.3768549677   -1.0154050987
     16  H        -0.0840447648    1.0325299298    1.6978090381
     17  H         0.6370285235   -1.2085659179    1.6755284924
     18  H        -2.4888568443   -3.6959123205    0.4444157299
     19  H        -3.8340957527    1.6353709531   -0.2565252495
     20  H         3.3456767458    1.9157904588    0.6834967810
     21  H         2.2364848988    1.5886906951    2.0329689196
     22  H         3.9228695533   -0.3067735443    0.4938110448
     23  H         2.8988155865   -0.7421897714    1.8789592960
     24  H        -3.6420426677   -2.5182898268    1.1519546366
     25  H        -3.1527664057   -2.3550198374   -0.5656966678
     26  H        -2.8980838240    2.8565019850   -1.2000795946
     27  H        -3.5763131765    3.2825076692    0.4050973654
     28  C         2.3202215695   -2.0196095501   -0.8730950357
     29  H         3.3495363000   -1.8706235443   -1.2306451497
     30  H         2.3017741101   -2.9104663314   -0.2316344794
     31  H         1.7050583408   -2.2009570414   -1.7651361931
     32  C         1.1180824105    2.7539019933   -0.6257075219
     33  H         2.0645809268    3.1098822328   -1.0566807317
     34  H         0.3893964824    2.7258806548   -1.4487991085
     35  H         0.7800934001    3.4797975333    0.1265244791
   Point Group: c1    Number of degrees of freedom:    99


   Energy is   -833.439267099

              Constraints and their Current Values
                                        Value     Constraint
   Dihedral:        2   1   3   5      146.804      147.300
   Dihedral:        1   2   4   7      -67.106      -69.600
 Hessian Updated using BFGS Update

   Using Lagrange Multiplier Algorithm


 85 Hessian modes will be used to form the next step
  Hessian Eigenvalues:
    -0.977829   -0.977738    0.044813    0.045001    0.045007    0.045099
     0.045492    0.048587    0.060299    0.061478    0.067876    0.070214
     0.071436    0.071695    0.075480    0.076464    0.078285    0.080803
     0.081276    0.081786    0.083205    0.083417    0.083512    0.083639
     0.084751    0.090012    0.091440    0.091898    0.106284    0.109031
     0.113725    0.113911    0.116553    0.116909    0.116997    0.126405
     0.131668    0.139906    0.144244    0.158477    0.161740    0.165544
     0.185778    0.240662    0.243771    0.248812    0.249888    0.250066
     0.251242    0.260781    0.268814    0.283337    0.289803    0.305666
     0.306845    0.308819    0.317555    0.327365    0.337206    0.338988
     0.340977    0.341073    0.341339    0.341517    0.342012    0.342559
     0.342647    0.342839    0.342863    0.343304    0.343589    0.343691
     0.343715    0.343759    0.343908    0.344095    0.373519    0.411957
     0.418327    0.498714    0.514076    0.952338    0.976872    1.022684
     1.022784

 Minimum Search - Taking P-RFO Step
 Searching for Lamda that Maximizes Along the Constraint modes Only
 Value Taken    Lamda =   0.00079697
 Searching for Lamda that Minimizes Along All other modes
 Value Taken    Lamda =  -0.01471418
 Calculated Step too Large.  Step scaled by  0.989854
 Step Taken.  Stepsize is  0.300000

                             Maximum     Tolerance    Cnvgd?
         Gradient            0.043529       0.000300      NO
         Displacement        0.102438       0.001200      NO
         Energy change     -0.029304       0.000001      NO


 New Cartesian Coordinates Obtained by Inverse Iteration

 Displacement from previous Coordinates is:  0.950731
 Adding empirical dispersion correction 
 ----------------------------------------------------------------
 Doing -D3(op) with
 s6 =   1.00000
 s8 =   0.78311
 a1 =   0.30000
 a2 =   4.25000
 n  =  10.00000
 -D3 energy without 3body term =     -0.0408481795 hartrees
 ----------------------------------------------------------------
             Standard Nuclear Orientation (Angstroms)
    I     Atom           X                Y                Z
 ----------------------------------------------------------------
    1      C       0.0891087964     0.7131473115     0.7083146857
    2      C       0.4817964458    -0.8130406159     0.6975226863
    3      C      -1.2327239193     0.9897616561    -0.0760345009
    4      C      -0.6213143536    -1.7219898771     0.0451532944
    5      O      -1.9121168109     2.0736834001     0.5509276360
    6      O      -1.6507271494     0.3855042469    -1.0902191641
    7      O      -1.7352672572    -1.7244589412     0.9418626200
    8      O      -0.5538941192    -2.4448986401    -0.9728068526
    9      C      -2.8175884701    -2.5568289514     0.3844026267
   10      C      -3.1586327307     2.3707621005    -0.1821732955
   11      C       1.3520179223     1.3745489874    -0.0004881354
   12      C       2.5617629209     1.2945478540     1.0195306729
   13      C       2.9496890360    -0.2251091504     0.9270861138
   14      C       1.8675032727    -0.7714743326    -0.0972900387
   15      O       1.7157149735     0.3713584787    -1.0301238077
   16      H      -0.0369103749     1.0923381515     1.7383165313
   17      H       0.6655608024    -1.1849429982     1.7214881805
   18      H      -2.5107268476    -3.6192569886     0.2894066048
   19      H      -3.8326850182     1.4902251516    -0.2180929051
   20      H       3.3890434175     1.9354451812     0.6746339559
   21      H       2.2798837263     1.6107960731     2.0368158412
   22      H       3.9579171122    -0.3454816867     0.4990102420
   23      H       2.9241093430    -0.7422611097     1.8999973494
   24      H      -3.6601455109    -2.4803211635     1.0968665258
   25      H      -3.1422186312    -2.1935672494    -0.6125916554
   26      H      -2.9539051673     2.6999347420    -1.2220184819
   27      H      -3.6516686968     3.1904940389     0.3728145565
   28      C       2.2968976893    -2.0451604183    -0.8691624276
   29      H       3.3246030616    -1.9196376027    -1.2449756244
   30      H       2.2646814864    -2.9235221089    -0.2072817386
   31      H       1.6242002419    -2.2164899089    -1.7228957085
   32      C       1.1273333179     2.7621945514    -0.6541942601
   33      H       2.0682861468     3.1152424382    -1.1033855626
   34      H       0.3682019423     2.6968161461    -1.4491846558
   35      H       0.7948067760     3.4908541677     0.1010109223
 ----------------------------------------------------------------
 Molecular Point Group                 C1    NOp =  1
 Largest Abelian Subgroup              C1    NOp =  1
 Nuclear Repulsion Energy =  1371.4712129244 hartrees
 There are       65 alpha and       65 beta electrons
 Applying Cartesian multipole field
    Component          Value
    ---------          -----
     (2,0,0)        1.00000E-11
     (0,2,0)        2.00000E-11
     (0,0,2)       -3.00000E-11
 Nucleus-field energy     =     0.0000000383 hartrees
 Requested basis set is STO-3G
 There are 52 shells and 103 basis functions
 A cutoff of  1.0D-12 yielded   1203 shell pairs
 There are      5187 function pairs
 Smallest overlap matrix eigenvalue = 2.13E-01
 Guess MOs from SCF MO coefficient file
 Reading MOs from coefficient file
 Reading MOs from coefficient file
 A restricted hybrid HF-DFT SCF calculation will be
 performed using Pulay DIIS extrapolation
 Exchange:     0.2000 Hartree-Fock + 0.0800 Slater + 0.7200 B88
 Correlation:  0.1900 VWN1RPA + 0.8100 LYP
 Using SG-1 standard quadrature grid
 Dispersion:   Grimme D3
 SCF converges when DIIS error is below 1.0E-08
 Geometry optimization detected.  Setting ReadMinima to 0
 Setting SaveMinima to 0
 -------------------------------------------------------
 OpenMP Integral computing Module                
 Release: version 1.0, May 2013, Q-Chem Inc. Pittsburgh 
 -------------------------------------------------------
 -------------------------------------------------------
 OpenMP BLAS3 based DFT computing Module                
 Release: version 1.0, May 2013, Q-Chem Inc. Pittsburgh 
 -------------------------------------------------------
 ---------------------------------------
  Cycle       Energy         DIIS Error
 ---------------------------------------
    1    -833.3424832616      4.78E-03
    2    -833.4441495251      1.23E-03
    3    -833.4395675358      2.19E-03
    4    -833.4463082420      4.24E-04
    5    -833.4465832388      1.01E-04
    6    -833.4465993026      2.56E-05
    7    -833.4465996846      2.17E-05
    8    -833.4466003885      4.47E-06
    9    -833.4466004225      6.97E-07
   10    -833.4466004232      3.07E-07
   11    -833.4466004234      5.63E-08
   12    -833.4466004234      1.98E-08
   13    -833.4466004235      3.51E-09 Convergence criterion met
 ---------------------------------------
 SCF time:  CPU 116.07 s  wall 6.58 s
 SCF   energy in the final basis set = -833.4466004235
 Total energy in the final basis set = -833.4466004235
 
 --------------------------------------------------------------
 
                    Orbital Energies (a.u.)
 --------------------------------------------------------------
 
 Alpha MOs
 -- Occupied --
-18.939 -18.923 -18.874 -18.872 -18.865 -10.099 -10.091 -10.066
-10.062 -10.057 -10.056 -10.032 -10.029 -10.015 -10.013 -10.010
-10.003  -1.015  -1.002  -0.962  -0.937  -0.926  -0.760  -0.737
 -0.718  -0.673  -0.672  -0.654  -0.616  -0.587  -0.533  -0.511
 -0.480  -0.471  -0.453  -0.435  -0.424  -0.416  -0.415  -0.404
 -0.399  -0.384  -0.381  -0.378  -0.367  -0.363  -0.353  -0.342
 -0.335  -0.330  -0.310  -0.296  -0.292  -0.288  -0.287  -0.275
 -0.264  -0.253  -0.245  -0.223  -0.179  -0.169  -0.153  -0.141
 -0.135
 -- Virtual --
  0.095   0.117   0.235   0.257   0.272   0.289   0.306   0.324
  0.342   0.344   0.362   0.370   0.384   0.392   0.404   0.411
  0.414   0.420   0.427   0.427   0.431   0.433   0.438   0.440
  0.447   0.459   0.464   0.471   0.481   0.481   0.489   0.494
  0.509   0.516   0.549   0.557   0.651   0.658
 --------------------------------------------------------------
 
          Ground-State Mulliken Net Atomic Charges

     Atom                 Charge (a.u.)
  ----------------------------------------
      1 C                    -0.080826
      2 C                    -0.081435
      3 C                     0.212957
      4 C                     0.215036
      5 O                    -0.169057
      6 O                    -0.213207
      7 O                    -0.178833
      8 O                    -0.211682
      9 C                    -0.128020
     10 C                    -0.127478
     11 C                     0.105567
     12 C                    -0.145682
     13 C                    -0.145185
     14 C                     0.105443
     15 O                    -0.198071
     16 H                     0.085165
     17 H                     0.083267
     18 H                     0.086443
     19 H                     0.090030
     20 H                     0.074334
     21 H                     0.070697
     22 H                     0.073699
     23 H                     0.069233
     24 H                     0.086148
     25 H                     0.091663
     26 H                     0.088738
     27 H                     0.090323
     28 C                    -0.227922
     29 H                     0.077583
     30 H                     0.077853
     31 H                     0.100516
     32 C                    -0.227019
     33 H                     0.083483
     34 H                     0.083828
     35 H                     0.082410
  ----------------------------------------
  Sum of atomic charges =    -0.000000

 -----------------------------------------------------------------
                    Cartesian Multipole Moments
 -----------------------------------------------------------------
    Charge (ESU x 10^10)
                -0.0000
    Dipole Moment (Debye)
         X      -0.5303      Y       1.1600      Z       2.1389
       Tot       2.4903
    Quadrupole Moments (Debye-Ang)
        XX     -84.1049     XY      -0.9814     YY     -88.9581
        XZ       1.8241     YZ      -3.5533     ZZ     -96.7459
    Octopole Moments (Debye-Ang^2)
       XXX     -47.1063    XXY      -1.6478    XYY     -18.6801
       YYY      -2.4913    XXZ      -2.3049    XYZ       4.2447
       YYZ      -0.6148    XZZ      -4.1658    YZZ       0.6212
       ZZZ      -6.0340
    Hexadecapole Moments (Debye-Ang^3)
      XXXX   -2189.0346   XXXY     -23.4359   XXYY    -618.5005
      XYYY     -10.6890   YYYY   -1788.4799   XXXZ     -32.8614
      XXYZ      -8.6864   XYYZ      -7.1072   YYYZ     -34.2767
      XXZZ    -469.3297   XYZZ     -10.5410   YYZZ    -379.1997
      XZZZ     -10.1590   YZZZ      -3.9365   ZZZZ    -415.2874
 -----------------------------------------------------------------
 Calculating analytic gradient of the SCF energy
 Gradient of SCF Energy
            1           2           3           4           5           6
    1   0.0033352  -0.0052504  -0.0035080  -0.0075737  -0.0000810   0.0009352
    2  -0.0011505   0.0014204   0.0032578   0.0078272  -0.0019612  -0.0004039
    3  -0.0078714   0.0056572   0.0020642   0.0012672  -0.0012373  -0.0015241
            7           8           9          10          11          12
    1   0.0031566   0.0013456   0.0037132   0.0038184  -0.0037600  -0.0018270
    2  -0.0033522  -0.0036034   0.0018300  -0.0022593   0.0000431   0.0006083
    3  -0.0017491   0.0000533  -0.0000425   0.0009680   0.0036888  -0.0012626
           13          14          15          16          17          18
    1  -0.0015949  -0.0035019   0.0036288  -0.0001722   0.0034502   0.0001237
    2  -0.0011782  -0.0008996   0.0001647  -0.0009888  -0.0005415  -0.0003390
    3  -0.0008306  -0.0005052   0.0004161   0.0009513  -0.0006391   0.0002593
           19          20          21          22          23          24
    1  -0.0003726   0.0005688   0.0009592   0.0002379   0.0014004  -0.0000666
    2  -0.0000967  -0.0003752   0.0006708   0.0003850  -0.0001596   0.0002556
    3   0.0001415   0.0001594   0.0003598  -0.0000900   0.0003728   0.0001522
           25          26          27          28          29          30
    1  -0.0003449   0.0000647   0.0000315  -0.0016931   0.0003368  -0.0001138
    2  -0.0000436   0.0002685   0.0000958   0.0003016   0.0001938   0.0000053
    3  -0.0001032  -0.0001732   0.0002626   0.0021495  -0.0005961  -0.0000611
           31          32          33          34          35
    1   0.0017587   0.0001063   0.0001977   0.0004942   0.0001970
    2   0.0009023  -0.0008372  -0.0003302   0.0002029   0.0000870
    3  -0.0018560   0.0009700  -0.0005683  -0.0008981   0.0001145
 Max gradient component =       7.871E-03
 RMS gradient           =       2.119E-03
 Gradient time:  CPU 28.24 s  wall 2.34 s
 Geometry Optimization Parameters
   NAtoms,    NIC,     NZ,  NCons,   NDum,   NFix, NCnnct, MaxDiis
       35     275       0       2       0       0       0       0

 Cartesian Hessian Update
 Hessian Updated using BFGS Update


** CONSTRAINED OPTIMIZATION IN DELOCALIZED INTERNAL COORDINATES **
   Searching for a Minimum

   Optimization Cycle:   3

                       Coordinates (Angstroms)
     ATOM                X               Y               Z
      1  C         0.0891087964    0.7131473115    0.7083146857
      2  C         0.4817964458   -0.8130406159    0.6975226863
      3  C        -1.2327239193    0.9897616561   -0.0760345009
      4  C        -0.6213143536   -1.7219898771    0.0451532944
      5  O        -1.9121168109    2.0736834001    0.5509276360
      6  O        -1.6507271494    0.3855042469   -1.0902191641
      7  O        -1.7352672572   -1.7244589412    0.9418626200
      8  O        -0.5538941192   -2.4448986401   -0.9728068526
      9  C        -2.8175884701   -2.5568289514    0.3844026267
     10  C        -3.1586327307    2.3707621005   -0.1821732955
     11  C         1.3520179223    1.3745489874   -0.0004881354
     12  C         2.5617629209    1.2945478540    1.0195306729
     13  C         2.9496890360   -0.2251091504    0.9270861138
     14  C         1.8675032727   -0.7714743326   -0.0972900387
     15  O         1.7157149735    0.3713584787   -1.0301238077
     16  H        -0.0369103749    1.0923381515    1.7383165313
     17  H         0.6655608024   -1.1849429982    1.7214881805
     18  H        -2.5107268476   -3.6192569886    0.2894066048
     19  H        -3.8326850182    1.4902251516   -0.2180929051
     20  H         3.3890434175    1.9354451812    0.6746339559
     21  H         2.2798837263    1.6107960731    2.0368158412
     22  H         3.9579171122   -0.3454816867    0.4990102420
     23  H         2.9241093430   -0.7422611097    1.8999973494
     24  H        -3.6601455109   -2.4803211635    1.0968665258
     25  H        -3.1422186312   -2.1935672494   -0.6125916554
     26  H        -2.9539051673    2.6999347420   -1.2220184819
     27  H        -3.6516686968    3.1904940389    0.3728145565
     28  C         2.2968976893   -2.0451604183   -0.8691624276
     29  H         3.3246030616   -1.9196376027   -1.2449756244
     30  H         2.2646814864   -2.9235221089   -0.2072817386
     31  H         1.6242002419   -2.2164899089   -1.7228957085
     32  C         1.1273333179    2.7621945514   -0.6541942601
     33  H         2.0682861468    3.1152424382   -1.1033855626
     34  H         0.3682019423    2.6968161461   -1.4491846558
     35  H         0.7948067760    3.4908541677    0.1010109223
   Point Group: c1    Number of degrees of freedom:    99


   Energy is   -833.446600423

              Constraints and their Current Values
                                        Value     Constraint
   Dihedral:        2   1   3   5      147.290      147.300
   Dihedral:        1   2   4   7      -69.554      -69.600
 Hessian Updated using BFGS Update

   Using Lagrange Multiplier Algorithm


 88 Hessian modes will be used to form the next step
  Hessian Eigenvalues:
    -0.977772   -0.977043    0.041863    0.045000    0.045003    0.045063
     0.045119    0.045533    0.048409    0.059968    0.060684    0.067451
     0.069968    0.071410    0.071692    0.074987    0.075942    0.078344
     0.080661    0.080948    0.081741    0.082999    0.083419    0.083629
     0.083815    0.085093    0.090048    0.091446    0.091952    0.106311
     0.108626    0.113597    0.113899    0.116444    0.116911    0.116997
     0.126697    0.131580    0.139911    0.144459    0.158782    0.160597
     0.161805    0.170816    0.185802    0.240732    0.247288    0.249164
     0.249973    0.250059    0.250802    0.260780    0.268022    0.270845
     0.283822    0.289885    0.305564    0.306897    0.308821    0.316375
     0.327880    0.337053    0.338927    0.340507    0.341070    0.341252
     0.341377    0.341725    0.342536    0.342643    0.342842    0.342866
     0.343255    0.343587    0.343696    0.343697    0.343761    0.343916
     0.344096    0.379836    0.400041    0.412117    0.480924    0.513768
     0.952342    0.989909    1.022754    1.028729

 Minimum Search - Taking P-RFO Step
 Searching for Lamda that Maximizes Along the Constraint modes Only
 Value Taken    Lamda =   0.00002212
 Searching for Lamda that Minimizes Along All other modes
 Value Taken    Lamda =  -0.00169699
 Step Taken.  Stepsize is  0.162527

                             Maximum     Tolerance    Cnvgd?
         Gradient            0.007334       0.000300      NO
         Displacement        0.068430       0.001200      NO
         Energy change     -0.007333       0.000001      NO


 New Cartesian Coordinates Obtained by Inverse Iteration

 Displacement from previous Coordinates is:  0.443525
 Adding empirical dispersion correction 
 ----------------------------------------------------------------
 Doing -D3(op) with
 s6 =   1.00000
 s8 =   0.78311
 a1 =   0.30000
 a2 =   4.25000
 n  =  10.00000
 -D3 energy without 3body term =     -0.0409496390 hartrees
 ----------------------------------------------------------------
             Standard Nuclear Orientation (Angstroms)
    I     Atom           X                Y                Z
 ----------------------------------------------------------------
    1      C       0.1029935085     0.7135210976     0.7225273528
    2      C       0.5008895224    -0.8198605115     0.7128033659
    3      C      -1.2264771765     0.9842781083    -0.0576008992
    4      C      -0.5977812623    -1.7292823731     0.0425078475
    5      O      -1.9158039807     2.0733651719     0.5677106288
    6      O      -1.6609336680     0.3646423072    -1.0556373152
    7      O      -1.7314380834    -1.7379288547     0.9302683096
    8      O      -0.5372418788    -2.4125045409    -1.0021840101
    9      C      -2.8342137538    -2.5314746504     0.3386084426
   10      C      -3.1774504371     2.3659263051    -0.1568616481
   11      C       1.3618992920     1.3698493933    -0.0104829536
   12      C       2.5797881814     1.3047920260     1.0044261923
   13      C       2.9737654654    -0.2131742904     0.9280669168
   14      C       1.8877762805    -0.7771285853    -0.0851335059
   15      O       1.7111974704     0.3530601476    -1.0336091026
   16      H      -0.0193465414     1.1074723369     1.7464839416
   17      H       0.6683303554    -1.1857572003     1.7413598490
   18      H      -2.5497174290    -3.5958338578     0.2068130061
   19      H      -3.8456482140     1.4809799103    -0.1841519409
   20      H       3.3986671587     1.9511471976     0.6499644240
   21      H       2.2921224054     1.6267442365     2.0179458777
   22      H       3.9808810133    -0.3400502530     0.4995751874
   23      H       2.9433319967    -0.7195908201     1.9059142829
   24      H      -3.6802255521    -2.4609896828     1.0474126752
   25      H      -3.1399993465    -2.1271289501    -0.6484044455
   26      H      -2.9836008724     2.6888011943    -1.2005361982
   27      H      -3.6689795681     3.1861054133     0.3985203582
   28      C       2.3080118508    -2.0669024993    -0.8404822294
   29      H       3.3287689303    -1.9524469291    -1.2357562496
   30      H       2.2859639549    -2.9289005009    -0.1566036211
   31      H       1.6067495352    -2.2581872926    -1.6661283160
   32      C       1.1122753263     2.7519514527    -0.6725363141
   33      H       2.0404906251     3.1166746252    -1.1375835239
   34      H       0.3365504000     2.6669739791    -1.4487968549
   35      H       0.7809978647     3.4800698232     0.0838227005
 ----------------------------------------------------------------
 Molecular Point Group                 C1    NOp =  1
 Largest Abelian Subgroup              C1    NOp =  1
 Nuclear Repulsion Energy =  1370.0889704145 hartrees
 There are       65 alpha and       65 beta electrons
 Applying Cartesian multipole field
    Component          Value
    ---------          -----
     (2,0,0)        1.00000E-11
     (0,2,0)        2.00000E-11
     (0,0,2)       -3.00000E-11
 Nucleus-field energy     =     0.0000000384 hartrees
 Requested basis set is STO-3G
 There are 52 shells and 103 basis functions
 A cutoff of  1.0D-12 yielded   1201 shell pairs
 There are      5182 function pairs
 Smallest overlap matrix eigenvalue = 2.14E-01
 Guess MOs from SCF MO coefficient file
 Reading MOs from coefficient file
 Reading MOs from coefficient file
 A restricted hybrid HF-DFT SCF calculation will be
 performed using Pulay DIIS extrapolation
 Exchange:     0.2000 Hartree-Fock + 0.0800 Slater + 0.7200 B88
 Correlation:  0.1900 VWN1RPA + 0.8100 LYP
 Using SG-1 standard quadrature grid
 Dispersion:   Grimme D3
 SCF converges when DIIS error is below 1.0E-08
 Geometry optimization detected.  Setting ReadMinima to 0
 Setting SaveMinima to 0
 -------------------------------------------------------
 OpenMP Integral computing Module                
 Release: version 1.0, May 2013, Q-Chem Inc. Pittsburgh 
 -------------------------------------------------------
 -------------------------------------------------------
 OpenMP BLAS3 based DFT computing Module                
 Release: version 1.0, May 2013, Q-Chem Inc. Pittsburgh 
 -------------------------------------------------------
 ---------------------------------------
  Cycle       Energy         DIIS Error
 ---------------------------------------
    1    -833.4276086633      1.97E-03
    2    -833.4473299865      3.63E-04
    3    -833.4465740277      8.09E-04
    4    -833.4475455937      7.19E-05
    5    -833.4475533936      2.37E-05
    6    -833.4475540422      1.27E-05
    7    -833.4475542452      5.88E-06
    8    -833.4475542976      1.15E-06
    9    -833.4475542998      1.67E-07
   10    -833.4475542998      6.27E-08
   11    -833.4475542998      2.27E-08
   12    -833.4475542998      6.52E-09 Convergence criterion met
 ---------------------------------------
 SCF time:  CPU 117.76 s  wall 6.26 s
 SCF   energy in the final basis set = -833.4475542998
 Total energy in the final basis set = -833.4475542998
 
 --------------------------------------------------------------
 
                    Orbital Energies (a.u.)
 --------------------------------------------------------------
 
 Alpha MOs
 -- Occupied --
-18.935 -18.920 -18.874 -18.873 -18.867 -10.097 -10.091 -10.065
-10.062 -10.056 -10.056 -10.032 -10.030 -10.015 -10.013 -10.011
-10.003  -1.011  -0.998  -0.961  -0.934  -0.925  -0.759  -0.736
 -0.718  -0.673  -0.670  -0.653  -0.616  -0.588  -0.531  -0.511
 -0.478  -0.470  -0.451  -0.434  -0.423  -0.415  -0.413  -0.402
 -0.398  -0.385  -0.381  -0.378  -0.367  -0.362  -0.352  -0.342
 -0.335  -0.329  -0.311  -0.296  -0.293  -0.288  -0.286  -0.274
 -0.263  -0.252  -0.245  -0.223  -0.177  -0.167  -0.152  -0.141
 -0.135
 -- Virtual --
  0.095   0.116   0.232   0.253   0.268   0.287   0.304   0.323
  0.340   0.340   0.359   0.368   0.382   0.391   0.402   0.408
  0.414   0.420   0.425   0.427   0.431   0.432   0.439   0.440
  0.448   0.457   0.463   0.470   0.480   0.481   0.487   0.495
  0.506   0.514   0.547   0.556   0.648   0.657
 --------------------------------------------------------------
 
          Ground-State Mulliken Net Atomic Charges

     Atom                 Charge (a.u.)
  ----------------------------------------
      1 C                    -0.080464
      2 C                    -0.080987
      3 C                     0.210981
      4 C                     0.214068
      5 O                    -0.169003
      6 O                    -0.212769
      7 O                    -0.177953
      8 O                    -0.210105
      9 C                    -0.129536
     10 C                    -0.128740
     11 C                     0.105458
     12 C                    -0.145724
     13 C                    -0.145406
     14 C                     0.105185
     15 O                    -0.196978
     16 H                     0.085245
     17 H                     0.083115
     18 H                     0.086094
     19 H                     0.089891
     20 H                     0.074639
     21 H                     0.071146
     22 H                     0.074312
     23 H                     0.070007
     24 H                     0.086233
     25 H                     0.091756
     26 H                     0.088410
     27 H                     0.090506
     28 C                    -0.229438
     29 H                     0.077780
     30 H                     0.077097
     31 H                     0.102111
     32 C                    -0.227244
     33 H                     0.083527
     34 H                     0.084200
     35 H                     0.082584
  ----------------------------------------
  Sum of atomic charges =    -0.000000

 -----------------------------------------------------------------
                    Cartesian Multipole Moments
 -----------------------------------------------------------------
    Charge (ESU x 10^10)
                -0.0000
    Dipole Moment (Debye)
         X      -0.4782      Y       1.1652      Z       2.1205
       Tot       2.4664
    Quadrupole Moments (Debye-Ang)
        XX     -83.9928     XY      -0.9811     YY     -88.9062
        XZ       1.9628     YZ      -3.4667     ZZ     -96.7781
    Octopole Moments (Debye-Ang^2)
       XXX     -48.5539    XXY      -1.2588    XYY     -18.9081
       YYY      -2.5496    XXZ      -2.5509    XYZ       3.7914
       YYZ      -1.2486    XZZ      -4.6215    YZZ       1.1081
       ZZZ      -6.2165
    Hexadecapole Moments (Debye-Ang^3)
      XXXX   -2205.3419   XXXY     -20.4662   XXYY    -620.0338
      XYYY      -6.2846   YYYY   -1779.8077   XXXZ     -35.2265
      XXYZ      -9.6879   XYYZ      -7.0575   YYYZ     -35.9335
      XXZZ    -472.2133   XYZZ      -9.4266   YYZZ    -378.0346
      XZZZ     -11.3675   YZZZ      -8.6080   ZZZZ    -412.2178
 -----------------------------------------------------------------
 Calculating analytic gradient of the SCF energy
 Gradient of SCF Energy
            1           2           3           4           5           6
    1   0.0027087  -0.0025263   0.0021020   0.0003425  -0.0002585  -0.0003676
    2   0.0005285  -0.0009313   0.0011538   0.0038517  -0.0010226  -0.0011930
    3  -0.0022708   0.0051059   0.0002118  -0.0010979   0.0008650  -0.0012644
            7           8           9          10          11          12
    1   0.0005269   0.0003589  -0.0016541  -0.0015378  -0.0012924  -0.0001521
    2  -0.0009330  -0.0020302  -0.0004347   0.0011506   0.0010047  -0.0000408
    3   0.0009189  -0.0007685   0.0004741   0.0002018   0.0022496   0.0005152
           13          14          15          16          17          18
    1   0.0004301  -0.0014280   0.0014723  -0.0008643   0.0021199  -0.0000304
    2  -0.0006557  -0.0008750   0.0001578  -0.0000982   0.0002915  -0.0001214
    3   0.0008273  -0.0006351  -0.0018187  -0.0001541  -0.0004744  -0.0001728
           19          20          21          22          23          24
    1  -0.0001164   0.0000871   0.0002331   0.0000687   0.0006560  -0.0004306
    2  -0.0000586  -0.0000609   0.0002684   0.0001764  -0.0000871  -0.0001028
    3  -0.0002337  -0.0002330   0.0000935  -0.0003023   0.0000402  -0.0000358
           25          26          27          28          29          30
    1  -0.0000434  -0.0001515  -0.0004166  -0.0004510   0.0003472  -0.0005940
    2  -0.0003193  -0.0001054   0.0002190  -0.0006958  -0.0000347  -0.0001538
    3  -0.0002569  -0.0002190  -0.0000910  -0.0005042   0.0004599  -0.0002386
           31          32          33          34          35
    1   0.0007944  -0.0001708   0.0001359   0.0000268   0.0000752
    2   0.0006269   0.0007345  -0.0001466  -0.0001627   0.0001000
    3  -0.0006759  -0.0005222   0.0000734  -0.0000750   0.0000077
 Max gradient component =       5.106E-03
 RMS gradient           =       1.051E-03
 Gradient time:  CPU 25.50 s  wall 2.46 s
 Geometry Optimization Parameters
   NAtoms,    NIC,     NZ,  NCons,   NDum,   NFix, NCnnct, MaxDiis
       35     275       0       2       0       0       0       0

 Cartesian Hessian Update
 Hessian Updated using BFGS Update


** CONSTRAINED OPTIMIZATION IN DELOCALIZED INTERNAL COORDINATES **
   Searching for a Minimum

   Optimization Cycle:   4

                       Coordinates (Angstroms)
     ATOM                X               Y               Z
      1  C         0.1029935085    0.7135210976    0.7225273528
      2  C         0.5008895224   -0.8198605115    0.7128033659
      3  C        -1.2264771765    0.9842781083   -0.0576008992
      4  C        -0.5977812623   -1.7292823731    0.0425078475
      5  O        -1.9158039807    2.0733651719    0.5677106288
      6  O        -1.6609336680    0.3646423072   -1.0556373152
      7  O        -1.7314380834   -1.7379288547    0.9302683096
      8  O        -0.5372418788   -2.4125045409   -1.0021840101
      9  C        -2.8342137538   -2.5314746504    0.3386084426
     10  C        -3.1774504371    2.3659263051   -0.1568616481
     11  C         1.3618992920    1.3698493933   -0.0104829536
     12  C         2.5797881814    1.3047920260    1.0044261923
     13  C         2.9737654654   -0.2131742904    0.9280669168
     14  C         1.8877762805   -0.7771285853   -0.0851335059
     15  O         1.7111974704    0.3530601476   -1.0336091026
     16  H        -0.0193465414    1.1074723369    1.7464839416
     17  H         0.6683303554   -1.1857572003    1.7413598490
     18  H        -2.5497174290   -3.5958338578    0.2068130061
     19  H        -3.8456482140    1.4809799103   -0.1841519409
     20  H         3.3986671587    1.9511471976    0.6499644240
     21  H         2.2921224054    1.6267442365    2.0179458777
     22  H         3.9808810133   -0.3400502530    0.4995751874
     23  H         2.9433319967   -0.7195908201    1.9059142829
     24  H        -3.6802255521   -2.4609896828    1.0474126752
     25  H        -3.1399993465   -2.1271289501   -0.6484044455
     26  H        -2.9836008724    2.6888011943   -1.2005361982
     27  H        -3.6689795681    3.1861054133    0.3985203582
     28  C         2.3080118508   -2.0669024993   -0.8404822294
     29  H         3.3287689303   -1.9524469291   -1.2357562496
     30  H         2.2859639549   -2.9289005009   -0.1566036211
     31  H         1.6067495352   -2.2581872926   -1.6661283160
     32  C         1.1122753263    2.7519514527   -0.6725363141
     33  H         2.0404906251    3.1166746252   -1.1375835239
     34  H         0.3365504000    2.6669739791   -1.4487968549
     35  H         0.7809978647    3.4800698232    0.0838227005
   Point Group: c1    Number of degrees of freedom:    99


   Energy is   -833.447554300

              Constraints and their Current Values
                                        Value     Constraint
   Dihedral:        2   1   3   5      147.300      147.300
   Dihedral:        1   2   4   7      -69.599      -69.600
 Hessian Updated using BFGS Update

   Using Lagrange Multiplier Algorithm


 89 Hessian modes will be used to form the next step
  Hessian Eigenvalues:
    -0.973794    0.025735    0.045000    0.045001    0.045006    0.045064
     0.045282    0.046509    0.048193    0.059427    0.061057    0.066923
     0.069860    0.071354    0.071780    0.074043    0.075779    0.078299
     0.080770    0.081005    0.081755    0.083046    0.083418    0.083641
     0.083943    0.085067    0.090096    0.091606    0.091985    0.106364
     0.108056    0.113875    0.114442    0.116648    0.116934    0.117001
     0.127912    0.131518    0.140069    0.144668    0.158554    0.160336
     0.161094    0.161977    0.168846    0.186028    0.239887    0.246121
     0.249025    0.249998    0.250055    0.250110    0.251012    0.260769
     0.268070    0.282758    0.289523    0.290364    0.305843    0.306890
     0.308859    0.319408    0.327377    0.337417    0.339273    0.341066
     0.341119    0.341376    0.341629    0.342512    0.342636    0.342824
     0.342865    0.343155    0.343537    0.343632    0.343695    0.343753
     0.343871    0.344090    0.345604    0.379727    0.412069    0.447963
     0.513403    0.541189    0.952321    0.986441    1.037020

 Minimum Search - Taking P-RFO Step
 Searching for Lamda that Maximizes Along the Constraint modes Only
 Value Taken    Lamda =   0.00000192
 Searching for Lamda that Minimizes Along All other modes
 Value Taken    Lamda =  -0.00057541
 Step Taken.  Stepsize is  0.130741

                             Maximum     Tolerance    Cnvgd?
         Gradient            0.003582       0.000300      NO
         Displacement        0.039781       0.001200      NO
         Energy change     -0.000954       0.000001      NO


 New Cartesian Coordinates Obtained by Inverse Iteration

 Displacement from previous Coordinates is:  0.396614
 Adding empirical dispersion correction 
 ----------------------------------------------------------------
 Doing -D3(op) with
 s6 =   1.00000
 s8 =   0.78311
 a1 =   0.30000
 a2 =   4.25000
 n  =  10.00000
 -D3 energy without 3body term =     -0.0410705303 hartrees
 ----------------------------------------------------------------
             Standard Nuclear Orientation (Angstroms)
    I     Atom           X                Y                Z
 ----------------------------------------------------------------
    1      C       0.1060629870     0.7069792357     0.7289863889
    2      C       0.5077417330    -0.8277471047     0.7206036193
    3      C      -1.2293089856     0.9801938698    -0.0402388197
    4      C      -0.5866033288    -1.7360694614     0.0412258204
    5      O      -1.9074649309     2.0721986684     0.5948789768
    6      O      -1.6807912147     0.3639077467    -1.0320578878
    7      O      -1.7262385175    -1.7453977539     0.9234178713
    8      O      -0.5316134808    -2.3924122345    -1.0198438013
    9      C      -2.8299889534    -2.5083308652     0.2953894002
   10      C      -3.1696486174     2.3648285173    -0.1277568538
   11      C       1.3583581718     1.3602993645    -0.0235650347
   12      C       2.5812362265     1.3146069302     0.9864827619
   13      C       2.9811731730    -0.2006198994     0.9273753827
   14      C       1.8959872436    -0.7825988297    -0.0750775172
   15      O       1.6991114359     0.3330865056    -1.0373012928
   16      H      -0.0079874390     1.1081001937     1.7511244631
   17      H       0.6601808780    -1.1898809007     1.7533065486
   18      H      -2.5568200051    -3.5715470687     0.1338508445
   19      H      -3.8384334780     1.4802215319    -0.1523707696
   20      H       3.3939875915     1.9646905573     0.6253111537
   21      H       2.2892130280     1.6432267496     1.9964943861
   22      H       3.9886445603    -0.3319247389     0.5018185376
   23      H       2.9468954929    -0.6954625649     1.9109163466
   24      H      -3.6812632362    -2.4479103001     0.9982452046
   25      H      -3.1185398216    -2.0677122660    -0.6813350560
   26      H      -2.9771733345     2.6877161719    -1.1716706672
   27      H      -3.6560772670     3.1855367409     0.4306236747
   28      C       2.3170361497    -2.0837110583    -0.8102208814
   29      H       3.3297223182    -1.9724492886    -1.2254742057
   30      H       2.3133821049    -2.9283694203    -0.1043862459
   31      H       1.5965470738    -2.3019505281    -1.6126075274
   32      C       1.0907371178     2.7357548316    -0.6922213475
   33      H       2.0091678877     3.1088291012    -1.1696294650
   34      H       0.3049836427     2.6394328848    -1.4568341491
   35      H       0.7603771681     3.4636976158     0.0647823716
 ----------------------------------------------------------------
 Molecular Point Group                 C1    NOp =  1
 Largest Abelian Subgroup              C1    NOp =  1
 Nuclear Repulsion Energy =  1371.4203226081 hartrees
 There are       65 alpha and       65 beta electrons
 Applying Cartesian multipole field
    Component          Value
    ---------          -----
     (2,0,0)        1.00000E-11
     (0,2,0)        2.00000E-11
     (0,0,2)       -3.00000E-11
 Nucleus-field energy     =     0.0000000383 hartrees
 Requested basis set is STO-3G
 There are 52 shells and 103 basis functions
 A cutoff of  1.0D-12 yielded   1202 shell pairs
 There are      5183 function pairs
 Smallest overlap matrix eigenvalue = 2.13E-01
 Guess MOs from SCF MO coefficient file
 Reading MOs from coefficient file
 Reading MOs from coefficient file
 A restricted hybrid HF-DFT SCF calculation will be
 performed using Pulay DIIS extrapolation
 Exchange:     0.2000 Hartree-Fock + 0.0800 Slater + 0.7200 B88
 Correlation:  0.1900 VWN1RPA + 0.8100 LYP
 Using SG-1 standard quadrature grid
 Dispersion:   Grimme D3
 SCF converges when DIIS error is below 1.0E-08
 Geometry optimization detected.  Setting ReadMinima to 0
 Setting SaveMinima to 0
 -------------------------------------------------------
 OpenMP Integral computing Module                
 Release: version 1.0, May 2013, Q-Chem Inc. Pittsburgh 
 -------------------------------------------------------
 -------------------------------------------------------
 OpenMP BLAS3 based DFT computing Module                
 Release: version 1.0, May 2013, Q-Chem Inc. Pittsburgh 
 -------------------------------------------------------
 ---------------------------------------
  Cycle       Energy         DIIS Error
 ---------------------------------------
    1    -833.4446048863      1.35E-03
    2    -833.4479062392      1.27E-04
    3    -833.4478682337      2.25E-04
    4    -833.4479384700      5.23E-05
    5    -833.4479421828      1.87E-05
    6    -833.4479427170      5.75E-06
    7    -833.4479427656      1.84E-06
    8    -833.4479427697      9.01E-07
    9    -833.4479427710      1.12E-07
   10    -833.4479427711      4.87E-08
   11    -833.4479427710      1.09E-08
   12    -833.4479427710      3.51E-09 Convergence criterion met
 ---------------------------------------
 SCF time:  CPU 114.76 s  wall 6.27 s
 SCF   energy in the final basis set = -833.4479427710
 Total energy in the final basis set = -833.4479427710
 
 --------------------------------------------------------------
 
                    Orbital Energies (a.u.)
 --------------------------------------------------------------
 
 Alpha MOs
 -- Occupied --
-18.935 -18.920 -18.874 -18.874 -18.868 -10.097 -10.091 -10.064
-10.062 -10.057 -10.055 -10.032 -10.030 -10.015 -10.014 -10.011
-10.002  -1.011  -0.999  -0.961  -0.934  -0.926  -0.759  -0.736
 -0.718  -0.674  -0.670  -0.652  -0.615  -0.588  -0.531  -0.511
 -0.478  -0.470  -0.451  -0.434  -0.423  -0.415  -0.413  -0.402
 -0.399  -0.385  -0.381  -0.378  -0.367  -0.362  -0.351  -0.342
 -0.334  -0.329  -0.311  -0.296  -0.293  -0.289  -0.286  -0.274
 -0.264  -0.253  -0.246  -0.223  -0.178  -0.168  -0.152  -0.142
 -0.136
 -- Virtual --
  0.095   0.116   0.233   0.254   0.269   0.288   0.304   0.322
  0.339   0.340   0.358   0.369   0.381   0.391   0.401   0.408
  0.414   0.420   0.425   0.426   0.431   0.432   0.438   0.440
  0.448   0.456   0.463   0.470   0.480   0.481   0.487   0.496
  0.506   0.514   0.546   0.556   0.649   0.658
 --------------------------------------------------------------
 
          Ground-State Mulliken Net Atomic Charges

     Atom                 Charge (a.u.)
  ----------------------------------------
      1 C                    -0.080583
      2 C                    -0.080984
      3 C                     0.210652
      4 C                     0.214469
      5 O                    -0.168978
      6 O                    -0.213266
      7 O                    -0.177196
      8 O                    -0.209401
      9 C                    -0.129849
     10 C                    -0.128991
     11 C                     0.105694
     12 C                    -0.145751
     13 C                    -0.145585
     14 C                     0.105258
     15 O                    -0.196651
     16 H                     0.084974
     17 H                     0.082709
     18 H                     0.086247
     19 H                     0.089876
     20 H                     0.074782
     21 H                     0.071357
     22 H                     0.074737
     23 H                     0.070416
     24 H                     0.085977
     25 H                     0.092252
     26 H                     0.088263
     27 H                     0.090165
     28 C                    -0.230493
     29 H                     0.077893
     30 H                     0.076438
     31 H                     0.102735
     32 C                    -0.227417
     33 H                     0.083460
[...]
 C          0.000  0.000 -0.000    0.000  0.000 -0.000   -0.001  0.000 -0.001
 C         -0.000 -0.000  0.000    0.015  0.032  0.021    0.020  0.040  0.021
 C         -0.001  0.001 -0.001   -0.032  0.023 -0.030    0.009 -0.012  0.018
 C          0.000  0.000 -0.000    0.000  0.000  0.000   -0.001 -0.001 -0.001
 O         -0.000 -0.000  0.000   -0.000 -0.000 -0.000    0.000 -0.000  0.000
 H          0.001 -0.001 -0.004   -0.007  0.023  0.063    0.003 -0.010 -0.030
 H         -0.003  0.007 -0.022   -0.043  0.087 -0.297    0.085 -0.173  0.588
 H         -0.105  0.404  0.010    0.007 -0.026 -0.001   -0.005  0.021  0.000
 H          0.276  0.366  0.049    0.001  0.002  0.000    0.001  0.001  0.000
 H          0.001  0.001 -0.001   -0.298 -0.240  0.150   -0.375 -0.304  0.189
 H          0.000 -0.000 -0.001    0.132 -0.134 -0.392    0.148 -0.150 -0.433
 H          0.017 -0.001 -0.007    0.412 -0.031 -0.161   -0.127  0.008  0.053
 H         -0.002 -0.009  0.019   -0.045 -0.238  0.506    0.022  0.126 -0.263
 H          0.221 -0.050 -0.200   -0.015  0.003  0.013    0.011 -0.003 -0.010
 H          0.107 -0.135  0.374   -0.007  0.009 -0.025    0.006 -0.007  0.020
 H         -0.105 -0.201  0.434   -0.000 -0.001  0.002   -0.000 -0.000  0.001
 H          0.134 -0.221 -0.204    0.001 -0.001 -0.001    0.000 -0.000 -0.000
 C          0.001 -0.001  0.000   -0.005  0.005  0.000    0.000  0.000  0.000
 H         -0.010 -0.003  0.004    0.073  0.019 -0.029    0.000 -0.000 -0.000
 H         -0.001  0.010 -0.008    0.006 -0.067  0.054    0.000  0.001 -0.001
 H          0.003  0.001  0.004   -0.023 -0.010 -0.030   -0.001  0.000 -0.000
 C         -0.000  0.000  0.000   -0.001  0.003 -0.002   -0.001  0.003 -0.001
 H         -0.001 -0.000  0.001   -0.036 -0.015  0.019   -0.027 -0.011  0.014
 H          0.003  0.001  0.003    0.032  0.007  0.034    0.029  0.005  0.030
 H          0.002 -0.004 -0.004    0.017 -0.033 -0.031    0.014 -0.027 -0.025
 TransDip  -0.225 -0.012 -0.046   -0.067  0.162 -0.004    0.085  0.120  0.048

 Mode:                88                     89                     90
 Frequency:      3067.46                3090.51                3099.62
 Force Cnst:      5.9400                 6.2292                 6.2393
 Red. Mass:       1.0715                 1.1069                 1.1022
 IR Active:          YES                    YES                    YES
 IR Intens:       29.076                  0.185                 12.540
 Raman Active:       YES                    YES                    YES
               X      Y      Z        X      Y      Z        X      Y      Z
 C         -0.001  0.004  0.010   -0.001  0.002  0.007   -0.001  0.002  0.006
 C         -0.007  0.016 -0.054    0.001 -0.003  0.009    0.000 -0.000  0.001
 C          0.000 -0.000  0.000   -0.000  0.000  0.000   -0.000  0.000  0.000
 C          0.000 -0.000 -0.001   -0.000  0.000  0.000    0.000 -0.000 -0.000
 O         -0.000  0.000 -0.000    0.000 -0.000 -0.000   -0.000 -0.000 -0.000
 O         -0.000 -0.000 -0.000    0.000 -0.000  0.000    0.000 -0.000 -0.000
 O         -0.000 -0.000  0.000   -0.000 -0.000 -0.000   -0.000  0.000  0.000
 O         -0.000  0.000  0.000    0.000 -0.000 -0.000   -0.000  0.000  0.000
 C         -0.000 -0.001 -0.000    0.000  0.000 -0.000   -0.000  0.000  0.000
 C          0.000 -0.000  0.000   -0.000 -0.000  0.000    0.000  0.000 -0.000
 C          0.001 -0.001  0.000    0.001  0.000 -0.000    0.000  0.000 -0.000
 C         -0.008 -0.020 -0.013    0.042  0.011 -0.052    0.017  0.005 -0.020
 C         -0.034  0.018 -0.017   -0.041 -0.011  0.046    0.002  0.001 -0.004
 C         -0.000  0.001  0.000   -0.000 -0.000  0.000   -0.001 -0.001  0.001
 O          0.000 -0.000  0.000   -0.000  0.000  0.000   -0.000  0.000 -0.000
 H          0.013 -0.042 -0.118    0.007 -0.029 -0.077    0.007 -0.026 -0.070
 H          0.094 -0.189  0.647   -0.016  0.034 -0.115   -0.001  0.003 -0.011
 H         -0.002  0.009  0.000    0.000 -0.001 -0.000    0.001 -0.003 -0.000
 H         -0.004 -0.005 -0.001    0.000  0.000  0.000   -0.001 -0.001 -0.000
 H          0.176  0.142 -0.089   -0.359 -0.299  0.166   -0.144 -0.120  0.067
 H         -0.081  0.083  0.236   -0.143  0.168  0.455   -0.055  0.065  0.173
 H          0.429 -0.034 -0.162    0.468 -0.043 -0.164   -0.026  0.004  0.011
 H         -0.033 -0.173  0.366    0.020  0.181 -0.383   -0.002 -0.017  0.032
 H          0.004 -0.001 -0.004   -0.001  0.000  0.001    0.000 -0.000 -0.000
 H          0.002 -0.002  0.007   -0.000  0.000 -0.001    0.000 -0.000  0.000
 H          0.002  0.003 -0.007    0.000  0.000 -0.001    0.000  0.000 -0.000
 H         -0.002  0.003  0.003   -0.000  0.000  0.000   -0.000  0.000  0.000
 C         -0.003  0.004  0.000    0.009  0.011 -0.010   -0.043 -0.054  0.054
 H          0.052  0.013 -0.021   -0.113 -0.028  0.040    0.608  0.145 -0.222
 H          0.005 -0.052  0.041    0.013 -0.108  0.089   -0.064  0.526 -0.428
 H         -0.020 -0.009 -0.026   -0.002  0.001 -0.009   -0.022 -0.019 -0.001
 C          0.000 -0.001  0.001   -0.006  0.000  0.002   -0.003  0.000  0.001
 H          0.010  0.004 -0.005    0.044  0.017 -0.021    0.026  0.010 -0.012
 H         -0.010 -0.001 -0.010    0.013  0.003  0.017    0.006  0.002  0.008
 H         -0.005  0.009  0.008    0.010 -0.022 -0.021    0.006 -0.014 -0.013
 TransDip  -0.118  0.051 -0.115    0.004  0.010 -0.009   -0.072 -0.061  0.064

 Mode:                91                     92                     93
 Frequency:      3108.42                3110.51                3116.27
 Force Cnst:      6.2814                 6.2748                 6.3091
 Red. Mass:       1.1034                 1.1008                 1.1027
 IR Active:          YES                    YES                    YES
 IR Intens:       14.997                 29.003                 20.366
 Raman Active:       YES                    YES                    YES
               X      Y      Z        X      Y      Z        X      Y      Z
 C          0.003 -0.009 -0.025    0.003 -0.008 -0.024   -0.000  0.001  0.003
 C          0.000 -0.000  0.002   -0.000  0.001 -0.001    0.000 -0.000  0.001
 C          0.000 -0.001 -0.001    0.001 -0.000 -0.000    0.000  0.000 -0.000
 C          0.000  0.000  0.000    0.000  0.000  0.000   -0.000  0.000  0.000
 O         -0.000  0.000  0.000   -0.000 -0.000  0.000    0.000 -0.000 -0.000
 O          0.000  0.000  0.000    0.000  0.000 -0.000   -0.000 -0.000  0.000
 O         -0.000 -0.000  0.000   -0.000 -0.000  0.000    0.000 -0.000  0.000
 O         -0.000 -0.000 -0.000   -0.000 -0.000 -0.000    0.000 -0.000 -0.000
 C         -0.000  0.000 -0.000    0.000 -0.000  0.000    0.000 -0.001  0.000
 C          0.000  0.001 -0.001   -0.000 -0.001  0.001   -0.001 -0.002  0.002
 C         -0.000 -0.000 -0.000   -0.001  0.000  0.002   -0.002 -0.001 -0.001
 C         -0.028 -0.009  0.033   -0.016 -0.005  0.017   -0.008 -0.003  0.010
 C         -0.039 -0.012  0.045   -0.017 -0.005  0.018   -0.005 -0.002  0.006
 C         -0.001 -0.001  0.001   -0.001 -0.000  0.001   -0.000 -0.000  0.000
 O          0.000  0.000 -0.000    0.000 -0.000 -0.000    0.000  0.000  0.000
 H         -0.032  0.110  0.299   -0.029  0.102  0.275    0.004 -0.013 -0.034
 H         -0.001  0.006 -0.022    0.003 -0.004  0.012   -0.002  0.004 -0.013
 H          0.001 -0.004 -0.000   -0.000  0.000  0.000   -0.001  0.005  0.000
 H         -0.003 -0.004 -0.001    0.004  0.005  0.001    0.011  0.015  0.003
 H          0.248  0.209 -0.116    0.139  0.117 -0.064    0.074  0.060 -0.033
 H          0.087 -0.105 -0.274    0.046 -0.055 -0.147    0.025 -0.030 -0.080
 H          0.454 -0.043 -0.159    0.192 -0.018 -0.067    0.062 -0.006 -0.022
 H          0.020  0.180 -0.374    0.008  0.074 -0.155    0.003  0.026 -0.052
 H         -0.000 -0.000 -0.000   -0.000  0.000  0.000   -0.000  0.000  0.001
 H          0.000 -0.000  0.001   -0.001  0.001 -0.002   -0.001  0.002 -0.005
 H         -0.002 -0.004  0.009    0.002  0.003 -0.006    0.005  0.009 -0.020
 H          0.001 -0.001 -0.001   -0.000 -0.000 -0.000    0.001 -0.003 -0.002
 C         -0.009 -0.011  0.012   -0.004 -0.004  0.005   -0.001 -0.001  0.001
 H          0.139  0.032 -0.052    0.055  0.013 -0.021    0.014  0.003 -0.005
 H         -0.014  0.110 -0.089   -0.005  0.042 -0.034   -0.001  0.010 -0.008
 H         -0.011 -0.007 -0.010   -0.005 -0.003 -0.004   -0.002 -0.001 -0.002
 C          0.033 -0.008 -0.028   -0.042  0.023  0.065   -0.073 -0.036 -0.041
 H         -0.296 -0.124  0.146    0.454  0.195 -0.220    0.422  0.171 -0.230
 H          0.003 -0.003 -0.012   -0.160 -0.027 -0.140    0.553  0.112  0.574
 H         -0.103  0.220  0.206    0.216 -0.448 -0.420   -0.095  0.155  0.149
 TransDip  -0.082 -0.064  0.067   -0.124 -0.025  0.117   -0.134 -0.054 -0.010

 Mode:                94                     95                     96
 Frequency:      3118.61                3122.10                3123.47
 Force Cnst:      6.2421                 6.3573                 6.3640
 Red. Mass:       1.0893                 1.1070                 1.1071
 IR Active:          YES                    YES                    YES
 IR Intens:       26.119                 20.209                 14.229
 Raman Active:       YES                    YES                    YES
               X      Y      Z        X      Y      Z        X      Y      Z
 C          0.007 -0.026 -0.069    0.000  0.000 -0.001   -0.000  0.000  0.000
 C         -0.002  0.004 -0.010   -0.000  0.000 -0.000    0.000 -0.000  0.000
 C          0.001 -0.001 -0.001   -0.000 -0.000  0.000    0.000  0.000  0.000
 C          0.000  0.000 -0.000    0.000  0.000 -0.000   -0.000 -0.000 -0.000
 O         -0.000  0.000  0.000   -0.000 -0.000  0.000   -0.000 -0.000  0.000
 O          0.000  0.000  0.001   -0.000 -0.000  0.000   -0.000 -0.000 -0.000
 O         -0.000 -0.000  0.000   -0.000 -0.000  0.000   -0.000  0.000 -0.000
 O         -0.000  0.000  0.000   -0.000 -0.000  0.000    0.000  0.000 -0.000
 C          0.000 -0.001  0.001   -0.003  0.008 -0.004    0.031 -0.075  0.048
 C         -0.001 -0.000  0.000    0.048  0.067 -0.046    0.005  0.006 -0.005
 C          0.000 -0.001 -0.001   -0.000 -0.000  0.000    0.000  0.000 -0.000
 C          0.018  0.002 -0.026    0.000 -0.000 -0.000   -0.000  0.000  0.000
 C          0.014  0.005 -0.017    0.000  0.000 -0.000   -0.000 -0.000  0.000
 C         -0.000  0.001 -0.001    0.000  0.000 -0.000    0.000 -0.000  0.000
 O         -0.000  0.000  0.001    0.000 -0.000  0.000   -0.000  0.000 -0.000
 H         -0.090  0.302  0.821   -0.001  0.002  0.004    0.001 -0.002 -0.006
 H          0.019 -0.041  0.130    0.000 -0.001  0.002   -0.000  0.001 -0.002
 H         -0.001  0.005  0.000    0.018 -0.069 -0.003   -0.180  0.684  0.032
 H          0.006  0.008  0.001   -0.418 -0.562 -0.093   -0.041 -0.055 -0.009
 H         -0.144 -0.120  0.067   -0.000 -0.000  0.000    0.000  0.000 -0.000
 H         -0.079  0.093  0.250   -0.000  0.000  0.001    0.000 -0.000 -0.001
 H         -0.157  0.016  0.055   -0.002  0.000  0.001    0.001 -0.000 -0.000
 H         -0.008 -0.075  0.155   -0.000 -0.001  0.002    0.000  0.001 -0.002
 H          0.001 -0.000 -0.001    0.004  0.000 -0.005   -0.022 -0.008  0.034
 H         -0.001  0.002 -0.005    0.016 -0.020  0.061   -0.170  0.213 -0.636
 H          0.000 -0.001  0.001   -0.144 -0.270  0.621   -0.015 -0.027  0.062
 H          0.002 -0.004 -0.004   -0.009  0.043  0.018   -0.002  0.006  0.003
 C          0.002  0.002 -0.002    0.000  0.000 -0.000   -0.000 -0.000  0.000
 H         -0.026 -0.006  0.010   -0.002 -0.000  0.001    0.001  0.000 -0.001
 H          0.003 -0.021  0.016    0.000 -0.001  0.001   -0.000  0.002 -0.002
 H          0.001  0.001  0.001    0.000  0.000 -0.000   -0.000 -0.000 -0.000
 C         -0.001 -0.007 -0.012   -0.003 -0.001 -0.000    0.000  0.000  0.000
 H         -0.014 -0.007  0.005    0.020  0.008 -0.010   -0.003 -0.001  0.001
 H          0.070  0.013  0.071    0.016  0.004  0.018   -0.003 -0.001 -0.003
 H         -0.040  0.080  0.073    0.000 -0.002 -0.002    0.000 -0.001 -0.001
 TransDip   0.056 -0.028 -0.151    0.069  0.103 -0.073    0.037 -0.102  0.053

 Mode:                97                     98                     99
 Frequency:      3152.51                3156.18                3165.56
 Force Cnst:      6.4790                 6.4918                 6.4736
 Red. Mass:       1.1065                 1.1061                 1.0965
 IR Active:          YES                    YES                    YES
 IR Intens:       14.028                 14.397                  2.216
 Raman Active:       YES                    YES                    YES
               X      Y      Z        X      Y      Z        X      Y      Z
 C         -0.000  0.000  0.000    0.000  0.000 -0.000    0.000 -0.000 -0.000
 C          0.000 -0.000 -0.000   -0.000  0.000 -0.000    0.000 -0.000 -0.000
 C         -0.000  0.000  0.000   -0.001 -0.000 -0.001    0.000 -0.000 -0.000
 C          0.000  0.001  0.001   -0.000  0.000 -0.000    0.000 -0.000 -0.000
 O          0.000 -0.000 -0.000   -0.000  0.000  0.000   -0.000  0.000  0.000
 O         -0.000 -0.000 -0.000    0.000  0.000  0.000    0.000  0.000  0.000
 O          0.000 -0.000 -0.000    0.000 -0.000  0.000   -0.000  0.000  0.000
 O         -0.000 -0.000 -0.000    0.000 -0.000  0.000   -0.001 -0.000  0.000
 C         -0.052  0.026  0.075    0.000  0.000 -0.001    0.000 -0.000 -0.000
 C         -0.000 -0.001 -0.000    0.019 -0.062 -0.069    0.000 -0.000 -0.000
 C          0.000  0.000  0.000   -0.000 -0.000  0.000    0.000 -0.000 -0.000
 C         -0.000  0.000  0.000    0.000 -0.000 -0.000   -0.000  0.000 -0.000
 C         -0.000 -0.000  0.000   -0.000  0.000 -0.000   -0.001  0.000  0.001
 C          0.000  0.000  0.000   -0.000  0.000 -0.000   -0.001  0.000 -0.001
 O         -0.000 -0.000 -0.000    0.000  0.000  0.000    0.000 -0.000  0.000
 H          0.000 -0.001 -0.002    0.000  0.000  0.002   -0.000  0.001  0.002
 H         -0.000 -0.000 -0.001    0.000 -0.000  0.000   -0.000 -0.001  0.003
 H          0.067 -0.281  0.008    0.000 -0.001 -0.000   -0.000  0.002 -0.000
 H          0.003  0.004  0.001    0.202  0.257  0.022    0.000  0.000  0.000
 H         -0.000 -0.000  0.000    0.000  0.000 -0.000    0.000  0.000 -0.000
 H          0.000 -0.000 -0.001   -0.000  0.000  0.001   -0.000  0.000  0.001
 H          0.000 -0.000 -0.000    0.000 -0.000 -0.000    0.011  0.000 -0.003
 H          0.000  0.000 -0.000   -0.000 -0.000  0.000    0.000  0.002 -0.005
 H          0.648 -0.147 -0.590   -0.003  0.001  0.003   -0.003  0.001  0.002
 H         -0.099  0.122 -0.306    0.001 -0.001  0.004    0.000 -0.000  0.001
 H          0.000  0.000 -0.001   -0.060 -0.128  0.238   -0.000 -0.000  0.000
 H         -0.002  0.003  0.003   -0.365  0.604  0.555   -0.000  0.001  0.001
 C         -0.000  0.000 -0.000    0.000  0.000  0.000   -0.063 -0.014 -0.063
 H         -0.000 -0.000  0.000    0.000  0.000 -0.000    0.198  0.052 -0.086
 H          0.000 -0.001  0.001   -0.000  0.000 -0.000    0.004 -0.153  0.113
 H          0.003  0.001  0.003   -0.001 -0.000 -0.001    0.564  0.264  0.720
 C         -0.000  0.000  0.000   -0.000 -0.000 -0.000   -0.000 -0.000 -0.000
 H         -0.000 -0.000  0.000    0.001  0.001 -0.001    0.000  0.000 -0.000
 H         -0.000  0.000 -0.000    0.001  0.000  0.002    0.001  0.000  0.001
 H          0.000 -0.000 -0.000   -0.000  0.001  0.001   -0.000  0.001  0.000
 TransDip  -0.083  0.022  0.084    0.045 -0.084 -0.075   -0.024 -0.005 -0.041

 STANDARD THERMODYNAMIC QUANTITIES AT   298.15 K  AND     1.00 ATM

   This Molecule has  0 Imaginary Frequencies
   Zero point vibrational energy:      183.648 kcal/mol

   Atom    1 Element C  Has Mass   12.00000
   Atom    2 Element C  Has Mass   12.00000
   Atom    3 Element C  Has Mass   12.00000
   Atom    4 Element C  Has Mass   12.00000
   Atom    5 Element O  Has Mass   15.99491
   Atom    6 Element O  Has Mass   15.99491
   Atom    7 Element O  Has Mass   15.99491
   Atom    8 Element O  Has Mass   15.99491
   Atom    9 Element C  Has Mass   12.00000
   Atom   10 Element C  Has Mass   12.00000
   Atom   11 Element C  Has Mass   12.00000
   Atom   12 Element C  Has Mass   12.00000
   Atom   13 Element C  Has Mass   12.00000
   Atom   14 Element C  Has Mass   12.00000
   Atom   15 Element O  Has Mass   15.99491
   Atom   16 Element H  Has Mass    1.00783
   Atom   17 Element H  Has Mass    1.00783
   Atom   18 Element H  Has Mass    1.00783
   Atom   19 Element H  Has Mass    1.00783
   Atom   20 Element H  Has Mass    1.00783
   Atom   21 Element H  Has Mass    1.00783
   Atom   22 Element H  Has Mass    1.00783
   Atom   23 Element H  Has Mass    1.00783
   Atom   24 Element H  Has Mass    1.00783
   Atom   25 Element H  Has Mass    1.00783
   Atom   26 Element H  Has Mass    1.00783
   Atom   27 Element H  Has Mass    1.00783
   Atom   28 Element C  Has Mass   12.00000
   Atom   29 Element H  Has Mass    1.00783
   Atom   30 Element H  Has Mass    1.00783
   Atom   31 Element H  Has Mass    1.00783
   Atom   32 Element C  Has Mass   12.00000
   Atom   33 Element H  Has Mass    1.00783
   Atom   34 Element H  Has Mass    1.00783
   Atom   35 Element H  Has Mass    1.00783
   Molecular Mass:   242.115490 amu
   Principal axes and moments of inertia in amu*Bohr^2:
                             1           2           3
    Eigenvalues --     2978.60117  3615.13529  5612.84196
          X               0.99991    -0.01194     0.00561
          Y               0.01197     0.99992    -0.00470
          Z              -0.00555     0.00477     0.99997
   Rotational Symmetry Number is   1
   The Molecule is an Asymmetric Top
   Translational Enthalpy:        0.889 kcal/mol
   Rotational Enthalpy:           0.889 kcal/mol
   Vibrational Enthalpy:        192.700 kcal/mol
   gas constant (RT):             0.592 kcal/mol
   Translational Entropy:        42.354  cal/mol.K
   Rotational Entropy:           32.469  cal/mol.K
   Vibrational Entropy:          58.061  cal/mol.K

   Total Enthalpy:              195.069 kcal/mol
   Total Entropy:               132.883  cal/mol.K
Archival summary:
1\1\nid04268\FREQ\ProcedureUnspecified\BasisUnspecified\51218\junteng\WedOct422:38:012017WedOct422:38:012017\0\\#,FREQ,ProcedureUnspecified,BasisUnspecified,\\0,1\O\C,1,1.43116\C,1,1.44178,2,99.1215\C,2,1.51291,1,110.857,3,179.363,0\H,4,1.09147,2,110.816,1,56.8245,0\H,4,1.09189,2,109.692,1,-62.6893,0\H,4,1.09287,2,110.557,1,177.572,0\C,3,1.51346,1,110.72,2,-176.375,0\H,8,1.0866,3,111.104,1,-55.4177,0\H,8,1.09259,3,109.171,1,65.5883,0\H,8,1.09336,3,110.338,1,-175.324,0\C,2,1.55009,1,102.61,3,55.1078,0\H,12,1.09167,2,112.523,1,-155.402,0\H,12,1.09183,2,109.581,1,84.5607,0\C,12,1.54976,2,101.452,1,-33.3008,0\H,15,1.09127,12,111.244,2,117.014,0\H,15,1.09198,12,113.734,2,-121.051,0\C,3,1.56395,1,102.164,2,55.6201,0\H,18,1.09301,3,110.008,1,-147.757,0\C,18,1.52253,3,117.983,1,92.5843,0\O,20,1.20179,18,128.214,3,3.28954,0\O,20,1.35679,18,108.568,3,-179.881,0\C,22,1.43912,20,115.761,18,174.753,0\H,23,1.08806,22,105.474,20,-179.396,0\H,23,1.09096,22,110.729,20,60.9708,0\H,23,1.09119,22,109.843,20,-60.0376,0\C,18,1.56714,3,101.749,1,-32.8661,0\H,27,1.08839,18,111.719,3,-117.732,0\C,27,1.51199,18,115.35,3,119.095,0\O,29,1.20568,27,126.454,18,-38.5909,0\O,29,1.35289,27,110.226,18,144.237,0\C,31,1.43954,29,115.905,27,176.727,0\H,32,1.08777,31,105.474,29,177.963,0\H,32,1.09089,31,110.465,29,58.365,0\H,32,1.09129,31,110.49,29,-62.4995,0\\\@

 Total job time:  14181.23s(wall), 84559.81s(cpu) 
 Wed Oct  4 22:38:01 2017

        *************************************************************
        *                                                           *
        *  Thank you very much for using Q-Chem.  Have a nice day.  *
        *                                                           *
        *************************************************************


