nid04269 10.128.16
Q-Chem Developer Version! Running on 10.128.16.*
                  Welcome to Q-Chem
     A Quantum Leap Into The Future Of Chemistry


 Q-Chem 5.0, Q-Chem, Inc., Pleasanton, CA (2017)

 Yihan Shao,  Zhengting Gan,  E. Epifanovsky,  A. T. B. Gilbert,  M. Wormit,  
 J. Kussmann,  A. W. Lange,  A. Behn,  Jia Deng,  Xintian Feng,  D. Ghosh,  
 M. Goldey,  P. R. Horn,  L. D. Jacobson,  I. Kaliman,  T. Kus,  A. Landau,  
 Jie Liu,  E. I. Proynov,  R. M. Richard,  R. P. Steele,  E. J. Sundstrom,  
 H. L. Woodcock III,  P. M. Zimmerman,  D. Zuev,  B. Albrecht,  E. Alguire,  
 S. A. Baeppler,  Z. Benda,  Y. A. Bernard,  E. J. Berquist,  K. B. Bravaya,  
 D. Casanova,  Chun-Min Chang,  Yunqing Chen,  A. Chien,  K. D. Closser,  
 M. P. Coons,  S. Dasgupta,  M. Diedenhofen,  Hainam Do,  R. G. Edgar,  
 Po-Tung Fang,  S. Fatehi,  Qingguo Feng,  Qinghui Ge,  A. Ghysels,  
 J. Gomes,  J. Gonthier,  A. Gunina,  M. W. D. Hanson-Heine,  
 P. H. P. Harbach,  A. W. Hauser,  J. E. Herr,  E. G. Hohenstein,  
 Z. C. Holden,  Kerwin Hui,  T.-C. Jagau,  Hyunjun Ji,  B. Kaduk,  
 K. Khistyaev,  Jaehoon Kim,  P. Klunzinger,  K. Koh,  D. Kosenkov,  
 T. Kowalczyk,  C. M. Krauter,  A. Kunitsa,  Ka Un Lao,  A. Laurent,  
 K. V. Lawler,  Joonho Lee,  D. Lefrancois,  S. Lehtola,  D. S. Levine,  
 Yi-Pei Li,  You-Sheng Lin,  Fenglai Liu,  E. Livshits,  A. Luenser,  
 P. Manohar,  E. Mansoor,  S. F. Manzer,  Shan-Ping Mao,  Yuezhi Mao,  
 N. Mardirossian,  A. V. Marenich,  L. A. Martinez-Martinez,  S. A. Maurer,  
 N. J. Mayhall,  S. C. McKenzie,  J.-M. Mewes,  A. F. Morrison,  K. Nanda,  
 T. S. Nguyen-Beck,  R. Olivares-Amaya,  J. A. Parkhill,  T. M. Perrine,  
 F. Plasser,  S. Prager,  A. Prociuk,  D. R. Rehn,  F. Rob,  M. Schneider,  
 N. Sergueev,  S. M. Sharada,  S. Sharma,  D. W. Small,  T. Stauch,  
 T. Stein,  Yu-Chuan Su,  A. J. W. Thom,  T. Tsuchimochi,  L. Vogt,  
 O. Vydrov,  M. A. Watson,  J. Wenzel,  M. de Wergifosse,  T. A. Wesolowski,  
 A. White,  J. Witte,  A. Yamada,  Jun Yang,  K. Yao,  S. Yeganeh,  
 S. R. Yost,  Zhi-Qiang You,  A. Zech,  Igor Ying Zhang,  Xing Zhang,  
 Yan Zhao,  Ying Zhu,  B. R. Brooks,  G. K. L. Chan,  C. J. Cramer,  
 M. S. Gordon,  W. J. Hehre,  A. Klamt,  M. W. Schmidt,  C. D. Sherrill,  
 D. G. Truhlar,  A. Aspuru-Guzik,  R. Baer,  A. T. Bell,  N. A. Besley,  
 Jeng-Da Chai,  A. Dreuw,  B. D. Dunietz,  T. R. Furlani,  Chao-Ping Hsu,  
 Yousung Jung,  Jing Kong,  D. S. Lambrecht,  WanZhen Liang,  C. Ochsenfeld,  
 V. A. Rassolov,  L. V. Slipchenko,  J. E. Subotnik,  T. Van Voorhis,  
 J. M. Herbert,  A. I. Krylov,  P. M. W. Gill,  M. Head-Gordon

 Contributors to earlier versions of Q-Chem not listed above: 
 R. D. Adamson,  B. Austin,  J. Baker,  G. J. O. Beran,  K. Brandhorst,  
 S. T. Brown,  E. F. C. Byrd,  A. K. Chakraborty,  C.-L. Cheng,  
 Siu Hung Chien,  D. M. Chipman,  D. L. Crittenden,  H. Dachsel,  
 R. A. DiStasio Jr.,  R. J. Doerksen,  A. D. Dutoi,  L. Fusti-Molnar,  
 W. A. Goddard III,  A. Golubeva-Zadorozhnaya,  S. R. Gwaltney,  G. Hawkins,  
 A. Heyden,  S. Hirata,  G. Kedziora,  F. J. Keil,  C. Kelley,  Jihan Kim,  
 R. A. King,  R. Z. Khaliullin,  P. P. Korambath,  W. Kurlancheek,  
 A. M. Lee,  M. S. Lee,  S. V. Levchenko,  Ching Yeh Lin,  D. Liotard,  
 R. C. Lochan,  I. Lotan,  P. E. Maslen,  N. Nair,  D. P. O'Neill,  
 D. Neuhauser,  E. Neuscamman,  C. M. Oana,  R. Olson,  B. Peters,  
 R. Peverati,  P. A. Pieniazek,  Y. M. Rhee,  J. Ritchie,  M. A. Rohrdanz,  
 E. Rosta,  N. J. Russ,  H. F. Schaefer III,  N. E. Schultz,  N. Shenvi,  
 A. C. Simmonett,  A. Sodt,  D. Stuck,  K. S. Thanthiriwatte,  V. Vanovschi,  
 Tao Wang,  A. Warshel,  C. F. Williams,  Q. Wu,  X. Xu,  W. Zhang

 Please cite Q-Chem as follows:
 Y. Shao et al., Mol. Phys. 113, 184-215 (2015)
 DOI: 10.1080/00268976.2014.952696

 Q-Chem 5.0.0 for Intel X86 EM64T Linux

 Parts of Q-Chem use Armadillo 5.200.1 (Boston Tea Smuggler).
 http://arma.sourceforge.net/

 Q-Chem begins on Wed Oct  4 17:59:30 2017  

Host: nid04269
0

     Scratch files written to /global/cscratch1/sd/junteng/scratch/15/opt_1111+o.save//

Checking the input file for inconsistencies... 	...done.

--------------------------------------------------------------
User input:
--------------------------------------------------------------
$molecule
0  1
C    0.579  -1.978   0.499
C   -0.345  -1.987   1.740
C    0.941  -0.610  -0.048
C   -0.562  -0.630   2.386
O    2.215  -0.645  -0.542
O    0.210   0.366  -0.087
O    0.648  -0.161   2.826
O   -1.631  -0.088   2.617
C    0.572   1.116   3.461
C    2.652   0.593  -1.106
C   -0.242  -2.782  -0.524
C   -0.292  -4.259  -0.098
C   -1.265  -4.223   1.081
C   -1.594  -2.718   1.188
O   -1.591  -2.362  -0.216
H    1.516  -2.494   0.747
H    0.090  -2.606   2.538
H   -0.024   1.052   4.377
H    2.622   1.389  -0.356
H   -0.708  -4.895  -0.888
H    0.690  -4.657   0.174
H   -2.154  -4.811   0.825
H   -0.840  -4.639   1.999
H    1.587   1.422   3.729
H    0.156   1.863   2.777
H    2.039   0.852  -1.975
H    3.687   0.467  -1.436
C   -2.945  -2.478   1.828
H   -3.699  -3.155   1.411
H   -2.911  -2.635   2.910
H   -3.320  -1.473   1.614
C    0.085  -2.603  -1.994
H   -0.579  -3.214  -2.616
H   -0.074  -1.570  -2.320
H    1.119  -2.890  -2.210
$end


$opt
CONSTRAINT
tors    2    1    3    5    152.3
tors    1    2    4    7    -64.6
ENDCONSTRAINT
$end

$rem
JOBTYPE                   OPT
METHOD                    B3LYP
DFT_D                     D3_OP
BASIS                     STO-3G
GEOM_OPT_MAX_CYCLES       500
SYMMETRY                  False
THRESH                    12
SCF_CONVERGENCE           8
MAX_SUB_FILE_NUM          128
MEM_STATIC                400
MEM_TOTAL                 4000
$end

--------------------------------------------------------------
 Adding empirical dispersion correction 
 ----------------------------------------------------------------
 Doing -D3(op) with
 s6 =   1.00000
 s8 =   0.78311
 a1 =   0.30000
 a2 =   4.25000
 n  =  10.00000
 -D3 energy without 3body term =     -0.0411703493 hartrees
 ----------------------------------------------------------------
             Standard Nuclear Orientation (Angstroms)
    I     Atom           X                Y                Z
 ----------------------------------------------------------------
    1      C       0.0405485511     0.6575719166     0.6279970458
    2      C       0.4485580788    -0.8348816956     0.6210370951
    3      C      -1.2236982091     1.0027230799    -0.1363509142
    4      C      -0.5983616521    -1.7818052351     0.0614400192
    5      O      -1.8727982861     2.0215992616     0.5030999569
    6      O      -1.5961984503     0.4914952944    -1.1795899671
    7      O      -1.7171432315    -1.7052423029     0.8489213808
    8      O      -0.4521119641    -2.5882506495    -0.8430724586
    9      C      -2.7784272181    -2.5607562126     0.4228905721
   10      C      -3.0723596472     2.4436939349    -0.1485116050
   11      C       1.2695511140     1.3340043222    -0.0036499292
   12      C       2.4565832498     1.2598809157     0.9715246343
   13      C       2.8623527980    -0.2112841170     0.8761804153
   14      C       1.8144140588    -0.7767714946    -0.1070608698
   15      O       1.6672726917     0.3585939812    -0.9943351534
   16      H      -0.1006442077     0.9849117819     1.6665740614
   17      H       0.6216642017    -1.1903109685     1.6471434747
   18      H      -2.4797608129    -3.6105469360     0.5071865717
   19      H      -3.7802435395     1.6131239838    -0.2264214976
   20      H       3.2933331402     1.8856898890     0.6400661152
   21      H       2.1911460006     1.5619689502     1.9888730929
   22      H       3.8755559769    -0.2734341450     0.4624683269
   23      H       2.8636012425    -0.7181800102     1.8454378604
   24      H      -3.6353600821    -2.3906923623     1.0804841802
   25      H      -3.0783059100    -2.3222438675    -0.6028314328
   26      H      -2.8433670294     2.8555358485    -1.1364182905
   27      H      -3.5276066382     3.2308286629     0.4590820891
   28      C       2.3256610058    -2.0007489527    -0.8370654871
   29      H       3.3506780532    -1.8430305545    -1.1909001368
   30      H       2.3227728949    -2.8841446677    -0.1919820277
   31      H       1.7440132593    -2.2037087567    -1.7409123862
   32      C       1.0880301320     2.7130571330    -0.6079126850
   33      H       2.0289460417     3.0747186755    -1.0380047444
   34      H       0.3716132743     2.6999266795    -1.4356931372
   35      H       0.7526844869     3.4359215512     0.1425480610
 ----------------------------------------------------------------
 Molecular Point Group                 C1    NOp =  1
 Largest Abelian Subgroup              C1    NOp =  1
 Nuclear Repulsion Energy =  1395.7531872986 hartrees
 There are       65 alpha and       65 beta electrons
 Requested basis set is STO-3G
 There are 52 shells and 103 basis functions

 Total QAlloc Memory Limit   4000 MB
 Mega-Array Size       392 MB
 MEM_STATIC part       400 MB
 A cutoff of  1.0D-12 yielded   1204 shell pairs
 There are      5194 function pairs
 
 -------------------------------------------------------
 OpenMP Integral Computing Module                       
 Release: version 1.0, May 2013, Q-Chem Inc. Pittsburgh 
 -------------------------------------------------------
 Integral Job Info:
 Integral job number is                      11
 Integral operator is                         1
 short-range coefficients                     0
 long-range coefficients              100000000
 Omega coefficients                           0
 if combine SR and LR in K                    0
 Integral screening is                        0
 Integral computing path is                   2
 max size of driver memory is            800000
 size of driver memory is                 45569
 size of scratch memory is               945100
 max col of scratch BK array                289
 max len of scratch array in speh3           22
 max len of scratch index in speh4            8
 max int batch size is                      520
 min int batch size is                       52
 fixed nKL is                                52
 max L of basis functions is                  1
 order of int derivative is                   0
 number of shells is                         52
 number of basis is                         103
 number of cartesian basis is               103
 number of contracted shell pairs          1204
 number of primitive shell pairs           6556
 maxK2 (contraction) of shell pair            9
 max number of K2 of shell pair               1
 max number of CS2 of shell pair            185
 max number of PS2 of shell pair            828
 mem total for path MDJ                   33898
 -------------------------------------------------------
 Smallest overlap matrix eigenvalue = 1.95E-01

 Scale SEOQF with 1.000000e-01/1.000000e-01/1.000000e-01

 Standard Electronic Orientation quadrupole field applied
 Nucleus-field energy     =     0.0000000384 hartrees
 Guess from superposition of atomic densities
 Warning:  Energy on first SCF cycle will be non-variational
 A restricted hybrid HF-DFT SCF calculation will be
 performed using Pulay DIIS extrapolation
 Exchange:     0.2000 Hartree-Fock + 0.0800 Slater + 0.7200 B88
 Correlation:  0.1900 VWN1RPA + 0.8100 LYP
 Using SG-1 standard quadrature grid
 Dispersion:   Grimme D3
 SCF converges when DIIS error is below 1.0E-08
 -------------------------------------------------------
 OpenMP Integral computing Module                
 Release: version 1.0, May 2013, Q-Chem Inc. Pittsburgh 
 -------------------------------------------------------
 -------------------------------------------------------
 OpenMP BLAS3 based DFT computing Module                
 Release: version 1.0, May 2013, Q-Chem Inc. Pittsburgh 
 -------------------------------------------------------
 ---------------------------------------
  Cycle       Energy         DIIS Error
 ---------------------------------------
    1    -832.4613427662      1.05E-01
    2    -833.1370762580      1.27E-02
    3    -832.1370895692      3.08E-02
    4    -833.3782765538      4.55E-03
    5    -833.4066960607      1.46E-03
    6    -833.4098473704      2.71E-04
    7    -833.4099544728      7.62E-05
    8    -833.4099606041      4.17E-05
    9    -833.4099632398      4.63E-06
   10    -833.4099632746      1.22E-06
   11    -833.4099632769      3.03E-07
   12    -833.4099632770      8.71E-08
   13    -833.4099632770      1.56E-08
   14    -833.4099632771      3.41E-09 Convergence criterion met
 ---------------------------------------
 SCF time:  CPU 139.14 s  wall 7.03 s
 SCF   energy in the final basis set = -833.4099632771
 Total energy in the final basis set = -833.4099632771
 
 --------------------------------------------------------------
 
                    Orbital Energies (a.u.)
 --------------------------------------------------------------
 
 Alpha MOs
 -- Occupied --
-18.942 -18.934 -18.865 -18.864 -18.861 -10.107 -10.103 -10.074
-10.068 -10.064 -10.060 -10.030 -10.029 -10.013 -10.007 -10.005
-10.002  -1.042  -1.034  -0.985  -0.951  -0.945  -0.773  -0.753
 -0.733  -0.690  -0.680  -0.671  -0.624  -0.593  -0.545  -0.520
 -0.491  -0.482  -0.466  -0.447  -0.439  -0.429  -0.428  -0.422
 -0.411  -0.391  -0.387  -0.379  -0.371  -0.369  -0.364  -0.345
 -0.341  -0.334  -0.309  -0.305  -0.304  -0.292  -0.287  -0.281
 -0.271  -0.247  -0.241  -0.214  -0.181  -0.175  -0.151  -0.141
 -0.130
 -- Virtual --
  0.111   0.129   0.243   0.280   0.295   0.311   0.331   0.354
  0.372   0.379   0.388   0.400   0.403   0.413   0.419   0.432
  0.439   0.444   0.449   0.451   0.456   0.457   0.463   0.467
  0.475   0.480   0.487   0.492   0.498   0.506   0.510   0.513
  0.537   0.546   0.583   0.586   0.707   0.709
 --------------------------------------------------------------
 
          Ground-State Mulliken Net Atomic Charges

     Atom                 Charge (a.u.)
  ----------------------------------------
      1 C                    -0.084595
      2 C                    -0.084928
      3 C                     0.236932
      4 C                     0.238677
      5 O                    -0.187608
      6 O                    -0.231157
      7 O                    -0.194162
      8 O                    -0.225991
      9 C                    -0.126414
     10 C                    -0.126312
     11 C                     0.111091
     12 C                    -0.148495
     13 C                    -0.147098
     14 C                     0.111557
     15 O                    -0.214092
     16 H                     0.087026
     17 H                     0.085427
     18 H                     0.091170
     19 H                     0.093535
     20 H                     0.075293
     21 H                     0.069960
     22 H                     0.075299
     23 H                     0.068530
     24 H                     0.092479
     25 H                     0.096380
     26 H                     0.092817
     27 H                     0.095226
     28 C                    -0.230291
     29 H                     0.078853
     30 H                     0.081177
     31 H                     0.098540
     32 C                    -0.231645
     33 H                     0.084746
     34 H                     0.083765
     35 H                     0.084309
  ----------------------------------------
  Sum of atomic charges =    -0.000000

 -----------------------------------------------------------------
                    Cartesian Multipole Moments
 -----------------------------------------------------------------
    Charge (ESU x 10^10)
                 0.0000
    Dipole Moment (Debye)
         X      -0.8782      Y       1.1630      Z       2.3527
       Tot       2.7675
    Quadrupole Moments (Debye-Ang)
        XX     -83.8071     XY      -0.7113     YY     -88.8934
        XZ       0.9767     YZ      -3.9015     ZZ     -96.9292
    Octopole Moments (Debye-Ang^2)
       XXX     -46.3966    XXY      -1.7284    XYY     -21.3534
       YYY       5.1219    XXZ      -0.4018    XYZ       3.8207
       YYZ       2.3429    XZZ      -3.9993    YZZ      -0.3880
       ZZZ      -3.3241
    Hexadecapole Moments (Debye-Ang^3)
      XXXX   -2091.2066   XXXY      -6.0688   XXYY    -600.9185
      XYYY      -2.1704   YYYY   -1803.7757   XXXZ     -28.9029
      XXYZ      -4.3762   XYYZ      -7.7605   YYYZ     -36.1812
      XXZZ    -448.9289   XYZZ      -3.9821   YYZZ    -373.8865
      XZZZ      -5.3102   YZZZ       4.7161   ZZZZ    -389.6427
 -----------------------------------------------------------------
 Calculating analytic gradient of the SCF energy
 Gradient of SCF Energy
            1           2           3           4           5           6
    1   0.0068753  -0.0046877  -0.0166998  -0.0197001  -0.0083837   0.0221746
    2  -0.0061405   0.0027730   0.0136587  -0.0050542  -0.0333299   0.0277086
    3  -0.0439619  -0.0259477  -0.0049261   0.0059897  -0.0526228   0.0536548
            7           8           9          10          11          12
    1   0.0189254  -0.0015472   0.0137487   0.0155365  -0.0147881  -0.0140183
    2  -0.0354658   0.0374925   0.0122788  -0.0053058  -0.0088645  -0.0163340
    3  -0.0479698   0.0469183   0.0073292   0.0104380   0.0044710  -0.0276032
           13          14          15          16          17          18
    1  -0.0188788  -0.0134132   0.0002181   0.0010425   0.0008687  -0.0002796
    2   0.0098466   0.0013371  -0.0017583  -0.0047971  -0.0026952   0.0134481
    3  -0.0239240   0.0041002   0.0591838  -0.0036425  -0.0066526   0.0045960
           19          20          21          22          23          24
    1   0.0096437   0.0015668   0.0018289  -0.0016174   0.0000789   0.0064180
    2   0.0080000  -0.0065480  -0.0026222   0.0062579   0.0036352  -0.0035888
    3   0.0068064   0.0026614  -0.0056205   0.0037838  -0.0055836  -0.0080883
           25          26          27          28          29          30
    1   0.0035522   0.0029766   0.0019587  -0.0076661  -0.0055637   0.0022017
    2   0.0031584  -0.0020146  -0.0071906   0.0172553  -0.0035201   0.0034711
    3   0.0127123   0.0138624  -0.0075342   0.0224771  -0.0038969  -0.0029576
           31          32          33          34          35
    1   0.0094985   0.0042312  -0.0054129   0.0069380   0.0023733
    2   0.0036308  -0.0187618   0.0004390   0.0011666  -0.0015662
    3  -0.0003602   0.0173100  -0.0021302   0.0011114  -0.0039838
 Max gradient component =       5.918E-02
 RMS gradient           =       1.675E-02
 Gradient time:  CPU 25.70 s  wall 1.18 s
 Geometry Optimization Parameters
   NAtoms,    NIC,     NZ,  NCons,   NDum,   NFix, NCnnct, MaxDiis
       35     275       0       2       0       0       0       0


** CONSTRAINED OPTIMIZATION IN DELOCALIZED INTERNAL COORDINATES **
   Searching for a Minimum

   Optimization Cycle:   1

                       Coordinates (Angstroms)
     ATOM                X               Y               Z
      1  C         0.0405485511    0.6575719166    0.6279970458
      2  C         0.4485580788   -0.8348816956    0.6210370951
      3  C        -1.2236982091    1.0027230799   -0.1363509142
      4  C        -0.5983616521   -1.7818052351    0.0614400192
      5  O        -1.8727982861    2.0215992616    0.5030999569
      6  O        -1.5961984503    0.4914952944   -1.1795899671
      7  O        -1.7171432315   -1.7052423029    0.8489213808
      8  O        -0.4521119641   -2.5882506495   -0.8430724586
      9  C        -2.7784272181   -2.5607562126    0.4228905721
     10  C        -3.0723596472    2.4436939349   -0.1485116050
     11  C         1.2695511140    1.3340043222   -0.0036499292
     12  C         2.4565832498    1.2598809157    0.9715246343
     13  C         2.8623527980   -0.2112841170    0.8761804153
     14  C         1.8144140588   -0.7767714946   -0.1070608698
     15  O         1.6672726917    0.3585939812   -0.9943351534
     16  H        -0.1006442077    0.9849117819    1.6665740614
     17  H         0.6216642017   -1.1903109685    1.6471434747
     18  H        -2.4797608129   -3.6105469360    0.5071865717
     19  H        -3.7802435395    1.6131239838   -0.2264214976
     20  H         3.2933331402    1.8856898890    0.6400661152
     21  H         2.1911460006    1.5619689502    1.9888730929
     22  H         3.8755559769   -0.2734341450    0.4624683269
     23  H         2.8636012425   -0.7181800102    1.8454378604
     24  H        -3.6353600821   -2.3906923623    1.0804841802
     25  H        -3.0783059100   -2.3222438675   -0.6028314328
     26  H        -2.8433670294    2.8555358485   -1.1364182905
     27  H        -3.5276066382    3.2308286629    0.4590820891
     28  C         2.3256610058   -2.0007489527   -0.8370654871
     29  H         3.3506780532   -1.8430305545   -1.1909001368
     30  H         2.3227728949   -2.8841446677   -0.1919820277
     31  H         1.7440132593   -2.2037087567   -1.7409123862
     32  C         1.0880301320    2.7130571330   -0.6079126850
     33  H         2.0289460417    3.0747186755   -1.0380047444
     34  H         0.3716132743    2.6999266795   -1.4356931372
     35  H         0.7526844869    3.4359215512    0.1425480610
   Point Group: c1    Number of degrees of freedom:    99


   Energy is   -833.409963277

              Constraints and their Current Values
                                        Value     Constraint
   Dihedral:        2   1   3   5      145.794      152.300
   Dihedral:        1   2   4   7      -61.913      -64.600

 Attempting to Generate Delocalized Internal Coordinates

   Using Lagrange Multiplier Algorithm


101 Hessian modes will be used to form the next step
  Hessian Eigenvalues:
    -0.977753   -0.977753    0.045000    0.045000    0.045000    0.045000
     0.045000    0.045000    0.045023    0.045263    0.045502    0.048606
     0.060298    0.061777    0.067925    0.070278    0.071449    0.071695
     0.075522    0.076606    0.078244    0.080811    0.081377    0.081808
     0.083396    0.083502    0.083514    0.083675    0.084645    0.090017
     0.091538    0.091907    0.106339    0.109001    0.113820    0.113949
     0.116299    0.116905    0.116996    0.126894    0.131265    0.139894
     0.144501    0.160000    0.160000    0.160000    0.160000    0.160000
     0.160000    0.160000    0.160000    0.160000    0.160000    0.160000
     0.160000    0.165730    0.185925    0.241736    0.248635    0.249881
     0.250000    0.250000    0.250000    0.250000    0.250633    0.260748
     0.267050    0.282050    0.285547    0.305111    0.306449    0.307030
     0.309452    0.327325    0.337229    0.338979    0.340712    0.341060
     0.341086    0.341343    0.341531    0.342465    0.342607    0.342751
     0.342848    0.342936    0.343451    0.343609    0.343704    0.343747
     0.343768    0.343978    0.344143    0.411501    0.412503    0.509233
     0.515826    0.951140    0.953727    1.022753    1.022753

 Minimum Search - Taking P-RFO Step
 Searching for Lamda that Maximizes Along the Constraint modes Only
 Value Taken    Lamda =   0.00775814
 Searching for Lamda that Minimizes Along All other modes
 Value Taken    Lamda =  -0.07087428
 Calculated Step too Large.  Step scaled by  0.706024
 Step Taken.  Stepsize is  0.300000

                             Maximum     Tolerance    Cnvgd?
         Gradient            0.113554       0.000300      NO
         Displacement        0.100135       0.001200      NO
         Energy change     *********       0.000001      NO


 New Cartesian Coordinates Obtained by Inverse Iteration

 Displacement from previous Coordinates is:  0.691784
 Adding empirical dispersion correction 
 ----------------------------------------------------------------
 Doing -D3(op) with
 s6 =   1.00000
 s8 =   0.78311
 a1 =   0.30000
 a2 =   4.25000
 n  =  10.00000
 -D3 energy without 3body term =     -0.0407829074 hartrees
 ----------------------------------------------------------------
             Standard Nuclear Orientation (Angstroms)
    I     Atom           X                Y                Z
 ----------------------------------------------------------------
    1      C       0.0428980439     0.6672624270     0.6835402118
    2      C       0.4692706967    -0.8455360801     0.6540451549
    3      C      -1.2556535099     0.9883160704    -0.0977206726
    4      C      -0.6048654311    -1.7967908807     0.0554648508
    5      O      -1.8892765859     2.0807067562     0.5088736924
    6      O      -1.6463780972     0.4396515353    -1.1429429470
    7      O      -1.7291943048    -1.7482562317     0.8958088851
    8      O      -0.4867628920    -2.5859591853    -0.8968646249
    9      C      -2.8077414886    -2.6118455293     0.4328209061
   10      C      -3.0984567325     2.4882159674    -0.1971468167
   11      C       1.2963513950     1.3522106458     0.0100148263
   12      C       2.5056455055     1.2808503749     1.0106227378
   13      C       2.9173453166    -0.2185093246     0.9024039745
   14      C       1.8482247352    -0.7776634304    -0.1113393442
   15      O       1.6896611653     0.3717758980    -1.0139337530
   16      H      -0.0881821398     1.0186619997     1.7204176959
   17      H       0.6593493731    -1.2138986907     1.6776964725
   18      H      -2.5121791859    -3.6775355294     0.4533312060
   19      H      -3.8354195024     1.6655588330    -0.2476087961
   20      H       3.3333287849     1.9218077881     0.6753265594
   21      H       2.2365181577     1.5848481657     2.0326472743
   22      H       3.9284205479    -0.2956161113     0.4782598511
   23      H       2.9182365344    -0.7397235687     1.8708338502
   24      H      -3.6561220402    -2.4688162822     1.1228332795
   25      H      -3.1344968660    -2.3409417622    -0.5884686339
   26      H      -2.8707998580     2.8405712249    -1.2204560011
   27      H      -3.5401761265     3.3226324994     0.3727175148
   28      C       2.3349898735    -2.0188669267    -0.8787571014
   29      H       3.3611446063    -1.8599605839    -1.2411961385
   30      H       2.3280286539    -2.9101167316    -0.2375526419
   31      H       1.7170152841    -2.2056604112    -1.7677796447
   32      C       1.0841581727     2.7423333116    -0.6157765509
   33      H       2.0233188445     3.1071169831    -1.0554290130
   34      H       0.3480898621     2.7073352279    -1.4320620842
   35      H       0.7463025814     3.4650544850     0.1396180512
 ----------------------------------------------------------------
 Molecular Point Group                 C1    NOp =  1
 Largest Abelian Subgroup              C1    NOp =  1
 Nuclear Repulsion Energy =  1374.6712094761 hartrees
 There are       65 alpha and       65 beta electrons
 Applying Cartesian multipole field
    Component          Value
    ---------          -----
     (2,0,0)        1.00000E-11
     (0,2,0)        2.00000E-11
     (0,0,2)       -3.00000E-11
 Nucleus-field energy     =     0.0000000392 hartrees
 Requested basis set is STO-3G
 There are 52 shells and 103 basis functions
 A cutoff of  1.0D-12 yielded   1201 shell pairs
 There are      5182 function pairs
 Smallest overlap matrix eigenvalue = 2.08E-01
 Guess MOs from SCF MO coefficient file
 Reading MOs from coefficient file
 Reading MOs from coefficient file
 A restricted hybrid HF-DFT SCF calculation will be
 performed using Pulay DIIS extrapolation
 Exchange:     0.2000 Hartree-Fock + 0.0800 Slater + 0.7200 B88
 Correlation:  0.1900 VWN1RPA + 0.8100 LYP
 Using SG-1 standard quadrature grid
 Dispersion:   Grimme D3
 SCF converges when DIIS error is below 1.0E-08
 Geometry optimization detected.  Setting ReadMinima to 0
 Setting SaveMinima to 0
 -------------------------------------------------------
 OpenMP Integral computing Module                
 Release: version 1.0, May 2013, Q-Chem Inc. Pittsburgh 
 -------------------------------------------------------
 -------------------------------------------------------
 OpenMP BLAS3 based DFT computing Module                
 Release: version 1.0, May 2013, Q-Chem Inc. Pittsburgh 
 -------------------------------------------------------
 ---------------------------------------
  Cycle       Energy         DIIS Error
 ---------------------------------------
    1    -833.2766161916      5.04E-03
    2    -833.4350124559      1.81E-03
    3    -833.4288462881      2.76E-03
    4    -833.4394943348      6.07E-04
    5    -833.4400683956      1.03E-04
    6    -833.4400855128      2.50E-05
    7    -833.4400859001      2.09E-05
    8    -833.4400865508      4.19E-06
    9    -833.4400865816      6.96E-07
   10    -833.4400865823      3.11E-07
   11    -833.4400865825      5.87E-08
   12    -833.4400865825      2.14E-08
   13    -833.4400865826      3.88E-09 Convergence criterion met
 ---------------------------------------
 SCF time:  CPU 125.44 s  wall 6.20 s
 SCF   energy in the final basis set = -833.4400865826
 Total energy in the final basis set = -833.4400865826
 
 --------------------------------------------------------------
 
                    Orbital Energies (a.u.)
 --------------------------------------------------------------
 
 Alpha MOs
 -- Occupied --
-18.939 -18.929 -18.869 -18.867 -18.863 -10.101 -10.096 -10.069
-10.063 -10.062 -10.058 -10.032 -10.030 -10.013 -10.010 -10.008
-10.003  -1.022  -1.013  -0.969  -0.940  -0.933  -0.762  -0.741
 -0.722  -0.679  -0.675  -0.661  -0.619  -0.589  -0.536  -0.515
 -0.484  -0.475  -0.455  -0.438  -0.428  -0.419  -0.419  -0.411
 -0.403  -0.385  -0.383  -0.378  -0.368  -0.364  -0.359  -0.341
 -0.338  -0.331  -0.307  -0.299  -0.296  -0.290  -0.287  -0.277
 -0.266  -0.249  -0.242  -0.219  -0.179  -0.171  -0.151  -0.141
 -0.133
 -- Virtual --
  0.102   0.119   0.237   0.262   0.278   0.296   0.315   0.337
  0.355   0.359   0.370   0.378   0.390   0.397   0.410   0.416
  0.426   0.427   0.431   0.432   0.438   0.441   0.445   0.450
  0.453   0.466   0.471   0.478   0.485   0.487   0.494   0.499
  0.519   0.524   0.559   0.564   0.669   0.672
 --------------------------------------------------------------
 
          Ground-State Mulliken Net Atomic Charges

     Atom                 Charge (a.u.)
  ----------------------------------------
      1 C                    -0.081096
      2 C                    -0.081546
      3 C                     0.220333
      4 C                     0.222958
      5 O                    -0.177376
      6 O                    -0.219778
      7 O                    -0.184306
      8 O                    -0.216455
      9 C                    -0.125442
     10 C                    -0.125299
     11 C                     0.107667
     12 C                    -0.146814
     13 C                    -0.145692
     14 C                     0.107857
     15 O                    -0.203677
     16 H                     0.085736
     17 H                     0.083719
     18 H                     0.087836
     19 H                     0.090588
     20 H                     0.074621
     21 H                     0.069975
     22 H                     0.074079
     23 H                     0.068428
     24 H                     0.088997
     25 H                     0.093058
     26 H                     0.089838
     27 H                     0.092051
     28 C                    -0.227690
     29 H                     0.078062
     30 H                     0.079820
     31 H                     0.098375
     32 C                    -0.228660
     33 H                     0.083449
     34 H                     0.083302
     35 H                     0.083083
  ----------------------------------------
  Sum of atomic charges =    -0.000000

 -----------------------------------------------------------------
                    Cartesian Multipole Moments
 -----------------------------------------------------------------
    Charge (ESU x 10^10)
                -0.0000
    Dipole Moment (Debye)
         X      -0.6975      Y       1.1567      Z       2.2519
       Tot       2.6259
    Quadrupole Moments (Debye-Ang)
        XX     -83.7617     XY      -0.8971     YY     -88.7288
        XZ       1.3767     YZ      -3.8223     ZZ     -96.6861
    Octopole Moments (Debye-Ang^2)
       XXX     -46.4737    XXY      -1.5896    XYY     -21.2271
       YYY       3.6249    XXZ      -1.3095    XYZ       4.5087
       YYZ       1.1015    XZZ      -3.8737    YZZ       0.5297
       ZZZ      -4.9974
    Hexadecapole Moments (Debye-Ang^3)
      XXXX   -2142.6197   XXXY     -10.2240   XXYY    -613.7429
      XYYY      -3.6259   YYYY   -1842.9560   XXXZ     -30.1624
      XXYZ      -6.6792   XYYZ      -7.3246   YYYZ     -36.0871
      XXZZ    -460.1404   XYZZ      -5.8069   YYZZ    -385.4729
      XZZZ      -8.0772   YZZZ       2.8004   ZZZZ    -405.8999
 -----------------------------------------------------------------
 Calculating analytic gradient of the SCF energy
 Gradient of SCF Energy
            1           2           3           4           5           6
    1   0.0002174  -0.0008813  -0.0086556  -0.0132735  -0.0030621   0.0080405
    2  -0.0024037   0.0021140   0.0096833   0.0064533  -0.0153214   0.0092042
    3  -0.0180217  -0.0098704   0.0089297   0.0091285  -0.0232538   0.0116920
            7           8           9          10          11          12
    1   0.0095493   0.0021005   0.0070654   0.0085183  -0.0087866  -0.0042698
    2  -0.0160857   0.0065979   0.0066900  -0.0018693  -0.0031389  -0.0025082
    3  -0.0219292   0.0134229   0.0050170   0.0064684   0.0037471  -0.0108737
           13          14          15          16          17          18
    1  -0.0052666  -0.0091952   0.0040365   0.0001041   0.0024310  -0.0006023
    2   0.0016795  -0.0020324  -0.0016979  -0.0014552  -0.0021341   0.0031214
    3  -0.0098643   0.0008496   0.0209955  -0.0008810  -0.0024477   0.0023820
           19          20          21          22          23          24
    1   0.0018603   0.0013943   0.0018994  -0.0004976   0.0017998   0.0006999
    2   0.0024597  -0.0033640   0.0001850   0.0030972   0.0011579  -0.0017355
    3   0.0025758   0.0022084  -0.0014351   0.0024184  -0.0014035  -0.0029696
           25          26          27          28          29          30
    1  -0.0000475   0.0006172  -0.0006832  -0.0038226  -0.0020582   0.0013424
    2   0.0012320   0.0008912  -0.0018755   0.0060069  -0.0016727   0.0009201
    3   0.0036257   0.0038686  -0.0027820   0.0116893  -0.0029829  -0.0013816
           31          32          33          34          35
    1   0.0056542   0.0019267  -0.0024448   0.0031879   0.0011016
    2   0.0016577  -0.0077213   0.0004208   0.0014776  -0.0000338
    3  -0.0025840   0.0085488  -0.0020011  -0.0013010  -0.0015851
 Max gradient component =       2.325E-02
 RMS gradient           =       6.787E-03
 Gradient time:  CPU 25.73 s  wall 1.15 s
 Geometry Optimization Parameters
   NAtoms,    NIC,     NZ,  NCons,   NDum,   NFix, NCnnct, MaxDiis
       35     275       0       2       0       0       0       0

 Cartesian Hessian Update
 Hessian Updated using BFGS Update


** CONSTRAINED OPTIMIZATION IN DELOCALIZED INTERNAL COORDINATES **
   Searching for a Minimum

   Optimization Cycle:   2

                       Coordinates (Angstroms)
     ATOM                X               Y               Z
      1  C         0.0428980439    0.6672624270    0.6835402118
      2  C         0.4692706967   -0.8455360801    0.6540451549
      3  C        -1.2556535099    0.9883160704   -0.0977206726
      4  C        -0.6048654311   -1.7967908807    0.0554648508
      5  O        -1.8892765859    2.0807067562    0.5088736924
      6  O        -1.6463780972    0.4396515353   -1.1429429470
      7  O        -1.7291943048   -1.7482562317    0.8958088851
      8  O        -0.4867628920   -2.5859591853   -0.8968646249
      9  C        -2.8077414886   -2.6118455293    0.4328209061
     10  C        -3.0984567325    2.4882159674   -0.1971468167
     11  C         1.2963513950    1.3522106458    0.0100148263
     12  C         2.5056455055    1.2808503749    1.0106227378
     13  C         2.9173453166   -0.2185093246    0.9024039745
     14  C         1.8482247352   -0.7776634304   -0.1113393442
     15  O         1.6896611653    0.3717758980   -1.0139337530
     16  H        -0.0881821398    1.0186619997    1.7204176959
     17  H         0.6593493731   -1.2138986907    1.6776964725
     18  H        -2.5121791859   -3.6775355294    0.4533312060
     19  H        -3.8354195024    1.6655588330   -0.2476087961
     20  H         3.3333287849    1.9218077881    0.6753265594
     21  H         2.2365181577    1.5848481657    2.0326472743
     22  H         3.9284205479   -0.2956161113    0.4782598511
     23  H         2.9182365344   -0.7397235687    1.8708338502
     24  H        -3.6561220402   -2.4688162822    1.1228332795
     25  H        -3.1344968660   -2.3409417622   -0.5884686339
     26  H        -2.8707998580    2.8405712249   -1.2204560011
     27  H        -3.5401761265    3.3226324994    0.3727175148
     28  C         2.3349898735   -2.0188669267   -0.8787571014
     29  H         3.3611446063   -1.8599605839   -1.2411961385
     30  H         2.3280286539   -2.9101167316   -0.2375526419
     31  H         1.7170152841   -2.2056604112   -1.7677796447
     32  C         1.0841581727    2.7423333116   -0.6157765509
     33  H         2.0233188445    3.1071169831   -1.0554290130
     34  H         0.3480898621    2.7073352279   -1.4320620842
     35  H         0.7463025814    3.4650544850    0.1396180512
   Point Group: c1    Number of degrees of freedom:    99


   Energy is   -833.440086583

              Constraints and their Current Values
                                        Value     Constraint
   Dihedral:        2   1   3   5      150.218      152.300
   Dihedral:        1   2   4   7      -63.753      -64.600
 Hessian Updated using BFGS Update

   Using Lagrange Multiplier Algorithm


 85 Hessian modes will be used to form the next step
  Hessian Eigenvalues:
    -0.977912   -0.977298    0.044818    0.045001    0.045009    0.045215
     0.045494    0.048591    0.060299    0.061469    0.067936    0.070193
     0.071457    0.071692    0.075457    0.076506    0.078274    0.080806
     0.081280    0.081782    0.083211    0.083417    0.083515    0.083659
     0.084752    0.090002    0.091430    0.091903    0.106355    0.109031
     0.113727    0.113910    0.116502    0.116906    0.116998    0.126540
     0.131684    0.139907    0.144635    0.158429    0.161740    0.165572
     0.185931    0.241337    0.243152    0.248816    0.249887    0.250062
     0.251222    0.260777    0.268770    0.283375    0.289869    0.305636
     0.306831    0.308812    0.317478    0.327126    0.337243    0.338987
     0.340974    0.341074    0.341340    0.341516    0.342060    0.342557
     0.342651    0.342839    0.342868    0.343309    0.343590    0.343691
     0.343716    0.343759    0.343910    0.344095    0.373131    0.411960
     0.417794    0.498421    0.513721    0.952359    0.974744    1.022681
     1.024511

 Minimum Search - Taking P-RFO Step
 Searching for Lamda that Maximizes Along the Constraint modes Only
 Value Taken    Lamda =   0.00066211
 Searching for Lamda that Minimizes Along All other modes
 Value Taken    Lamda =  -0.01341384
 Step Taken.  Stepsize is  0.286498

                             Maximum     Tolerance    Cnvgd?
         Gradient            0.036338       0.000300      NO
         Displacement        0.086271       0.001200      NO
         Energy change     -0.030123       0.000001      NO


 New Cartesian Coordinates Obtained by Inverse Iteration

 Displacement from previous Coordinates is:  0.901111
 Adding empirical dispersion correction 
 ----------------------------------------------------------------
 Doing -D3(op) with
 s6 =   1.00000
 s8 =   0.78311
 a1 =   0.30000
 a2 =   4.25000
 n  =  10.00000
 -D3 energy without 3body term =     -0.0410685704 hartrees
 ----------------------------------------------------------------
             Standard Nuclear Orientation (Angstroms)
    I     Atom           X                Y                Z
 ----------------------------------------------------------------
    1      C       0.0800595334     0.6780186755     0.7389487398
    2      C       0.5001379035    -0.8403400857     0.7006723505
    3      C      -1.2435764335     0.9489147261    -0.0434613406
    4      C      -0.6029106561    -1.7639288154     0.0685500500
    5      O      -1.8825377489     2.0838673363     0.5342563784
    6      O      -1.6698038706     0.3325263331    -1.0469240785
    7      O      -1.7375746345    -1.7047456524     0.9362568115
    8      O      -0.5356413691    -2.5069105554    -0.9343980719
    9      C      -2.8283824866    -2.5263939462     0.3797247070
   10      C      -3.1159918929     2.3944329227    -0.2148403402
   11      C       1.3264564314     1.3641941651     0.0152233617
   12      C       2.5488439017     1.2952051392     1.0201800417
   13      C       2.9602282644    -0.2171689326     0.9114822614
   14      C       1.8741487531    -0.7724809408    -0.1045744021
   15      O       1.6924782207     0.3765423693    -1.0267023202
   16      H      -0.0339118274     1.0545054818     1.7707926128
   17      H       0.6938168150    -1.2113343877     1.7240258168
   18      H      -2.5501369346    -3.5996170201     0.3284003077
   19      H      -3.8232728983     1.5395847326    -0.2139899823
   20      H       3.3606529034     1.9528979824     0.6699579004
   21      H       2.2743094491     1.5989193588     2.0433254858
   22      H       3.9653547289    -0.3178965271     0.4712703757
   23      H       2.9536011677    -0.7426586261     1.8801984912
   24      H      -3.6859228375    -2.4017846248     1.0670426477
   25      H      -3.1167171350    -2.1880796012    -0.6370312221
   26      H      -2.8967908506     2.6686319401    -1.2676798689
   27      H      -3.5782805793     3.2562224918     0.3016027114
   28      C       2.3135519368    -2.0342484643    -0.8899696783
   29      H       3.3350557534    -1.8895953044    -1.2754047950
   30      H       2.3017281072    -2.9172525922    -0.2336267708
   31      H       1.6340882242    -2.2104050638    -1.7373836981
   32      C       1.0731129903     2.7530780143    -0.6260083454
   33      H       2.0027241845     3.1241625471    -1.0843664044
   34      H       0.3050871692     2.6812033721    -1.4116582382
   35      H       0.7386090910     3.4711464852     0.1383507360
 ----------------------------------------------------------------
 Molecular Point Group                 C1    NOp =  1
 Largest Abelian Subgroup              C1    NOp =  1
 Nuclear Repulsion Energy =  1373.4213945950 hartrees
 There are       65 alpha and       65 beta electrons
 Applying Cartesian multipole field
    Component          Value
    ---------          -----
     (2,0,0)        1.00000E-11
     (0,2,0)        2.00000E-11
     (0,0,2)       -3.00000E-11
 Nucleus-field energy     =     0.0000000384 hartrees
 Requested basis set is STO-3G
 There are 52 shells and 103 basis functions
 A cutoff of  1.0D-12 yielded   1203 shell pairs
 There are      5187 function pairs
 Smallest overlap matrix eigenvalue = 2.13E-01
 Guess MOs from SCF MO coefficient file
 Reading MOs from coefficient file
 Reading MOs from coefficient file
 A restricted hybrid HF-DFT SCF calculation will be
 performed using Pulay DIIS extrapolation
 Exchange:     0.2000 Hartree-Fock + 0.0800 Slater + 0.7200 B88
 Correlation:  0.1900 VWN1RPA + 0.8100 LYP
 Using SG-1 standard quadrature grid
 Dispersion:   Grimme D3
 SCF converges when DIIS error is below 1.0E-08
 Geometry optimization detected.  Setting ReadMinima to 0
 Setting SaveMinima to 0
 -------------------------------------------------------
 OpenMP Integral computing Module                
 Release: version 1.0, May 2013, Q-Chem Inc. Pittsburgh 
 -------------------------------------------------------
 -------------------------------------------------------
 OpenMP BLAS3 based DFT computing Module                
 Release: version 1.0, May 2013, Q-Chem Inc. Pittsburgh 
 -------------------------------------------------------
 ---------------------------------------
  Cycle       Energy         DIIS Error
 ---------------------------------------
    1    -833.3463490835      4.61E-03
    2    -833.4447092817      1.21E-03
    3    -833.4402152737      2.16E-03
    4    -833.4468033481      4.09E-04
    5    -833.4470596518      9.61E-05
    6    -833.4470739409      2.58E-05
    7    -833.4470743562      2.15E-05
    8    -833.4470750456      4.22E-06
    9    -833.4470750764      6.54E-07
   10    -833.4470750770      2.93E-07
   11    -833.4470750771      5.71E-08
   12    -833.4470750772      2.03E-08
   13    -833.4470750772      3.68E-09 Convergence criterion met
 ---------------------------------------
 SCF time:  CPU 127.55 s  wall 6.21 s
 SCF   energy in the final basis set = -833.4470750772
 Total energy in the final basis set = -833.4470750772
 
 --------------------------------------------------------------
 
                    Orbital Energies (a.u.)
 --------------------------------------------------------------
 
 Alpha MOs
 -- Occupied --
-18.938 -18.923 -18.873 -18.872 -18.865 -10.098 -10.091 -10.066
-10.061 -10.057 -10.057 -10.032 -10.029 -10.015 -10.013 -10.010
-10.003  -1.015  -1.002  -0.962  -0.936  -0.926  -0.760  -0.737
 -0.718  -0.673  -0.671  -0.654  -0.616  -0.587  -0.532  -0.511
 -0.480  -0.471  -0.452  -0.435  -0.424  -0.416  -0.415  -0.404
 -0.399  -0.383  -0.381  -0.378  -0.367  -0.362  -0.353  -0.342
 -0.335  -0.329  -0.309  -0.296  -0.292  -0.288  -0.287  -0.275
 -0.264  -0.253  -0.245  -0.223  -0.179  -0.168  -0.153  -0.141
 -0.135
 -- Virtual --
  0.096   0.117   0.237   0.257   0.273   0.288   0.306   0.325
  0.343   0.344   0.360   0.369   0.384   0.391   0.403   0.411
  0.415   0.420   0.425   0.428   0.431   0.433   0.439   0.440
  0.448   0.459   0.464   0.471   0.481   0.481   0.489   0.493
  0.509   0.516   0.549   0.557   0.651   0.659
 --------------------------------------------------------------
 
          Ground-State Mulliken Net Atomic Charges

     Atom                 Charge (a.u.)
  ----------------------------------------
      1 C                    -0.080581
      2 C                    -0.081501
      3 C                     0.213888
      4 C                     0.215877
      5 O                    -0.169575
      6 O                    -0.213837
      7 O                    -0.178932
      8 O                    -0.212266
      9 C                    -0.127849
     10 C                    -0.127464
     11 C                     0.105613
     12 C                    -0.145754
     13 C                    -0.145031
     14 C                     0.105236
     15 O                    -0.198305
     16 H                     0.085285
     17 H                     0.082626
     18 H                     0.086196
     19 H                     0.089790
     20 H                     0.074278
     21 H                     0.070624
     22 H                     0.073797
     23 H                     0.069413
     24 H                     0.086018
     25 H                     0.092394
     26 H                     0.088658
     27 H                     0.090133
     28 C                    -0.227531
     29 H                     0.077696
     30 H                     0.078366
     31 H                     0.100128
     32 C                    -0.226973
     33 H                     0.083236
     34 H                     0.083513
     35 H                     0.082834
  ----------------------------------------
  Sum of atomic charges =    -0.000000

 -----------------------------------------------------------------
                    Cartesian Multipole Moments
 -----------------------------------------------------------------
    Charge (ESU x 10^10)
                 0.0000
    Dipole Moment (Debye)
         X      -0.4943      Y       1.1889      Z       2.1078
       Tot       2.4700
    Quadrupole Moments (Debye-Ang)
        XX     -84.1902     XY      -1.0719     YY     -89.3079
        XZ       1.8522     YZ      -3.6354     ZZ     -96.4296
    Octopole Moments (Debye-Ang^2)
       XXX     -46.1980    XXY      -1.2333    XYY     -18.5925
       YYY       0.7667    XXZ      -2.9305    XYZ       4.3661
       YYZ      -0.6732    XZZ      -4.3048    YZZ       1.1210
       ZZZ      -7.7859
    Hexadecapole Moments (Debye-Ang^3)
      XXXX   -2177.1590   XXXY     -18.3276   XXYY    -617.2869
      XYYY      -7.9955   YYYY   -1793.6106   XXXZ     -33.9202
      XXYZ      -9.6714   XYYZ      -6.8448   YYYZ     -37.4111
      XXZZ    -465.7125   XYZZ      -9.2105   YYZZ    -378.7572
      XZZZ     -10.2316   YZZZ      -5.0377   ZZZZ    -410.2969
 -----------------------------------------------------------------
 Calculating analytic gradient of the SCF energy
 Gradient of SCF Energy
            1           2           3           4           5           6
    1   0.0010478  -0.0025303  -0.0045650  -0.0064077   0.0007896   0.0012055
    2  -0.0013083   0.0023698   0.0011584   0.0037034  -0.0010174  -0.0000229
    3  -0.0033098  -0.0003841   0.0034023   0.0042094  -0.0018932  -0.0021113
            7           8           9          10          11          12
    1   0.0024853   0.0009112   0.0038018   0.0036406  -0.0030111  -0.0021516
    2  -0.0015188  -0.0021267   0.0016556  -0.0024717  -0.0005098   0.0003100
    3  -0.0028416  -0.0006987  -0.0000129   0.0011120   0.0027560  -0.0013357
           13          14          15          16          17          18
    1  -0.0012402  -0.0037485   0.0033012   0.0005633   0.0021268   0.0000887
    2  -0.0012769  -0.0013780   0.0011508  -0.0000853  -0.0000243  -0.0002963
    3  -0.0005129   0.0003301   0.0002233   0.0005269  -0.0000095   0.0001959
           19          20          21          22          23          24
    1  -0.0003428   0.0004107   0.0009465   0.0002793   0.0014460  -0.0000359
    2  -0.0000945  -0.0002405   0.0006505   0.0004666  -0.0001778   0.0002613
    3   0.0000922   0.0000044   0.0004168  -0.0000003   0.0003019   0.0001728
           25          26          27          28          29          30
    1  -0.0003658   0.0001294   0.0000759  -0.0015393   0.0002953  -0.0001215
    2  -0.0000860   0.0002629   0.0000982   0.0000701   0.0003563  -0.0000002
    3  -0.0001430  -0.0002016   0.0003058   0.0022250  -0.0004392  -0.0000382
           31          32          33          34          35
    1   0.0015563   0.0000479   0.0001682   0.0004625   0.0002801
    2   0.0009398  -0.0008971  -0.0001792   0.0001587   0.0000992
    3  -0.0018038   0.0007893  -0.0006211  -0.0008616   0.0001545
 Max gradient component =       6.408E-03
 RMS gradient           =       1.651E-03
 Gradient time:  CPU 25.70 s  wall 1.20 s
 Geometry Optimization Parameters
   NAtoms,    NIC,     NZ,  NCons,   NDum,   NFix, NCnnct, MaxDiis
       35     275       0       2       0       0       0       0

 Cartesian Hessian Update
 Hessian Updated using BFGS Update


** CONSTRAINED OPTIMIZATION IN DELOCALIZED INTERNAL COORDINATES **
   Searching for a Minimum

   Optimization Cycle:   3

                       Coordinates (Angstroms)
     ATOM                X               Y               Z
      1  C         0.0800595334    0.6780186755    0.7389487398
      2  C         0.5001379035   -0.8403400857    0.7006723505
      3  C        -1.2435764335    0.9489147261   -0.0434613406
      4  C        -0.6029106561   -1.7639288154    0.0685500500
      5  O        -1.8825377489    2.0838673363    0.5342563784
      6  O        -1.6698038706    0.3325263331   -1.0469240785
      7  O        -1.7375746345   -1.7047456524    0.9362568115
      8  O        -0.5356413691   -2.5069105554   -0.9343980719
      9  C        -2.8283824866   -2.5263939462    0.3797247070
     10  C        -3.1159918929    2.3944329227   -0.2148403402
     11  C         1.3264564314    1.3641941651    0.0152233617
     12  C         2.5488439017    1.2952051392    1.0201800417
     13  C         2.9602282644   -0.2171689326    0.9114822614
     14  C         1.8741487531   -0.7724809408   -0.1045744021
     15  O         1.6924782207    0.3765423693   -1.0267023202
     16  H        -0.0339118274    1.0545054818    1.7707926128
     17  H         0.6938168150   -1.2113343877    1.7240258168
     18  H        -2.5501369346   -3.5996170201    0.3284003077
     19  H        -3.8232728983    1.5395847326   -0.2139899823
     20  H         3.3606529034    1.9528979824    0.6699579004
     21  H         2.2743094491    1.5989193588    2.0433254858
     22  H         3.9653547289   -0.3178965271    0.4712703757
     23  H         2.9536011677   -0.7426586261    1.8801984912
     24  H        -3.6859228375   -2.4017846248    1.0670426477
     25  H        -3.1167171350   -2.1880796012   -0.6370312221
     26  H        -2.8967908506    2.6686319401   -1.2676798689
     27  H        -3.5782805793    3.2562224918    0.3016027114
     28  C         2.3135519368   -2.0342484643   -0.8899696783
     29  H         3.3350557534   -1.8895953044   -1.2754047950
     30  H         2.3017281072   -2.9172525922   -0.2336267708
     31  H         1.6340882242   -2.2104050638   -1.7373836981
     32  C         1.0731129903    2.7530780143   -0.6260083454
     33  H         2.0027241845    3.1241625471   -1.0843664044
     34  H         0.3050871692    2.6812033721   -1.4116582382
     35  H         0.7386090910    3.4711464852    0.1383507360
   Point Group: c1    Number of degrees of freedom:    99


   Energy is   -833.447075077

              Constraints and their Current Values
                                        Value     Constraint
   Dihedral:        2   1   3   5      152.286      152.300
   Dihedral:        1   2   4   7      -64.591      -64.600
 Hessian Updated using BFGS Update

   Using Lagrange Multiplier Algorithm


 88 Hessian modes will be used to form the next step
  Hessian Eigenvalues:
    -0.977668   -0.976805    0.042922    0.045000    0.045003    0.045110
     0.045253    0.045493    0.048471    0.059817    0.060745    0.067874
     0.070105    0.071452    0.071712    0.074668    0.076090    0.078286
     0.080622    0.080880    0.081736    0.082993    0.083420    0.083643
     0.083818    0.085150    0.090057    0.091379    0.091910    0.106355
     0.108580    0.113532    0.113897    0.116209    0.116911    0.116997
     0.127279    0.131564    0.139917    0.144625    0.158681    0.160564
     0.161801    0.171167    0.185970    0.241797    0.246249    0.249135
     0.249960    0.250059    0.250768    0.260558    0.268014    0.272507
     0.283819    0.289861    0.305532    0.306993    0.308809    0.315348
     0.327018    0.337074    0.338834    0.340327    0.341071    0.341277
     0.341386    0.341685    0.342532    0.342644    0.342845    0.342861
     0.343253    0.343591    0.343694    0.343699    0.343759    0.343916
     0.344095    0.376058    0.396275    0.412110    0.478259    0.513600
     0.952305    0.985494    1.022949    1.029845

 Minimum Search - Taking P-RFO Step
 Searching for Lamda that Maximizes Along the Constraint modes Only
 Value Taken    Lamda =   0.00001875
 Searching for Lamda that Minimizes Along All other modes
 Value Taken    Lamda =  -0.00128696
 Step Taken.  Stepsize is  0.129471

                             Maximum     Tolerance    Cnvgd?
         Gradient            0.007639       0.000300      NO
         Displacement        0.039752       0.001200      NO
         Energy change     -0.006988       0.000001      NO


 New Cartesian Coordinates Obtained by Inverse Iteration

 Displacement from previous Coordinates is:  0.322654
 Adding empirical dispersion correction 
 ----------------------------------------------------------------
 Doing -D3(op) with
 s6 =   1.00000
 s8 =   0.78311
 a1 =   0.30000
 a2 =   4.25000
 n  =  10.00000
 -D3 energy without 3body term =     -0.0411219946 hartrees
 ----------------------------------------------------------------
             Standard Nuclear Orientation (Angstroms)
    I     Atom           X                Y                Z
 ----------------------------------------------------------------
    1      C       0.0919013766     0.6782354435     0.7484960192
    2      C       0.5163540848    -0.8472009478     0.7134366698
    3      C      -1.2361627888     0.9490512958    -0.0335320128
    4      C      -0.5826334553    -1.7734026132     0.0676354381
    5      O      -1.8846147760     2.0903750569     0.5396152033
    6      O      -1.6811167882     0.3147589521    -1.0173064168
    7      O      -1.7346150382    -1.7167348238     0.9284475599
    8      O      -0.5165762458    -2.4960624059    -0.9493098611
    9      C      -2.8417247354    -2.5110327545     0.3476164123
   10      C      -3.1325948794     2.3979090736    -0.2010819540
   11      C       1.3351832950     1.3618084986     0.0086097151
   12      C       2.5644449063     1.3032681901     1.0097170758
   13      C       2.9801048129    -0.2072723845     0.9098144367
   14      C       1.8916142417    -0.7760739640    -0.0972732721
   15      O       1.6876468748     0.3633517680    -1.0299653315
   16      H      -0.0227402100     1.0621723408     1.7768247281
   17      H       0.6994213850    -1.2154646985     1.7390300460
   18      H      -2.5805963377    -3.5866603669     0.2707861911
   19      H      -3.8357565399     1.5401955184    -0.1889783261
   20      H       3.3697808766     1.9660707447     0.6544439939
   21      H       2.2837819376     1.6085343411     2.0302635211
   22      H       3.9841901693    -0.3136999056     0.4689569748
   23      H       2.9673991121    -0.7262437017     1.8814394173
   24      H      -3.7018943655    -2.3884387042     1.0316971464
   25      H      -3.1138344237    -2.1436796284    -0.6633291336
   26      H      -2.9246430869     2.6635135657    -1.2580433818
   27      H      -3.5922241336     3.2618661219     0.3136819920
   28      C       2.3218060605    -2.0509077301    -0.8717954136
   29      H       3.3364220287    -1.9175157392    -1.2768426769
   30      H       2.3194249842    -2.9206149582    -0.1975362590
   31      H       1.6156251547    -2.2438954716    -1.6927313121
   32      C       1.0613789979     2.7480579239    -0.6347214514
   33      H       1.9807414072     3.1296640071    -1.1037523804
   34      H       0.2798465621     2.6623063478    -1.4048362642
   35      H       0.7272529098     3.4629745418     0.1327651372
 ----------------------------------------------------------------
 Molecular Point Group                 C1    NOp =  1
 Largest Abelian Subgroup              C1    NOp =  1
 Nuclear Repulsion Energy =  1371.5397100343 hartrees
 There are       65 alpha and       65 beta electrons
 Applying Cartesian multipole field
    Component          Value
    ---------          -----
     (2,0,0)        1.00000E-11
     (0,2,0)        2.00000E-11
     (0,0,2)       -3.00000E-11
 Nucleus-field energy     =     0.0000000386 hartrees
 Requested basis set is STO-3G
 There are 52 shells and 103 basis functions
 A cutoff of  1.0D-12 yielded   1202 shell pairs
 There are      5183 function pairs
 Smallest overlap matrix eigenvalue = 2.13E-01
 Guess MOs from SCF MO coefficient file
 Reading MOs from coefficient file
 Reading MOs from coefficient file
 A restricted hybrid HF-DFT SCF calculation will be
 performed using Pulay DIIS extrapolation
 Exchange:     0.2000 Hartree-Fock + 0.0800 Slater + 0.7200 B88
 Correlation:  0.1900 VWN1RPA + 0.8100 LYP
 Using SG-1 standard quadrature grid
 Dispersion:   Grimme D3
 SCF converges when DIIS error is below 1.0E-08
 Geometry optimization detected.  Setting ReadMinima to 0
 Setting SaveMinima to 0
 -------------------------------------------------------
 OpenMP Integral computing Module                
 Release: version 1.0, May 2013, Q-Chem Inc. Pittsburgh 
 -------------------------------------------------------
 -------------------------------------------------------
 OpenMP BLAS3 based DFT computing Module                
 Release: version 1.0, May 2013, Q-Chem Inc. Pittsburgh 
 -------------------------------------------------------
 ---------------------------------------
  Cycle       Energy         DIIS Error
 ---------------------------------------
    1    -833.4313305270      1.54E-03
    2    -833.4475646953      3.32E-04
    3    -833.4469381671      7.33E-04
    4    -833.4477407076      6.08E-05
    5    -833.4477463768      1.87E-05
    6    -833.4477467272      1.15E-05
    7    -833.4477469020      4.62E-06
    8    -833.4477469345      9.38E-07
    9    -833.4477469360      1.21E-07
   10    -833.4477469360      3.00E-08
   11    -833.4477469360      1.15E-08
   12    -833.4477469361      4.00E-09 Convergence criterion met
 ---------------------------------------
 SCF time:  CPU 116.96 s  wall 5.81 s
 SCF   energy in the final basis set = -833.4477469361
 Total energy in the final basis set = -833.4477469361
 
 --------------------------------------------------------------
 
                    Orbital Energies (a.u.)
 --------------------------------------------------------------
 
 Alpha MOs
 -- Occupied --
-18.935 -18.919 -18.873 -18.873 -18.866 -10.097 -10.091 -10.065
-10.061 -10.057 -10.055 -10.032 -10.030 -10.015 -10.013 -10.011
-10.003  -1.011  -0.998  -0.961  -0.934  -0.925  -0.759  -0.736
 -0.718  -0.673  -0.670  -0.652  -0.616  -0.588  -0.531  -0.511
 -0.479  -0.470  -0.451  -0.434  -0.423  -0.415  -0.413  -0.402
 -0.398  -0.384  -0.381  -0.378  -0.367  -0.362  -0.352  -0.342
 -0.335  -0.329  -0.310  -0.296  -0.293  -0.289  -0.286  -0.274
 -0.263  -0.252  -0.244  -0.223  -0.177  -0.166  -0.152  -0.141
 -0.136
 -- Virtual --
  0.096   0.117   0.233   0.252   0.269   0.287   0.304   0.323
  0.341   0.342   0.357   0.368   0.382   0.390   0.401   0.409
  0.414   0.420   0.424   0.428   0.431   0.432   0.439   0.440
  0.449   0.457   0.463   0.471   0.480   0.481   0.487   0.495
  0.507   0.514   0.547   0.556   0.649   0.658
 --------------------------------------------------------------
 
          Ground-State Mulliken Net Atomic Charges

     Atom                 Charge (a.u.)
  ----------------------------------------
      1 C                    -0.080147
      2 C                    -0.081050
      3 C                     0.212255
      4 C                     0.214834
      5 O                    -0.169612
      6 O                    -0.213339
      7 O                    -0.178186
      8 O                    -0.211003
      9 C                    -0.129286
     10 C                    -0.128659
     11 C                     0.105436
     12 C                    -0.145823
     13 C                    -0.145265
     14 C                     0.105043
     15 O                    -0.197520
     16 H                     0.085339
     17 H                     0.082618
     18 H                     0.085851
     19 H                     0.089710
     20 H                     0.074575
     21 H                     0.071114
     22 H                     0.074379
     23 H                     0.070050
     24 H                     0.086115
     25 H                     0.092384
     26 H                     0.088394
     27 H                     0.090410
     28 C                    -0.228820
     29 H                     0.077822
     30 H                     0.077743
     31 H                     0.101585
     32 C                    -0.227216
     33 H                     0.083320
     34 H                     0.083811
     35 H                     0.083139
  ----------------------------------------
  Sum of atomic charges =    -0.000000

 -----------------------------------------------------------------
                    Cartesian Multipole Moments
 -----------------------------------------------------------------
    Charge (ESU x 10^10)
                 0.0000
    Dipole Moment (Debye)
         X      -0.4470      Y       1.2051      Z       2.0841
       Tot       2.4486
    Quadrupole Moments (Debye-Ang)
        XX     -84.0975     XY      -1.0933     YY     -89.3039
        XZ       1.9847     YZ      -3.5759     ZZ     -96.4108
    Octopole Moments (Debye-Ang^2)
       XXX     -47.4798    XXY      -0.8195    XYY     -18.9008
       YYY       0.9642    XXZ      -3.1527    XYZ       4.0634
       YYZ      -1.0870    XZZ      -4.7783    YZZ       1.4646
       ZZZ      -7.9126
    Hexadecapole Moments (Debye-Ang^3)
      XXXX   -2190.4538   XXXY     -15.8994   XXYY    -619.1473
      XYYY      -4.3621   YYYY   -1793.8517   XXXZ     -36.0567
      XXYZ     -10.4045   XYYZ      -6.7914   YYYZ     -38.7412
      XXZZ    -467.9312   XYZZ      -8.2357   YYZZ    -378.8076
      XZZZ     -11.3806   YZZZ      -8.1464   ZZZZ    -407.1398
 -----------------------------------------------------------------
 Calculating analytic gradient of the SCF energy
 Gradient of SCF Energy
            1           2           3           4           5           6
    1   0.0009521  -0.0004001   0.0012616   0.0008327   0.0002187  -0.0001695
    2   0.0000599  -0.0003559   0.0000134   0.0009224  -0.0003963  -0.0006125
    3   0.0003494   0.0011534   0.0011826   0.0009807  -0.0001882  -0.0012059
            7           8           9          10          11          12
    1   0.0001335   0.0003721  -0.0015078  -0.0014185  -0.0013197  -0.0003696
    2   0.0004805  -0.0012325  -0.0003771   0.0011916   0.0005641  -0.0000036
    3  -0.0004444  -0.0007564   0.0005415   0.0003000   0.0013533   0.0006146
           13          14          15          16          17          18
    1   0.0002388  -0.0012673   0.0012860  -0.0000965   0.0011465  -0.0000216
    2  -0.0003948  -0.0011160   0.0006596   0.0001471   0.0002802  -0.0000568
    3   0.0005389   0.0001443  -0.0014981  -0.0002413  -0.0003015  -0.0001710
           19          20          21          22          23          24
    1  -0.0000622   0.0000838   0.0003341   0.0000547   0.0005506  -0.0003670
    2  -0.0000084  -0.0000440   0.0002945   0.0002306  -0.0000897  -0.0001239
    3  -0.0002243  -0.0002456   0.0000744  -0.0002837  -0.0000090  -0.0000655
           25          26          27          28          29          30
    1   0.0000487  -0.0001332  -0.0004243  -0.0004571   0.0003048  -0.0005353
    2  -0.0002440  -0.0000933   0.0001673  -0.0007614  -0.0000769  -0.0001022
    3  -0.0001604  -0.0001285  -0.0001298  -0.0003205   0.0004028  -0.0002170
           31          32          33          34          35
    1   0.0007159  -0.0002155   0.0001090   0.0000157   0.0001060
    2   0.0006913   0.0006403  -0.0001763  -0.0001970   0.0001199
    3  -0.0006725  -0.0004186   0.0000589  -0.0000114  -0.0000013
 Max gradient component =       1.508E-03
 RMS gradient           =       6.003E-04
 Gradient time:  CPU 24.03 s  wall 1.20 s
 Geometry Optimization Parameters
   NAtoms,    NIC,     NZ,  NCons,   NDum,   NFix, NCnnct, MaxDiis
       35     275       0       2       0       0       0       0

 Cartesian Hessian Update
 Hessian Updated using BFGS Update


** CONSTRAINED OPTIMIZATION IN DELOCALIZED INTERNAL COORDINATES **
   Searching for a Minimum

   Optimization Cycle:   4

                       Coordinates (Angstroms)
     ATOM                X               Y               Z
      1  C         0.0919013766    0.6782354435    0.7484960192
      2  C         0.5163540848   -0.8472009478    0.7134366698
      3  C        -1.2361627888    0.9490512958   -0.0335320128
      4  C        -0.5826334553   -1.7734026132    0.0676354381
      5  O        -1.8846147760    2.0903750569    0.5396152033
      6  O        -1.6811167882    0.3147589521   -1.0173064168
      7  O        -1.7346150382   -1.7167348238    0.9284475599
      8  O        -0.5165762458   -2.4960624059   -0.9493098611
      9  C        -2.8417247354   -2.5110327545    0.3476164123
     10  C        -3.1325948794    2.3979090736   -0.2010819540
     11  C         1.3351832950    1.3618084986    0.0086097151
     12  C         2.5644449063    1.3032681901    1.0097170758
     13  C         2.9801048129   -0.2072723845    0.9098144367
     14  C         1.8916142417   -0.7760739640   -0.0972732721
     15  O         1.6876468748    0.3633517680   -1.0299653315
     16  H        -0.0227402100    1.0621723408    1.7768247281
     17  H         0.6994213850   -1.2154646985    1.7390300460
     18  H        -2.5805963377   -3.5866603669    0.2707861911
     19  H        -3.8357565399    1.5401955184   -0.1889783261
     20  H         3.3697808766    1.9660707447    0.6544439939
     21  H         2.2837819376    1.6085343411    2.0302635211
     22  H         3.9841901693   -0.3136999056    0.4689569748
     23  H         2.9673991121   -0.7262437017    1.8814394173
     24  H        -3.7018943655   -2.3884387042    1.0316971464
     25  H        -3.1138344237   -2.1436796284   -0.6633291336
     26  H        -2.9246430869    2.6635135657   -1.2580433818
     27  H        -3.5922241336    3.2618661219    0.3136819920
     28  C         2.3218060605   -2.0509077301   -0.8717954136
     29  H         3.3364220287   -1.9175157392   -1.2768426769
     30  H         2.3194249842   -2.9206149582   -0.1975362590
     31  H         1.6156251547   -2.2438954716   -1.6927313121
     32  C         1.0613789979    2.7480579239   -0.6347214514
     33  H         1.9807414072    3.1296640071   -1.1037523804
     34  H         0.2798465621    2.6623063478   -1.4048362642
     35  H         0.7272529098    3.4629745418    0.1327651372
   Point Group: c1    Number of degrees of freedom:    99


   Energy is   -833.447746936

              Constraints and their Current Values
                                        Value     Constraint
   Dihedral:        2   1   3   5      152.300      152.300
   Dihedral:        1   2   4   7      -64.600      -64.600
 Hessian Updated using BFGS Update

   Using Lagrange Multiplier Algorithm


 91 Hessian modes will be used to form the next step
  Hessian Eigenvalues:
    -0.977724   -0.975615    0.030127    0.045000    0.045003    0.045008
     0.045229    0.045389    0.046219    0.048247    0.058119    0.060818
     0.067637    0.070154    0.071407    0.071706    0.072847    0.075904
     0.078285    0.080742    0.080865    0.081742    0.082950    0.083419
     0.083641    0.083894    0.085093    0.090081    0.091522    0.091935
     0.106354    0.107868    0.113878    0.114451    0.116773    0.116942
     0.117000    0.127699    0.131391    0.140336    0.144649    0.158627
     0.160312    0.161161    0.161900    0.169217    0.186093    0.241811
     0.243553    0.249043    0.250000    0.250010    0.250058    0.250847
     0.260517    0.268014    0.282606    0.289654    0.293820    0.305598
     0.307022    0.308820    0.319729    0.327200    0.337489    0.339238
     0.341065    0.341103    0.341382    0.341604    0.342517    0.342636
     0.342825    0.342861    0.343176    0.343546    0.343647    0.343691
     0.343755    0.343869    0.344089    0.346644    0.377793    0.412106
     0.448662    0.512488    0.529290    0.952285    0.981578    1.022872
     1.033136

 Minimum Search - Taking P-RFO Step
 Searching for Lamda that Maximizes Along the Constraint modes Only
 Value Taken    Lamda =   0.00000055
 Searching for Lamda that Minimizes Along All other modes
 Value Taken    Lamda =  -0.00030726
 Step Taken.  Stepsize is  0.083703

                             Maximum     Tolerance    Cnvgd?
         Gradient            0.003153       0.000300      NO
         Displacement        0.024929       0.001200      NO
         Energy change     -0.000672       0.000001      NO


 New Cartesian Coordinates Obtained by Inverse Iteration

 Displacement from previous Coordinates is:  0.235427
 Adding empirical dispersion correction 
 ----------------------------------------------------------------
 Doing -D3(op) with
 s6 =   1.00000
 s8 =   0.78311
 a1 =   0.30000
 a2 =   4.25000
 n  =  10.00000
 -D3 energy without 3body term =     -0.0412023165 hartrees
 ----------------------------------------------------------------
             Standard Nuclear Orientation (Angstroms)
    I     Atom           X                Y                Z
 ----------------------------------------------------------------
    1      C       0.0938703079     0.6744900139     0.7514267469
    2      C       0.5210245836    -0.8512076618     0.7170684452
    3      C      -1.2372609546     0.9460539081    -0.0246179647
    4      C      -0.5777598595    -1.7752404073     0.0673290787
    5      O      -1.8795966946     2.0886471039     0.5541844235
    6      O      -1.6948102383     0.3098087857    -1.0006086887
    7      O      -1.7313093735    -1.7169901036     0.9277720167
    8      O      -0.5178011723    -2.4858315700    -0.9576049087
    9      C      -2.8396027936    -2.4912811061     0.3239758416
   10      C      -3.1273884142     2.3909569856    -0.1873448405
   11      C       1.3339629333     1.3566869662     0.0011960367
   12      C       2.5663370085     1.3084285560     0.9990463706
   13      C       2.9850236726    -0.2001145502     0.9075176369
   14      C       1.8971913808    -0.7783172202    -0.0935782271
   15      O       1.6792018409     0.3520249309    -1.0330664440
   16      H      -0.0188963938     1.0603034622     1.7794672659
   17      H       0.6969944516    -1.2185255267     1.7444918257
   18      H      -2.5868241622    -3.5673389559     0.2276669410
   19      H      -3.8289855788     1.5319882294    -0.1711041295
   20      H       3.3683619522     1.9739812272     0.6420742955
   21      H       2.2812721828     1.6155169160     2.0177109809
   22      H       3.9895811211    -0.3101414724     0.4693059702
   23      H       2.9679808614    -0.7131288353     1.8821651855
   24      H      -3.7015532656    -2.3741067639     1.0062439323
   25      H      -3.1020087246    -2.0999420128    -0.6805922728
   26      H      -2.9200678662     2.6543358321    -1.2449517720
   27      H      -3.5853267042     3.2556046623     0.3270659472
   28      C       2.3279834198    -2.0599449681    -0.8560308428
   29      H       3.3360512708    -1.9278616962    -1.2767067016
   30      H       2.3403132198    -2.9181355231    -0.1670244676
   31      H       1.6076120769    -2.2731715868    -1.6595720841
   32      C       1.0493837252     2.7401634726    -0.6430162820
   33      H       1.9623630601     3.1286713382    -1.1185618017
   34      H       0.2615477617     2.6502633102    -1.4060989165
   35      H       0.7157287388     3.4525671933     0.1270136339
 ----------------------------------------------------------------
 Molecular Point Group                 C1    NOp =  1
 Largest Abelian Subgroup              C1    NOp =  1
 Nuclear Repulsion Energy =  1372.6678809518 hartrees
 There are       65 alpha and       65 beta electrons
 Applying Cartesian multipole field
    Component          Value
    ---------          -----
     (2,0,0)        1.00000E-11
     (0,2,0)        2.00000E-11
     (0,0,2)       -3.00000E-11
 Nucleus-field energy     =     0.0000000385 hartrees
 Requested basis set is STO-3G
 There are 52 shells and 103 basis functions
 A cutoff of  1.0D-12 yielded   1202 shell pairs
 There are      5183 function pairs
 Smallest overlap matrix eigenvalue = 2.13E-01
 Guess MOs from SCF MO coefficient file
 Reading MOs from coefficient file
 Reading MOs from coefficient file
 A restricted hybrid HF-DFT SCF calculation will be
 performed using Pulay DIIS extrapolation
 Exchange:     0.2000 Hartree-Fock + 0.0800 Slater + 0.7200 B88
 Correlation:  0.1900 VWN1RPA + 0.8100 LYP
 Using SG-1 standard quadrature grid
 Dispersion:   Grimme D3
 SCF converges when DIIS error is below 1.0E-08
 Geometry optimization detected.  Setting ReadMinima to 0
 Setting SaveMinima to 0
 -------------------------------------------------------
 OpenMP Integral computing Module                
 Release: version 1.0, May 2013, Q-Chem Inc. Pittsburgh 
 -------------------------------------------------------
 -------------------------------------------------------
 OpenMP BLAS3 based DFT computing Module                
 Release: version 1.0, May 2013, Q-Chem Inc. Pittsburgh 
 -------------------------------------------------------
 ---------------------------------------
  Cycle       Energy         DIIS Error
 ---------------------------------------
    1    -833.4472972395      8.26E-04
    2    -833.4479315948      8.42E-05
    3    -833.4479131780      1.52E-04
    4    -833.4479454624      3.39E-05
    5    -833.4479470680      1.11E-05
    6    -833.4479472492      4.13E-06
    7    -833.4479472741      1.40E-06
    8    -833.4479472768      4.80E-07
    9    -833.4479472772      7.12E-08
   10    -833.4479472772      2.81E-08
   11    -833.4479472772      7.23E-09 Convergence criterion met
 ---------------------------------------
 SCF time:  CPU 101.74 s  wall 5.20 s
 SCF   energy in the final basis set = -833.4479472772
 Total energy in the final basis set = -833.4479472772
 
 --------------------------------------------------------------
 
                    Orbital Energies (a.u.)
 --------------------------------------------------------------
 
 Alpha MOs
 -- Occupied --
-18.935 -18.919 -18.874 -18.874 -18.867 -10.097 -10.091 -10.065
-10.061 -10.057 -10.055 -10.032 -10.029 -10.015 -10.014 -10.011
-10.003  -1.012  -0.999  -0.962  -0.935  -0.926  -0.759  -0.736
 -0.718  -0.674  -0.670  -0.652  -0.616  -0.588  -0.530  -0.511
 -0.479  -0.470  -0.451  -0.435  -0.423  -0.415  -0.414  -0.402
 -0.399  -0.384  -0.381  -0.378  -0.367  -0.362  -0.352  -0.342
 -0.334  -0.329  -0.310  -0.297  -0.293  -0.289  -0.286  -0.274
 -0.263  -0.252  -0.245  -0.223  -0.178  -0.166  -0.153  -0.142
 -0.136
 -- Virtual --
  0.096   0.117   0.234   0.253   0.270   0.288   0.304   0.323
  0.340   0.341   0.356   0.369   0.382   0.390   0.401   0.409
  0.414   0.420   0.424   0.428   0.432   0.433   0.439   0.440
  0.449   0.457   0.463   0.471   0.480   0.481   0.487   0.496
  0.506   0.514   0.547   0.556   0.650   0.658
 --------------------------------------------------------------
 
          Ground-State Mulliken Net Atomic Charges

     Atom                 Charge (a.u.)
  ----------------------------------------
      1 C                    -0.080272
      2 C                    -0.081081
      3 C                     0.212323
      4 C                     0.215094
      5 O                    -0.169435
      6 O                    -0.213554
      7 O                    -0.177874
      8 O                    -0.210730
      9 C                    -0.129513
     10 C                    -0.128799
     11 C                     0.105601
     12 C                    -0.145866
     13 C                    -0.145418
     14 C                     0.105229
     15 O                    -0.197427
     16 H                     0.085126
     17 H                     0.082303
     18 H                     0.085919
     19 H                     0.089770
     20 H                     0.074754
     21 H                     0.071327
     22 H                     0.074672
     23 H                     0.070322
     24 H                     0.085807
     25 H                     0.092656
     26 H                     0.088349
     27 H                     0.090168
     28 C                    -0.229531
     29 H                     0.077951
     30 H                     0.077308
     31 H                     0.101988
     32 C                    -0.227332
     33 H                     0.083268
     34 H                     0.083685
     35 H                     0.083217
[...]
 C          0.000  0.000 -0.000    0.000  0.000 -0.000   -0.001  0.000 -0.001
 C         -0.000 -0.000  0.000    0.015  0.034  0.021    0.019  0.040  0.020
 C         -0.001  0.001 -0.001   -0.031  0.022 -0.030    0.012 -0.014  0.020
 C          0.000  0.000 -0.000    0.000  0.000  0.000   -0.001 -0.001 -0.001
 O         -0.000  0.000  0.000   -0.000 -0.000 -0.000    0.000 -0.000 -0.000
 H          0.001 -0.002 -0.004   -0.007  0.023  0.063    0.003 -0.010 -0.027
 H         -0.002  0.006 -0.019   -0.039  0.080 -0.276    0.079 -0.164  0.563
 H         -0.102  0.383  0.011    0.006 -0.023 -0.001   -0.005  0.021  0.001
 H          0.285  0.381  0.051    0.002  0.002  0.000    0.001  0.001  0.000
 H          0.002  0.001 -0.001   -0.309 -0.250  0.160   -0.373 -0.301  0.192
 H         -0.000  0.000  0.000    0.139 -0.146 -0.409    0.147 -0.153 -0.427
 H          0.015 -0.001 -0.006    0.405 -0.031 -0.154   -0.164  0.011  0.066
 H         -0.002 -0.008  0.017   -0.047 -0.228  0.500    0.027  0.141 -0.304
 H          0.210 -0.046 -0.190   -0.013  0.003  0.012    0.011 -0.002 -0.010
 H          0.101 -0.129  0.354   -0.006  0.008 -0.022    0.006 -0.007  0.019
 H         -0.106 -0.212  0.450   -0.000 -0.001  0.002   -0.000 -0.000  0.001
 H          0.140 -0.228 -0.213    0.001 -0.001 -0.001    0.000 -0.000 -0.000
 C          0.001 -0.001  0.000   -0.004  0.005  0.000    0.000 -0.000  0.000
 H         -0.009 -0.002  0.003    0.068  0.018 -0.027   -0.005 -0.002  0.002
 H         -0.001  0.009 -0.008    0.006 -0.063  0.052   -0.000  0.006 -0.005
 H          0.003  0.001  0.004   -0.021 -0.010 -0.028    0.001  0.001  0.002
 C         -0.000  0.000  0.000   -0.001  0.004 -0.002   -0.001  0.003 -0.001
 H         -0.001 -0.000  0.000   -0.038 -0.015  0.020   -0.026 -0.011  0.014
 H          0.002  0.001  0.002    0.033  0.007  0.035    0.028  0.005  0.029
 H          0.002 -0.003 -0.003    0.018 -0.035 -0.033    0.014 -0.027 -0.025
 TransDip  -0.224 -0.008 -0.046   -0.063  0.165 -0.005    0.093  0.113  0.054

 Mode:                88                     89                     90
 Frequency:      3067.93                3090.49                3098.74
 Force Cnst:      5.9479                 6.2287                 6.2351
 Red. Mass:       1.0726                 1.1069                 1.1021
 IR Active:          YES                    YES                    YES
 IR Intens:       28.005                  0.391                 13.100
 Raman Active:       YES                    YES                    YES
               X      Y      Z        X      Y      Z        X      Y      Z
 C         -0.001  0.004  0.010   -0.001  0.003  0.007   -0.001  0.002  0.006
 C         -0.007  0.017 -0.056    0.001 -0.003  0.009    0.000 -0.000  0.001
 C          0.000 -0.000  0.000   -0.000  0.000  0.000   -0.000  0.000  0.000
 C          0.000 -0.000 -0.002   -0.000  0.000  0.000    0.000 -0.000 -0.000
 O         -0.000  0.000 -0.000    0.000 -0.000 -0.000   -0.000 -0.000 -0.000
 O         -0.000 -0.000 -0.000    0.000 -0.000  0.000    0.000 -0.000 -0.000
 O         -0.000 -0.000  0.000    0.000 -0.000 -0.000   -0.000  0.000  0.000
 O         -0.000  0.000  0.000    0.000 -0.000 -0.000   -0.000  0.000  0.000
 C         -0.000 -0.001 -0.000    0.000  0.000 -0.000   -0.000  0.000  0.000
 C          0.000 -0.000  0.000   -0.000 -0.000  0.000    0.000  0.000 -0.000
 C          0.001 -0.001  0.000    0.001  0.000 -0.001    0.000  0.000 -0.000
 C         -0.007 -0.018 -0.011    0.043  0.011 -0.053    0.017  0.004 -0.020
 C         -0.034  0.017 -0.017   -0.041 -0.011  0.044    0.001  0.001 -0.003
 C         -0.000  0.001  0.000   -0.000 -0.000  0.000   -0.001 -0.001  0.001
 O          0.000 -0.000  0.000   -0.000  0.000  0.000   -0.000  0.000 -0.000
 H          0.013 -0.045 -0.122    0.007 -0.031 -0.081    0.007 -0.025 -0.067
 H          0.095 -0.197  0.680   -0.015  0.034 -0.115   -0.001  0.004 -0.013
 H         -0.002  0.010  0.000    0.000 -0.001 -0.000    0.001 -0.003 -0.000
 H         -0.004 -0.005 -0.001    0.000  0.000  0.000   -0.001 -0.001 -0.000
 H          0.155  0.125 -0.080   -0.364 -0.303  0.173   -0.143 -0.120  0.068
 H         -0.072  0.077  0.210   -0.145  0.176  0.459   -0.055  0.067  0.173
 H          0.419 -0.034 -0.155    0.463 -0.042 -0.159   -0.013  0.003  0.006
 H         -0.034 -0.164  0.358    0.021  0.170 -0.370   -0.001 -0.013  0.023
 H          0.005 -0.001 -0.005   -0.001  0.000  0.001    0.000 -0.000 -0.000
 H          0.003 -0.002  0.007   -0.000  0.000 -0.000    0.000 -0.000  0.000
 H          0.002  0.003 -0.007    0.000  0.000 -0.001    0.000  0.000 -0.000
 H         -0.002  0.003  0.003   -0.000  0.000  0.000   -0.000  0.000  0.000
 C         -0.003  0.004  0.000    0.009  0.012 -0.011   -0.043 -0.054  0.055
 H          0.050  0.012 -0.020   -0.123 -0.031  0.044    0.613  0.148 -0.223
 H          0.005 -0.050  0.041    0.015 -0.115  0.096   -0.067  0.518 -0.431
 H         -0.019 -0.009 -0.025   -0.001  0.001 -0.009   -0.025 -0.021 -0.004
 C          0.000 -0.001  0.000   -0.006  0.000  0.002   -0.003  0.000  0.001
 H          0.009  0.003 -0.005    0.044  0.017 -0.021    0.023  0.009 -0.011
 H         -0.008 -0.001 -0.009    0.012  0.003  0.016    0.005  0.001  0.007
 H         -0.004  0.008  0.007    0.010 -0.023 -0.021    0.006 -0.013 -0.012
 TransDip  -0.113  0.057 -0.113    0.007  0.012 -0.014   -0.073 -0.061  0.065

 Mode:                91                     92                     93
 Frequency:      3108.46                3110.51                3117.09
 Force Cnst:      6.2807                 6.2743                 6.3112
 Red. Mass:       1.1032                 1.1007                 1.1025
 IR Active:          YES                    YES                    YES
 IR Intens:       14.750                 28.733                 20.042
 Raman Active:       YES                    YES                    YES
               X      Y      Z        X      Y      Z        X      Y      Z
 C          0.003 -0.010 -0.026    0.003 -0.009 -0.024   -0.001  0.004  0.010
 C          0.000 -0.000  0.002   -0.000  0.001 -0.001    0.000 -0.001  0.002
 C          0.000 -0.001 -0.001    0.001 -0.000 -0.000   -0.000  0.000  0.000
 C          0.000  0.000  0.000    0.000  0.000  0.000   -0.000  0.000  0.000
 O         -0.000  0.000  0.000   -0.000 -0.000  0.000    0.000 -0.000 -0.000
 O          0.000  0.000  0.000    0.000  0.000 -0.000   -0.000 -0.000  0.000
 O         -0.000 -0.000  0.000   -0.000 -0.000  0.000    0.000 -0.000 -0.000
 O         -0.000 -0.000 -0.000   -0.000 -0.000 -0.000    0.000 -0.000 -0.000
 C         -0.000  0.000 -0.000    0.000 -0.000  0.000    0.000 -0.001  0.000
 C          0.000  0.001 -0.001   -0.000 -0.001  0.001   -0.001 -0.002  0.002
 C         -0.000 -0.000 -0.000   -0.001  0.000  0.002   -0.002 -0.001 -0.000
 C         -0.027 -0.008  0.032   -0.015 -0.005  0.017   -0.009 -0.002  0.011
 C         -0.041 -0.011  0.045   -0.017 -0.004  0.018   -0.006 -0.002  0.007
 C         -0.001 -0.001  0.001   -0.000 -0.000  0.001   -0.000 -0.000  0.000
 O          0.000  0.000 -0.000    0.000 -0.000 -0.000    0.000  0.000 -0.000
 H         -0.032  0.115  0.310   -0.028  0.104  0.277    0.012 -0.043 -0.114
 H         -0.001  0.005 -0.020    0.003 -0.005  0.014   -0.003  0.008 -0.026
 H          0.001 -0.004 -0.000   -0.000  0.001  0.000   -0.001  0.005  0.000
 H         -0.003 -0.004 -0.001    0.004  0.006  0.001    0.012  0.016  0.003
 H          0.243  0.205 -0.117    0.134  0.112 -0.063    0.080  0.065 -0.036
 H          0.085 -0.105 -0.264    0.044 -0.054 -0.139    0.030 -0.037 -0.095
 H          0.468 -0.044 -0.160    0.192 -0.019 -0.066    0.071 -0.007 -0.024
 H          0.022  0.178 -0.381    0.009  0.072 -0.154    0.004  0.030 -0.062
 H         -0.000 -0.000 -0.000   -0.000  0.000  0.000   -0.001  0.000  0.001
 H          0.000 -0.000  0.000   -0.001  0.001 -0.002   -0.001  0.002 -0.005
 H         -0.002 -0.004  0.009    0.002  0.003 -0.006    0.005  0.010 -0.022
 H          0.001 -0.001 -0.001   -0.000 -0.000 -0.000    0.001 -0.002 -0.001
 C         -0.009 -0.010  0.012   -0.003 -0.004  0.004   -0.001 -0.001  0.001
 H          0.129  0.030 -0.048    0.051  0.012 -0.019    0.014  0.003 -0.005
 H         -0.013  0.099 -0.082   -0.005  0.037 -0.031   -0.001  0.011 -0.009
 H         -0.011 -0.007 -0.011   -0.005 -0.003 -0.005   -0.002 -0.001 -0.002
 C          0.032 -0.008 -0.028   -0.044  0.023  0.064   -0.072 -0.036 -0.040
 H         -0.288 -0.121  0.144    0.467  0.201 -0.231    0.411  0.167 -0.228
 H          0.007 -0.002 -0.007   -0.151 -0.027 -0.130    0.550  0.119  0.567
 H         -0.102  0.218  0.200    0.214 -0.448 -0.412   -0.093  0.154  0.145
 TransDip  -0.084 -0.063  0.065   -0.126 -0.025  0.114   -0.134 -0.051  0.002

 Mode:                94                     95                     96
 Frequency:      3118.43                3122.26                3123.40
 Force Cnst:      6.2436                 6.3581                 6.3635
 Red. Mass:       1.0897                 1.1070                 1.1071
 IR Active:          YES                    YES                    YES
 IR Intens:       26.065                 20.563                 13.741
 Raman Active:       YES                    YES                    YES
               X      Y      Z        X      Y      Z        X      Y      Z
 C          0.007 -0.025 -0.068    0.000  0.000 -0.000   -0.000  0.000  0.000
 C         -0.002  0.004 -0.011   -0.000  0.000 -0.000    0.000 -0.000  0.000
 C          0.001 -0.001 -0.001   -0.000 -0.000  0.000    0.000  0.000  0.000
 C          0.000  0.000 -0.000    0.000  0.000 -0.000   -0.000 -0.000 -0.000
 O         -0.000  0.000  0.000   -0.000 -0.000  0.000   -0.000 -0.000  0.000
 O          0.000  0.000  0.001   -0.000 -0.000  0.000   -0.000 -0.000 -0.000
 O         -0.000 -0.000  0.000   -0.000 -0.000  0.000   -0.000  0.000 -0.000
 O         -0.000  0.000  0.000   -0.000 -0.000  0.000    0.000  0.000 -0.000
 C          0.000 -0.001  0.001   -0.004  0.009 -0.005    0.032 -0.075  0.047
 C         -0.001 -0.000  0.000    0.048  0.067 -0.046    0.006  0.008 -0.006
 C          0.000 -0.001 -0.001   -0.000 -0.000  0.000    0.000  0.000 -0.000
 C          0.018  0.002 -0.026    0.000 -0.000 -0.000   -0.000  0.000  0.000
 C          0.014  0.005 -0.018    0.000  0.000 -0.000   -0.000 -0.000  0.000
 C         -0.000  0.001 -0.001    0.000  0.000 -0.000    0.000 -0.000  0.000
 O         -0.000  0.000  0.001    0.000 -0.000  0.000   -0.000  0.000 -0.000
 H         -0.086  0.300  0.807   -0.001  0.002  0.004    0.001 -0.002 -0.006
 H          0.019 -0.041  0.132    0.000 -0.001  0.002   -0.000  0.001 -0.001
 H         -0.002  0.006  0.000    0.022 -0.083 -0.004   -0.184  0.681  0.036
 H          0.007  0.009  0.001   -0.413 -0.563 -0.094   -0.049 -0.066 -0.011
 H         -0.140 -0.117  0.067   -0.000 -0.000  0.000    0.000  0.000 -0.000
 H         -0.078  0.094  0.244   -0.000  0.000  0.001    0.000 -0.000 -0.001
 H         -0.162  0.016  0.055   -0.002  0.000  0.001    0.001 -0.000 -0.000
 H         -0.009 -0.074  0.158   -0.000 -0.001  0.002    0.000  0.001 -0.002
 H          0.001 -0.000 -0.001    0.005  0.000 -0.006   -0.025 -0.008  0.037
 H         -0.001  0.002 -0.006    0.020 -0.025  0.073   -0.170  0.215 -0.634
 H          0.001  0.000 -0.001   -0.139 -0.273  0.619   -0.017 -0.033  0.075
 H          0.002 -0.004 -0.004   -0.009  0.043  0.018   -0.002  0.007  0.004
 C          0.002  0.002 -0.002    0.000  0.000 -0.000   -0.000 -0.000  0.000
 H         -0.025 -0.006  0.010   -0.001 -0.000  0.001    0.001  0.000 -0.000
 H          0.003 -0.020  0.016    0.000 -0.001  0.001   -0.000  0.002 -0.002
 H          0.001  0.001  0.001    0.000  0.000 -0.000   -0.000 -0.000 -0.000
 C         -0.008 -0.011 -0.016   -0.003 -0.001 -0.001    0.000  0.000  0.000
 H          0.021  0.007 -0.014    0.021  0.008 -0.011   -0.003 -0.001  0.001
 H          0.121  0.025  0.123    0.018  0.004  0.019   -0.003 -0.001 -0.003
 H         -0.049  0.095  0.086   -0.000 -0.002 -0.002    0.000 -0.001 -0.001
 TransDip   0.046 -0.032 -0.154    0.067  0.105 -0.074    0.040 -0.100  0.051

 Mode:                97                     98                     99
 Frequency:      3152.49                3156.32                3164.97
 Force Cnst:      6.4790                 6.4925                 6.4711
 Red. Mass:       1.1065                 1.1061                 1.0964
 IR Active:          YES                    YES                    YES
 IR Intens:       14.049                 14.373                  2.092
 Raman Active:       YES                    YES                    YES
               X      Y      Z        X      Y      Z        X      Y      Z
 C         -0.000  0.000  0.000    0.000  0.000 -0.000    0.000 -0.000 -0.000
 C          0.000 -0.000 -0.000   -0.000  0.000 -0.000    0.000 -0.000 -0.000
 C         -0.000  0.000  0.000   -0.001 -0.000 -0.001    0.000 -0.000 -0.000
 C          0.000  0.001  0.001   -0.000  0.000 -0.000    0.000 -0.000 -0.000
 O          0.000 -0.000 -0.000   -0.000  0.000  0.000   -0.000  0.000 -0.000
 O         -0.000 -0.000 -0.000    0.000  0.000  0.000    0.000  0.000  0.000
 O          0.000 -0.000 -0.000    0.000 -0.000  0.000   -0.000  0.000  0.000
 O         -0.000 -0.000 -0.000    0.000 -0.000  0.000   -0.001 -0.000  0.000
 C         -0.053  0.025  0.075    0.000  0.000 -0.001    0.000 -0.000 -0.000
 C         -0.000 -0.001 -0.000    0.019 -0.062 -0.069    0.000 -0.000 -0.000
 C          0.000  0.000  0.000   -0.000 -0.000  0.000    0.000 -0.000 -0.000
 C         -0.000  0.000  0.000    0.000 -0.000 -0.000   -0.000  0.000 -0.000
 C         -0.000 -0.000  0.000   -0.000  0.000 -0.000   -0.001  0.000  0.001
 C          0.000  0.000  0.000   -0.000  0.000 -0.000   -0.001  0.000 -0.001
 O         -0.000 -0.000 -0.000    0.000  0.000  0.000    0.000 -0.000  0.000
 H          0.000 -0.001 -0.002    0.000  0.000  0.002   -0.000  0.001  0.002
 H         -0.000 -0.000 -0.001    0.000 -0.000  0.000   -0.000 -0.001  0.003
 H          0.067 -0.278  0.007    0.000 -0.001 -0.000   -0.000  0.002 -0.000
 H          0.003  0.004  0.001    0.200  0.258  0.023    0.000  0.000  0.000
 H         -0.000 -0.000  0.000    0.000  0.000 -0.000    0.000  0.000 -0.000
 H          0.000 -0.000 -0.001   -0.000  0.000  0.001   -0.000  0.000  0.002
 H          0.000 -0.000 -0.000    0.000 -0.000 -0.000    0.012  0.000 -0.003
 H          0.000  0.000 -0.000   -0.000 -0.000  0.000    0.000  0.002 -0.005
 H          0.650 -0.140 -0.589   -0.003  0.001  0.003   -0.003  0.001  0.002
 H         -0.099  0.124 -0.308    0.001 -0.001  0.003    0.000 -0.000  0.001
 H          0.000  0.000 -0.001   -0.059 -0.129  0.239   -0.000 -0.000  0.000
 H         -0.002  0.003  0.003   -0.367  0.600  0.559   -0.000  0.001  0.001
 C         -0.000  0.000 -0.000    0.000  0.000  0.000   -0.062 -0.015 -0.063
 H         -0.000 -0.000  0.000    0.000  0.000 -0.000    0.199  0.053 -0.086
 H          0.000 -0.001  0.001   -0.000  0.000 -0.000    0.004 -0.150  0.114
 H          0.003  0.001  0.003   -0.001 -0.000 -0.001    0.558  0.276  0.720
 C         -0.000  0.000  0.000   -0.000 -0.000 -0.000   -0.000 -0.000 -0.000
 H         -0.000 -0.000  0.000    0.001  0.001 -0.001    0.000  0.000 -0.000
 H         -0.000  0.000 -0.000    0.001  0.000  0.002    0.001  0.000  0.001
 H          0.000 -0.000 -0.000   -0.000  0.001  0.001   -0.000  0.001  0.000
 TransDip  -0.083  0.020  0.084    0.045 -0.084 -0.076   -0.022 -0.005 -0.040

 STANDARD THERMODYNAMIC QUANTITIES AT   298.15 K  AND     1.00 ATM

   This Molecule has  0 Imaginary Frequencies
   Zero point vibrational energy:      183.652 kcal/mol

   Atom    1 Element C  Has Mass   12.00000
   Atom    2 Element C  Has Mass   12.00000
   Atom    3 Element C  Has Mass   12.00000
   Atom    4 Element C  Has Mass   12.00000
   Atom    5 Element O  Has Mass   15.99491
   Atom    6 Element O  Has Mass   15.99491
   Atom    7 Element O  Has Mass   15.99491
   Atom    8 Element O  Has Mass   15.99491
   Atom    9 Element C  Has Mass   12.00000
   Atom   10 Element C  Has Mass   12.00000
   Atom   11 Element C  Has Mass   12.00000
   Atom   12 Element C  Has Mass   12.00000
   Atom   13 Element C  Has Mass   12.00000
   Atom   14 Element C  Has Mass   12.00000
   Atom   15 Element O  Has Mass   15.99491
   Atom   16 Element H  Has Mass    1.00783
   Atom   17 Element H  Has Mass    1.00783
   Atom   18 Element H  Has Mass    1.00783
   Atom   19 Element H  Has Mass    1.00783
   Atom   20 Element H  Has Mass    1.00783
   Atom   21 Element H  Has Mass    1.00783
   Atom   22 Element H  Has Mass    1.00783
   Atom   23 Element H  Has Mass    1.00783
   Atom   24 Element H  Has Mass    1.00783
   Atom   25 Element H  Has Mass    1.00783
   Atom   26 Element H  Has Mass    1.00783
   Atom   27 Element H  Has Mass    1.00783
   Atom   28 Element C  Has Mass   12.00000
   Atom   29 Element H  Has Mass    1.00783
   Atom   30 Element H  Has Mass    1.00783
   Atom   31 Element H  Has Mass    1.00783
   Atom   32 Element C  Has Mass   12.00000
   Atom   33 Element H  Has Mass    1.00783
   Atom   34 Element H  Has Mass    1.00783
   Atom   35 Element H  Has Mass    1.00783
   Molecular Mass:   242.115490 amu
   Principal axes and moments of inertia in amu*Bohr^2:
                             1           2           3
    Eigenvalues --     2977.74833  3617.57044  5614.86111
          X               0.99992    -0.01137     0.00567
          Y               0.01139     0.99992    -0.00484
          Z              -0.00561     0.00491     0.99997
   Rotational Symmetry Number is   1
   The Molecule is an Asymmetric Top
   Translational Enthalpy:        0.889 kcal/mol
   Rotational Enthalpy:           0.889 kcal/mol
   Vibrational Enthalpy:        192.707 kcal/mol
   gas constant (RT):             0.592 kcal/mol
   Translational Entropy:        42.354  cal/mol.K
   Rotational Entropy:           32.469  cal/mol.K
   Vibrational Entropy:          58.082  cal/mol.K

   Total Enthalpy:              195.077 kcal/mol
   Total Entropy:               132.905  cal/mol.K
Archival summary:
1\1\nid04269\FREQ\ProcedureUnspecified\BasisUnspecified\51218\junteng\WedOct422:36:202017WedOct422:36:202017\0\\#,FREQ,ProcedureUnspecified,BasisUnspecified,\\0,1\O\C,1,1.43131\C,1,1.44204,2,99.1064\C,2,1.51289,1,110.84,3,179.449,0\H,4,1.09143,2,110.825,1,57.048,0\H,4,1.09186,2,109.654,1,-62.4438,0\H,4,1.0929,2,110.563,1,177.85,0\C,3,1.51337,1,110.78,2,-176.247,0\H,8,1.08665,3,111.15,1,-55.4558,0\H,8,1.09261,3,109.197,1,65.5799,0\H,8,1.09346,3,110.308,1,-175.397,0\C,2,1.54953,1,102.577,3,55.2151,0\H,12,1.09171,2,112.556,1,-155.71,0\H,12,1.09191,2,109.564,1,84.2569,0\C,12,1.54966,2,101.43,1,-33.601,0\H,15,1.09119,12,111.24,2,117.399,0\H,15,1.09195,12,113.697,2,-120.69,0\C,3,1.56367,1,102.093,2,55.815,0\H,18,1.09297,3,110.08,1,-148.238,0\C,18,1.52255,3,117.863,1,92.0348,0\O,20,1.20179,18,128.222,3,2.66666,0\O,20,1.35681,18,108.568,3,179.627,0\C,22,1.43911,20,115.754,18,174.638,0\H,23,1.08807,22,105.481,20,-179.247,0\H,23,1.09098,22,110.728,20,61.1291,0\H,23,1.09116,22,109.852,20,-59.8708,0\C,18,1.56728,3,101.721,1,-33.2998,0\H,27,1.0884,18,111.624,3,-117.165,0\C,27,1.51184,18,115.463,3,119.718,0\O,29,1.2057,27,126.484,18,-39.0689,0\O,29,1.35296,27,110.204,18,143.808,0\C,31,1.43946,29,115.905,27,176.725,0\H,32,1.08777,31,105.479,29,177.799,0\H,32,1.09088,31,110.447,29,58.1931,0\H,32,1.09127,31,110.479,29,-62.6597,0\\\@

 Total job time:  14063.35s(wall), 84544.12s(cpu) 
 Wed Oct  4 22:36:20 2017

        *************************************************************
        *                                                           *
        *  Thank you very much for using Q-Chem.  Have a nice day.  *
        *                                                           *
        *************************************************************


