nid04484 10.128.17
Q-Chem Developer Version! Running on 10.128.17.*
                  Welcome to Q-Chem
     A Quantum Leap Into The Future Of Chemistry


 Q-Chem 5.0, Q-Chem, Inc., Pleasanton, CA (2017)

 Yihan Shao,  Zhengting Gan,  E. Epifanovsky,  A. T. B. Gilbert,  M. Wormit,  
 J. Kussmann,  A. W. Lange,  A. Behn,  Jia Deng,  Xintian Feng,  D. Ghosh,  
 M. Goldey,  P. R. Horn,  L. D. Jacobson,  I. Kaliman,  T. Kus,  A. Landau,  
 Jie Liu,  E. I. Proynov,  R. M. Richard,  R. P. Steele,  E. J. Sundstrom,  
 H. L. Woodcock III,  P. M. Zimmerman,  D. Zuev,  B. Albrecht,  E. Alguire,  
 S. A. Baeppler,  Z. Benda,  Y. A. Bernard,  E. J. Berquist,  K. B. Bravaya,  
 D. Casanova,  Chun-Min Chang,  Yunqing Chen,  A. Chien,  K. D. Closser,  
 M. P. Coons,  S. Dasgupta,  M. Diedenhofen,  Hainam Do,  R. G. Edgar,  
 Po-Tung Fang,  S. Fatehi,  Qingguo Feng,  Qinghui Ge,  A. Ghysels,  
 J. Gomes,  J. Gonthier,  A. Gunina,  M. W. D. Hanson-Heine,  
 P. H. P. Harbach,  A. W. Hauser,  J. E. Herr,  E. G. Hohenstein,  
 Z. C. Holden,  Kerwin Hui,  T.-C. Jagau,  Hyunjun Ji,  B. Kaduk,  
 K. Khistyaev,  Jaehoon Kim,  P. Klunzinger,  K. Koh,  D. Kosenkov,  
 T. Kowalczyk,  C. M. Krauter,  A. Kunitsa,  Ka Un Lao,  A. Laurent,  
 K. V. Lawler,  Joonho Lee,  D. Lefrancois,  S. Lehtola,  D. S. Levine,  
 Yi-Pei Li,  You-Sheng Lin,  Fenglai Liu,  E. Livshits,  A. Luenser,  
 P. Manohar,  E. Mansoor,  S. F. Manzer,  Shan-Ping Mao,  Yuezhi Mao,  
 N. Mardirossian,  A. V. Marenich,  L. A. Martinez-Martinez,  S. A. Maurer,  
 N. J. Mayhall,  S. C. McKenzie,  J.-M. Mewes,  A. F. Morrison,  K. Nanda,  
 T. S. Nguyen-Beck,  R. Olivares-Amaya,  J. A. Parkhill,  T. M. Perrine,  
 F. Plasser,  S. Prager,  A. Prociuk,  D. R. Rehn,  F. Rob,  M. Schneider,  
 N. Sergueev,  S. M. Sharada,  S. Sharma,  D. W. Small,  T. Stauch,  
 T. Stein,  Yu-Chuan Su,  A. J. W. Thom,  T. Tsuchimochi,  L. Vogt,  
 O. Vydrov,  M. A. Watson,  J. Wenzel,  M. de Wergifosse,  T. A. Wesolowski,  
 A. White,  J. Witte,  A. Yamada,  Jun Yang,  K. Yao,  S. Yeganeh,  
 S. R. Yost,  Zhi-Qiang You,  A. Zech,  Igor Ying Zhang,  Xing Zhang,  
 Yan Zhao,  Ying Zhu,  B. R. Brooks,  G. K. L. Chan,  C. J. Cramer,  
 M. S. Gordon,  W. J. Hehre,  A. Klamt,  M. W. Schmidt,  C. D. Sherrill,  
 D. G. Truhlar,  A. Aspuru-Guzik,  R. Baer,  A. T. Bell,  N. A. Besley,  
 Jeng-Da Chai,  A. Dreuw,  B. D. Dunietz,  T. R. Furlani,  Chao-Ping Hsu,  
 Yousung Jung,  Jing Kong,  D. S. Lambrecht,  WanZhen Liang,  C. Ochsenfeld,  
 V. A. Rassolov,  L. V. Slipchenko,  J. E. Subotnik,  T. Van Voorhis,  
 J. M. Herbert,  A. I. Krylov,  P. M. W. Gill,  M. Head-Gordon

 Contributors to earlier versions of Q-Chem not listed above: 
 R. D. Adamson,  B. Austin,  J. Baker,  G. J. O. Beran,  K. Brandhorst,  
 S. T. Brown,  E. F. C. Byrd,  A. K. Chakraborty,  C.-L. Cheng,  
 Siu Hung Chien,  D. M. Chipman,  D. L. Crittenden,  H. Dachsel,  
 R. A. DiStasio Jr.,  R. J. Doerksen,  A. D. Dutoi,  L. Fusti-Molnar,  
 W. A. Goddard III,  A. Golubeva-Zadorozhnaya,  S. R. Gwaltney,  G. Hawkins,  
 A. Heyden,  S. Hirata,  G. Kedziora,  F. J. Keil,  C. Kelley,  Jihan Kim,  
 R. A. King,  R. Z. Khaliullin,  P. P. Korambath,  W. Kurlancheek,  
 A. M. Lee,  M. S. Lee,  S. V. Levchenko,  Ching Yeh Lin,  D. Liotard,  
 R. C. Lochan,  I. Lotan,  P. E. Maslen,  N. Nair,  D. P. O'Neill,  
 D. Neuhauser,  E. Neuscamman,  C. M. Oana,  R. Olson,  B. Peters,  
 R. Peverati,  P. A. Pieniazek,  Y. M. Rhee,  J. Ritchie,  M. A. Rohrdanz,  
 E. Rosta,  N. J. Russ,  H. F. Schaefer III,  N. E. Schultz,  N. Shenvi,  
 A. C. Simmonett,  A. Sodt,  D. Stuck,  K. S. Thanthiriwatte,  V. Vanovschi,  
 Tao Wang,  A. Warshel,  C. F. Williams,  Q. Wu,  X. Xu,  W. Zhang

 Please cite Q-Chem as follows:
 Y. Shao et al., Mol. Phys. 113, 184-215 (2015)
 DOI: 10.1080/00268976.2014.952696

 Q-Chem 5.0.0 for Intel X86 EM64T Linux

 Parts of Q-Chem use Armadillo 5.200.1 (Boston Tea Smuggler).
 http://arma.sourceforge.net/

 Q-Chem begins on Wed Oct  4 17:37:16 2017  

Host: nid04484
0

     Scratch files written to /global/cscratch1/sd/junteng/scratch/14/opt_1101++.save//

Checking the input file for inconsistencies... 	...done.

--------------------------------------------------------------
User input:
--------------------------------------------------------------
$molecule
0  1
C    0.711  -1.958   0.589
C   -0.299  -1.995   1.756
C    1.089  -0.603   0.022
C   -0.528  -0.668   2.454
O    2.255  -0.726  -0.682
O    0.458   0.435   0.138
O    0.672  -0.221   2.944
O   -1.603  -0.140   2.687
C    0.580   1.027   3.634
C    2.698   0.490  -1.286
C   -0.031  -2.720  -0.508
C   -0.144  -4.202  -0.153
C   -1.210  -4.188   0.944
C   -1.515  -2.680   1.086
O   -1.391  -2.278  -0.299
H    1.639  -2.461   0.888
H    0.068  -2.659   2.552
H   -0.050   0.928   4.523
H    1.951   0.864  -1.993
H   -0.511  -4.776  -1.011
H    0.804  -4.638   0.173
H   -2.087  -4.746   0.595
H   -0.869  -4.649   1.876
H    1.587   1.311   3.953
H    0.196   1.807   2.969
H    3.619   0.278  -1.837
H    2.918   1.240  -0.519
H    0.300  -2.531  -1.532
C   -2.908  -2.427   1.624
H   -3.642  -3.061   1.114
H   -2.968  -2.632   2.696
H   -3.235  -1.402   1.426
$end


$opt
CONSTRAINT
tors    2    1    3    5    167.3
tors    1    2    4    7    -55.0
ENDCONSTRAINT
$end

$rem
JOBTYPE                   OPT
METHOD                    B3LYP
DFT_D                     D3_OP
BASIS                     STO-3G
GEOM_OPT_MAX_CYCLES       500
SYMMETRY                  False
THRESH                    12
SCF_CONVERGENCE           8
MAX_SUB_FILE_NUM          128
MEM_STATIC                400
MEM_TOTAL                 4000
$end

--------------------------------------------------------------
 Adding empirical dispersion correction 
 ----------------------------------------------------------------
 Doing -D3(op) with
 s6 =   1.00000
 s8 =   0.78311
 a1 =   0.30000
 a2 =   4.25000
 n  =  10.00000
 -D3 energy without 3body term =     -0.0354339443 hartrees
 ----------------------------------------------------------------
             Standard Nuclear Orientation (Angstroms)
    I     Atom           X                Y                Z
 ----------------------------------------------------------------
    1      C      -0.1011848019     0.8054220658     0.6072204492
    2      C       0.6620154878    -0.5364971559     0.5955533906
    3      C      -1.4015644380     0.8875516009    -0.1690949129
    4      C      -0.1410572282    -1.7318799813     0.1194146361
    5      O      -2.1190916287     1.9620046977     0.2792423188
    6      O      -1.7586593461     0.1451011244    -1.0692679610
    7      O      -1.2361871469    -1.8724092621     0.9323420513
    8      O       0.1839039632    -2.5367797787    -0.7380435496
    9      C      -2.0705618232    -2.9788079980     0.5833882767
   10      C      -3.3601324547     2.1543130106    -0.4008725103
   11      C       0.8921947687     1.7507805700    -0.0666573788
   12      C       2.1006898551     1.9956119456     0.8359583888
   13      C       2.8581814059     0.6714609442     0.7228580976
   14      C       1.9353848860    -0.1568246325    -0.1989024928
   15      O       1.4677351984     0.8937269451    -1.0780214566
   16      H      -0.3158357451     1.0989107000     1.6422969653
   17      H       0.9675145382    -0.8059543627     1.6169564177
   18      H      -1.5277085504    -3.9211288805     0.7032368423
   19      H      -3.1925366947     2.3218430413    -1.4693196780
   20      H       2.7207990583     2.8058706669     0.4368664437
   21      H       1.8242280680     2.2474343817     1.8632024401
   22      H       3.8327460722     0.8578355890     0.2561866896
   23      H       3.0366664167     0.1979666648     1.6931015044
   24      H      -2.9267737949    -2.9833521908     1.2640838105
   25      H      -2.4439876414    -2.8714877839    -0.4398988433
   26      H      -3.8403685125     3.0440784321     0.0168317195
   27      H      -4.0212059080     1.2961810682    -0.2403095674
   28      H       0.4702491978     2.6594561976    -0.5026946926
   29      C       2.6945415386    -1.2278384490    -0.9542253256
   30      H       3.6222933193    -0.8229488311    -1.3739312116
   31      H       2.9531506788    -2.0694657777    -0.3064647586
   32      H       2.1281180017    -1.5881402477    -1.8179990175
 ----------------------------------------------------------------
 Molecular Point Group                 C1    NOp =  1
 Largest Abelian Subgroup              C1    NOp =  1
 Nuclear Repulsion Energy =  1248.6091517482 hartrees
 There are       61 alpha and       61 beta electrons
 Requested basis set is STO-3G
 There are 48 shells and 96 basis functions

 Total QAlloc Memory Limit   4000 MB
 Mega-Array Size       392 MB
 MEM_STATIC part       400 MB
 A cutoff of  1.0D-12 yielded   1028 shell pairs
 There are      4526 function pairs
 
 -------------------------------------------------------
 OpenMP Integral Computing Module                       
 Release: version 1.0, May 2013, Q-Chem Inc. Pittsburgh 
 -------------------------------------------------------
 Integral Job Info:
 Integral job number is                      11
 Integral operator is                         1
 short-range coefficients                     0
 long-range coefficients              100000000
 Omega coefficients                           0
 if combine SR and LR in K                    0
 Integral screening is                        0
 Integral computing path is                   2
 max size of driver memory is            800000
 size of driver memory is                 45569
 size of scratch memory is               945100
 max col of scratch BK array                289
 max len of scratch array in speh3           22
 max len of scratch index in speh4            8
 max int batch size is                      520
 min int batch size is                       52
 fixed nKL is                                52
 max L of basis functions is                  1
 order of int derivative is                   0
 number of shells is                         48
 number of basis is                          96
 number of cartesian basis is                96
 number of contracted shell pairs          1028
 number of primitive shell pairs           5665
 maxK2 (contraction) of shell pair            9
 max number of K2 of shell pair               1
 max number of CS2 of shell pair            150
 max number of PS2 of shell pair            666
 mem total for path MDJ                   31466
 -------------------------------------------------------
 Smallest overlap matrix eigenvalue = 1.94E-01

 Scale SEOQF with 1.000000e-01/1.000000e-01/1.000000e-01

 Standard Electronic Orientation quadrupole field applied
 Nucleus-field energy     =     0.0000000345 hartrees
 Guess from superposition of atomic densities
 Warning:  Energy on first SCF cycle will be non-variational
 A restricted hybrid HF-DFT SCF calculation will be
 performed using Pulay DIIS extrapolation
 Exchange:     0.2000 Hartree-Fock + 0.0800 Slater + 0.7200 B88
 Correlation:  0.1900 VWN1RPA + 0.8100 LYP
 Using SG-1 standard quadrature grid
 Dispersion:   Grimme D3
 SCF converges when DIIS error is below 1.0E-08
 -------------------------------------------------------
 OpenMP Integral computing Module                
 Release: version 1.0, May 2013, Q-Chem Inc. Pittsburgh 
 -------------------------------------------------------
 -------------------------------------------------------
 OpenMP BLAS3 based DFT computing Module                
 Release: version 1.0, May 2013, Q-Chem Inc. Pittsburgh 
 -------------------------------------------------------
 ---------------------------------------
  Cycle       Energy         DIIS Error
 ---------------------------------------
    1    -793.7951598601      1.10E-01
    2    -794.2843676763      1.34E-02
    3    -793.3333321269      3.22E-02
    4    -794.5216836078      4.73E-03
    5    -794.5484650511      1.51E-03
    6    -794.5513969032      2.61E-04
    7    -794.5514890854      3.74E-05
    8    -794.5514903283      2.22E-05
    9    -794.5514908913      7.66E-06
   10    -794.5514909686      1.53E-06
   11    -794.5514909718      3.16E-07
   12    -794.5514909719      9.25E-08
   13    -794.5514909719      1.78E-08
   14    -794.5514909720      6.56E-09 Convergence criterion met
 ---------------------------------------
 SCF time:  CPU 62.17 s  wall 2.63 s
 SCF   energy in the final basis set = -794.5514909720
 Total energy in the final basis set = -794.5514909720
 
 --------------------------------------------------------------
 
                    Orbital Energies (a.u.)
 --------------------------------------------------------------
 
 Alpha MOs
 -- Occupied --
-18.943 -18.932 -18.868 -18.867 -18.860 -10.109 -10.103 -10.074
-10.066 -10.062 -10.059 -10.033 -10.031 -10.012 -10.008 -10.003
 -1.043  -1.032  -0.988  -0.952  -0.944  -0.774  -0.743  -0.732
 -0.691  -0.670  -0.644  -0.600  -0.547  -0.535  -0.503  -0.481
 -0.469  -0.452  -0.439  -0.430  -0.426  -0.421  -0.414  -0.389
 -0.380  -0.373  -0.369  -0.361  -0.345  -0.338  -0.319  -0.311
 -0.307  -0.306  -0.290  -0.285  -0.273  -0.248  -0.240  -0.217
 -0.183  -0.173  -0.152  -0.141  -0.132
 -- Virtual --
  0.113   0.128   0.246   0.275   0.297   0.311   0.337   0.354
  0.375   0.382   0.400   0.402   0.409   0.414   0.433   0.434
  0.439   0.446   0.447   0.456   0.457   0.463   0.467   0.476
  0.483   0.487   0.501   0.503   0.508   0.531   0.544   0.578
  0.585   0.705   0.710
 --------------------------------------------------------------
 
          Ground-State Mulliken Net Atomic Charges

     Atom                 Charge (a.u.)
  ----------------------------------------
      1 C                    -0.083253
      2 C                    -0.085483
      3 C                     0.238543
      4 C                     0.240385
      5 O                    -0.189915
      6 O                    -0.229133
      7 O                    -0.193361
      8 O                    -0.227914
      9 C                    -0.126235
     10 C                    -0.125671
     11 C                     0.027112
     12 C                    -0.148912
     13 C                    -0.146349
     14 C                     0.112176
     15 O                    -0.212592
     16 H                     0.088932
     17 H                     0.086216
     18 H                     0.090756
     19 H                     0.094062
     20 H                     0.077409
     21 H                     0.072391
     22 H                     0.076456
     23 H                     0.069266
     24 H                     0.092224
     25 H                     0.097060
     26 H                     0.095371
     27 H                     0.092912
     28 H                     0.086999
     29 C                    -0.230002
     30 H                     0.079447
     31 H                     0.082736
     32 H                     0.098367
  ----------------------------------------
  Sum of atomic charges =    -0.000000

 -----------------------------------------------------------------
                    Cartesian Multipole Moments
 -----------------------------------------------------------------
    Charge (ESU x 10^10)
                 0.0000
    Dipole Moment (Debye)
         X      -0.9000      Y       1.0167      Z       2.2398
       Tot       2.6192
    Quadrupole Moments (Debye-Ang)
        XX     -78.1689     XY      -0.4924     YY     -83.5528
        XZ       1.8518     YZ      -3.7325     ZZ     -89.8619
    Octopole Moments (Debye-Ang^2)
       XXX     -39.6060    XXY       2.0281    XYY     -24.2189
       YYY      -4.1508    XXZ      -2.1840    XYZ       5.6095
       YYZ       2.6959    XZZ      -4.9119    YZZ      -1.2831
       ZZZ      -3.9507
    Hexadecapole Moments (Debye-Ang^3)
      XXXX   -1973.1049   XXXY     -37.3837   XXYY    -550.3213
      XYYY      13.0527   YYYY   -1542.9943   XXXZ     -20.5358
      XXYZ     -15.3485   XYYZ       3.7340   YYYZ     -48.0150
      XXZZ    -415.8538   XYZZ      -7.7171   YYZZ    -326.9796
      XZZZ      -2.4473   YZZZ       1.8990   ZZZZ    -354.7750
 -----------------------------------------------------------------
 Calculating analytic gradient of the SCF energy
 Gradient of SCF Energy
            1           2           3           4           5           6
    1   0.0105824  -0.0047585  -0.0132229  -0.0145618  -0.0080439   0.0193486
    2  -0.0094286   0.0006148   0.0177705  -0.0098726  -0.0439694   0.0387808
    3  -0.0409748  -0.0271339  -0.0065933   0.0069328  -0.0438092   0.0463905
            7           8           9          10          11          12
    1   0.0251284  -0.0101926   0.0105892   0.0172321  -0.0122285  -0.0111337
    2  -0.0315334   0.0398761   0.0145324  -0.0014748  -0.0114503  -0.0268783
    3  -0.0462533   0.0454110   0.0056542   0.0108542   0.0065478  -0.0228126
           13          14          15          16          17          18
    1  -0.0225272  -0.0132804   0.0045446   0.0009547   0.0009502  -0.0038117
    2   0.0054772  -0.0016595  -0.0046165  -0.0044751  -0.0029562   0.0135603
    3  -0.0246370   0.0052221   0.0629161  -0.0049379  -0.0071049   0.0038572
           19          20          21          22          23          24
    1   0.0029927   0.0007724   0.0019036  -0.0026177  -0.0008809   0.0067039
    2   0.0017931  -0.0059840  -0.0021286   0.0055801   0.0031867  -0.0023497
    3   0.0137962   0.0006951  -0.0064503   0.0039902  -0.0052610  -0.0078703
           25          26          27          28          29          30
    1   0.0031110   0.0020007   0.0092035   0.0069460  -0.0095853  -0.0048298
    2   0.0045157  -0.0084361   0.0092190  -0.0070614   0.0139670  -0.0048305
    3   0.0126380  -0.0059197   0.0042661   0.0054435   0.0229604  -0.0035494
           31          32
    1   0.0008812   0.0078296
    2   0.0043954   0.0058359
    3  -0.0032957  -0.0009721
 Max gradient component =       6.292E-02
 RMS gradient           =       1.745E-02
 Gradient time:  CPU 16.92 s  wall 0.72 s
 Geometry Optimization Parameters
   NAtoms,    NIC,     NZ,  NCons,   NDum,   NFix, NCnnct, MaxDiis
       32     251       0       2       0       0       0       0


** CONSTRAINED OPTIMIZATION IN DELOCALIZED INTERNAL COORDINATES **
   Searching for a Minimum

   Optimization Cycle:   1

                       Coordinates (Angstroms)
     ATOM                X               Y               Z
      1  C        -0.1011848019    0.8054220658    0.6072204492
      2  C         0.6620154878   -0.5364971559    0.5955533906
      3  C        -1.4015644380    0.8875516009   -0.1690949129
      4  C        -0.1410572282   -1.7318799813    0.1194146361
      5  O        -2.1190916287    1.9620046977    0.2792423188
      6  O        -1.7586593461    0.1451011244   -1.0692679610
      7  O        -1.2361871469   -1.8724092621    0.9323420513
      8  O         0.1839039632   -2.5367797787   -0.7380435496
      9  C        -2.0705618232   -2.9788079980    0.5833882767
     10  C        -3.3601324547    2.1543130106   -0.4008725103
     11  C         0.8921947687    1.7507805700   -0.0666573788
     12  C         2.1006898551    1.9956119456    0.8359583888
     13  C         2.8581814059    0.6714609442    0.7228580976
     14  C         1.9353848860   -0.1568246325   -0.1989024928
     15  O         1.4677351984    0.8937269451   -1.0780214566
     16  H        -0.3158357451    1.0989107000    1.6422969653
     17  H         0.9675145382   -0.8059543627    1.6169564177
     18  H        -1.5277085504   -3.9211288805    0.7032368423
     19  H        -3.1925366947    2.3218430413   -1.4693196780
     20  H         2.7207990583    2.8058706669    0.4368664437
     21  H         1.8242280680    2.2474343817    1.8632024401
     22  H         3.8327460722    0.8578355890    0.2561866896
     23  H         3.0366664167    0.1979666648    1.6931015044
     24  H        -2.9267737949   -2.9833521908    1.2640838105
     25  H        -2.4439876414   -2.8714877839   -0.4398988433
     26  H        -3.8403685125    3.0440784321    0.0168317195
     27  H        -4.0212059080    1.2961810682   -0.2403095674
     28  H         0.4702491978    2.6594561976   -0.5026946926
     29  C         2.6945415386   -1.2278384490   -0.9542253256
     30  H         3.6222933193   -0.8229488311   -1.3739312116
     31  H         2.9531506788   -2.0694657777   -0.3064647586
     32  H         2.1281180017   -1.5881402477   -1.8179990175
   Point Group: c1    Number of degrees of freedom:    90


   Energy is   -794.551490972

              Constraints and their Current Values
                                        Value     Constraint
   Dihedral:        2   1   3   5      161.506      167.300
   Dihedral:        1   2   4   7      -58.727      -55.000

 Attempting to Generate Delocalized Internal Coordinates

   Using Lagrange Multiplier Algorithm


 92 Hessian modes will be used to form the next step
  Hessian Eigenvalues:
    -0.977753   -0.977753    0.045000    0.045000    0.045000    0.045000
     0.045000    0.045010    0.045298    0.045515    0.048619    0.059359
     0.061550    0.067521    0.068252    0.070602    0.073231    0.073438
     0.076637    0.079785    0.081436    0.082111    0.083599    0.083601
     0.084460    0.085259    0.090062    0.091363    0.091986    0.097105
     0.108323    0.112588    0.113785    0.113804    0.116926    0.116971
     0.122385    0.127205    0.139525    0.143598    0.160000    0.160000
     0.160000    0.160000    0.160000    0.160000    0.160000    0.160000
     0.160000    0.167195    0.181257    0.244222    0.248535    0.249951
     0.250000    0.250000    0.250000    0.250000    0.252783    0.262190
     0.267687    0.287879    0.290216    0.306804    0.306860    0.308963
     0.329030    0.337223    0.340066    0.340731    0.341491    0.341652
     0.341740    0.342327    0.342899    0.343079    0.343239    0.343448
     0.343570    0.343585    0.343737    0.344460    0.344599    0.345095
     0.411320    0.412508    0.507662    0.514426    0.952633    0.953292
     1.022753    1.022753

 Minimum Search - Taking P-RFO Step
 Searching for Lamda that Maximizes Along the Constraint modes Only
 Value Taken    Lamda =   0.00670850
 Searching for Lamda that Minimizes Along All other modes
 Value Taken    Lamda =  -0.07273124
 Calculated Step too Large.  Step scaled by  0.698262
 Step Taken.  Stepsize is  0.300000

                             Maximum     Tolerance    Cnvgd?
         Gradient            0.101118       0.000300      NO
         Displacement        0.091089       0.001200      NO
         Energy change     *********       0.000001      NO


 New Cartesian Coordinates Obtained by Inverse Iteration

 Displacement from previous Coordinates is:  0.777884
 Adding empirical dispersion correction 
 ----------------------------------------------------------------
 Doing -D3(op) with
 s6 =   1.00000
 s8 =   0.78311
 a1 =   0.30000
 a2 =   4.25000
 n  =  10.00000
 -D3 energy without 3body term =     -0.0353166035 hartrees
 ----------------------------------------------------------------
             Standard Nuclear Orientation (Angstroms)
    I     Atom           X                Y                Z
 ----------------------------------------------------------------
    1      C      -0.0903475451     0.8173000980     0.6631116529
    2      C       0.6998952586    -0.5302591379     0.6172066735
    3      C      -1.4303488172     0.8426409787    -0.1157347445
    4      C      -0.1367980717    -1.7435835207     0.1253609368
    5      O      -2.1606342975     1.9672339581     0.2894172127
    6      O      -1.7887844692     0.0528192420    -1.0063095015
    7      O      -1.2642226243    -1.8497473742     0.9558494645
    8      O       0.1506361773    -2.5583434287    -0.7669808252
    9      C      -2.1381642276    -2.9494487801     0.5691410246
   10      C      -3.4188928034     2.1060567984    -0.4324099686
   11      C       0.9288711927     1.7777571507    -0.0538738855
   12      C       2.1608424329     2.0348767606     0.8710314817
   13      C       2.9273628010     0.6838517478     0.7415270629
   14      C       1.9820702707    -0.1438431677    -0.2123110773
   15      O       1.4971415104     0.9193482387    -1.1079547522
   16      H      -0.2942111088     1.1323400792     1.6997780729
   17      H       1.0199233161    -0.7972471239     1.6402665765
   18      H      -1.6308732615    -3.9267386396     0.6705291043
   19      H      -3.2551835822     2.2105856156    -1.5209475810
   20      H       2.7741450762     2.8568452104     0.4749642800
   21      H       1.8814618103     2.2843461087     1.9046831102
   22      H       3.9035531759     0.8544500110     0.2658343125
   23      H       3.1064881738     0.1957378523     1.7106134570
   24      H      -3.0037413352    -2.9297837974     1.2522311788
   25      H      -2.5042561756    -2.8300249509    -0.4672403399
   26      H      -3.9058028115     3.0229870782    -0.0603546844
   27      H      -4.0906722120     1.2482483232    -0.2429263568
   28      H       0.4884686030     2.6868934638    -0.4945624690
   29      C       2.7248695998    -1.2364443827    -0.9994474149
   30      H       3.6536102800    -0.8283712713    -1.4243886058
   31      H       2.9814350263    -2.0864962975    -0.3542001193
   32      H       2.1257153774    -1.5919525288    -1.8488661902
 ----------------------------------------------------------------
 Molecular Point Group                 C1    NOp =  1
 Largest Abelian Subgroup              C1    NOp =  1
 Nuclear Repulsion Energy =  1231.1474786842 hartrees
 There are       61 alpha and       61 beta electrons
 Applying Cartesian multipole field
    Component          Value
    ---------          -----
     (2,0,0)        1.00000E-11
     (0,2,0)        2.00000E-11
     (0,0,2)       -3.00000E-11
 Nucleus-field energy     =     0.0000000348 hartrees
 Requested basis set is STO-3G
 There are 48 shells and 96 basis functions
 A cutoff of  1.0D-12 yielded   1024 shell pairs
 There are      4516 function pairs
 Smallest overlap matrix eigenvalue = 2.07E-01
 Guess MOs from SCF MO coefficient file
 Reading MOs from coefficient file
 Reading MOs from coefficient file
 A restricted hybrid HF-DFT SCF calculation will be
 performed using Pulay DIIS extrapolation
 Exchange:     0.2000 Hartree-Fock + 0.0800 Slater + 0.7200 B88
 Correlation:  0.1900 VWN1RPA + 0.8100 LYP
 Using SG-1 standard quadrature grid
 Dispersion:   Grimme D3
 SCF converges when DIIS error is below 1.0E-08
 Geometry optimization detected.  Setting ReadMinima to 0
 Setting SaveMinima to 0
 -------------------------------------------------------
 OpenMP Integral computing Module                
 Release: version 1.0, May 2013, Q-Chem Inc. Pittsburgh 
 -------------------------------------------------------
 -------------------------------------------------------
 OpenMP BLAS3 based DFT computing Module                
 Release: version 1.0, May 2013, Q-Chem Inc. Pittsburgh 
 -------------------------------------------------------
 ---------------------------------------
  Cycle       Energy         DIIS Error
 ---------------------------------------
    1    -794.4248455763      5.35E-03
    2    -794.5775092428      1.83E-03
    3    -794.5719554075      2.80E-03
    4    -794.5815289285      6.04E-04
    5    -794.5820236724      1.02E-04
    6    -794.5820384411      2.18E-05
    7    -794.5820387184      1.82E-05
    8    -794.5820391404      4.24E-06
    9    -794.5820391669      6.77E-07
   10    -794.5820391675      2.94E-07
   11    -794.5820391676      5.11E-08
   12    -794.5820391676      1.85E-08
   13    -794.5820391676      3.30E-09 Convergence criterion met
 ---------------------------------------
 SCF time:  CPU 58.75 s  wall 2.48 s
 SCF   energy in the final basis set = -794.5820391676
 Total energy in the final basis set = -794.5820391676
 
 --------------------------------------------------------------
 
                    Orbital Energies (a.u.)
 --------------------------------------------------------------
 
 Alpha MOs
 -- Occupied --
-18.940 -18.927 -18.873 -18.870 -18.861 -10.102 -10.096 -10.070
-10.061 -10.061 -10.057 -10.035 -10.031 -10.015 -10.010 -10.006
 -1.024  -1.012  -0.971  -0.941  -0.932  -0.764  -0.731  -0.722
 -0.680  -0.661  -0.638  -0.594  -0.542  -0.529  -0.496  -0.474
 -0.457  -0.443  -0.431  -0.420  -0.416  -0.410  -0.406  -0.382
 -0.379  -0.367  -0.364  -0.350  -0.342  -0.336  -0.311  -0.307
 -0.305  -0.301  -0.289  -0.280  -0.269  -0.250  -0.242  -0.222
 -0.180  -0.168  -0.152  -0.140  -0.135
 -- Virtual --
  0.104   0.120   0.240   0.258   0.280   0.296   0.319   0.339
  0.359   0.360   0.372   0.383   0.394   0.398   0.414   0.424
  0.427   0.430   0.435   0.438   0.440   0.443   0.449   0.453
  0.457   0.472   0.483   0.486   0.492   0.516   0.521   0.556
  0.562   0.667   0.674
 --------------------------------------------------------------
 
          Ground-State Mulliken Net Atomic Charges

     Atom                 Charge (a.u.)
  ----------------------------------------
      1 C                    -0.079000
      2 C                    -0.082352
      3 C                     0.222852
      4 C                     0.224918
      5 O                    -0.179012
      6 O                    -0.218180
      7 O                    -0.184122
      8 O                    -0.218917
      9 C                    -0.124905
     10 C                    -0.124851
     11 C                     0.024961
     12 C                    -0.146393
     13 C                    -0.144895
     14 C                     0.107753
     15 O                    -0.200749
     16 H                     0.087484
     17 H                     0.083607
     18 H                     0.087211
     19 H                     0.091335
     20 H                     0.076831
     21 H                     0.072305
     22 H                     0.074995
     23 H                     0.069208
     24 H                     0.088623
     25 H                     0.094267
     26 H                     0.092315
     27 H                     0.090014
     28 H                     0.083557
     29 C                    -0.227180
     30 H                     0.078940
     31 H                     0.081782
     32 H                     0.097598
  ----------------------------------------
  Sum of atomic charges =     0.000000

 -----------------------------------------------------------------
                    Cartesian Multipole Moments
 -----------------------------------------------------------------
    Charge (ESU x 10^10)
                 0.0000
    Dipole Moment (Debye)
         X      -0.7549      Y       1.0497      Z       2.1469
       Tot       2.5062
    Quadrupole Moments (Debye-Ang)
        XX     -77.6771     XY      -0.4619     YY     -84.0313
        XZ       2.2360     YZ      -3.4103     ZZ     -89.5129
    Octopole Moments (Debye-Ang^2)
       XXX     -40.7934    XXY       1.7981    XYY     -22.8475
       YYY      -4.1111    XXZ      -3.4496    XYZ       6.3056
       YYZ       2.2133    XZZ      -5.2877    YZZ      -0.5647
       ZZZ      -5.9207
    Hexadecapole Moments (Debye-Ang^3)
      XXXX   -2046.3639   XXXY     -51.3693   XXYY    -564.0083
      XYYY       2.9089   YYYY   -1540.4656   XXXZ     -17.6871
      XXYZ     -18.8414   XYYZ       4.6234   YYYZ     -52.7911
      XXZZ    -430.2549   XYZZ     -12.6582   YYZZ    -329.5464
      XZZZ      -1.1598   YZZZ      -5.0700   ZZZZ    -365.7516
 -----------------------------------------------------------------
 Calculating analytic gradient of the SCF energy
 Gradient of SCF Energy
            1           2           3           4           5           6
    1   0.0009648  -0.0000651  -0.0075809  -0.0107429  -0.0030507   0.0063742
    2  -0.0104981   0.0073430   0.0138654   0.0008145  -0.0201771   0.0108415
    3  -0.0117929  -0.0174858   0.0066177   0.0134039  -0.0192486   0.0111638
            7           8           9          10          11          12
    1   0.0110812  -0.0006663   0.0052033   0.0096935  -0.0068839  -0.0037155
    2  -0.0129644   0.0095041   0.0081998   0.0003255  -0.0017006  -0.0074932
    3  -0.0226155   0.0118235   0.0040264   0.0066841   0.0050785  -0.0072983
           13          14          15          16          17          18
    1  -0.0068227  -0.0083171   0.0063331  -0.0009310   0.0010733  -0.0012965
    2   0.0013007  -0.0057793  -0.0041217  -0.0014589  -0.0009343   0.0033720
    3  -0.0109556   0.0025669   0.0194285  -0.0013553  -0.0023047   0.0021250
           19          20          21          22          23          24
    1   0.0004898   0.0011577   0.0015946  -0.0010447   0.0013486   0.0011155
    2   0.0019102  -0.0026062   0.0008257   0.0028167   0.0017501  -0.0017834
    3   0.0035809   0.0008848  -0.0019397   0.0025380  -0.0013347  -0.0028353
           25          26          27          28          29          30
    1  -0.0003378  -0.0006305   0.0017288   0.0034243  -0.0035996  -0.0017826
    2   0.0013124  -0.0024588   0.0030440  -0.0024847   0.0049160  -0.0021773
    3   0.0037667  -0.0024192   0.0018561   0.0011633   0.0120799  -0.0028717
           31          32
    1   0.0009815   0.0049041
    2   0.0014718   0.0030246
    3  -0.0015110  -0.0028194
 Max gradient component =       2.262E-02
 RMS gradient           =       7.121E-03
 Gradient time:  CPU 16.44 s  wall 0.69 s
 Geometry Optimization Parameters
   NAtoms,    NIC,     NZ,  NCons,   NDum,   NFix, NCnnct, MaxDiis
       32     251       0       2       0       0       0       0

 Cartesian Hessian Update
 Hessian Updated using BFGS Update


** CONSTRAINED OPTIMIZATION IN DELOCALIZED INTERNAL COORDINATES **
   Searching for a Minimum

   Optimization Cycle:   2

                       Coordinates (Angstroms)
     ATOM                X               Y               Z
      1  C        -0.0903475451    0.8173000980    0.6631116529
      2  C         0.6998952586   -0.5302591379    0.6172066735
      3  C        -1.4303488172    0.8426409787   -0.1157347445
      4  C        -0.1367980717   -1.7435835207    0.1253609368
      5  O        -2.1606342975    1.9672339581    0.2894172127
      6  O        -1.7887844692    0.0528192420   -1.0063095015
      7  O        -1.2642226243   -1.8497473742    0.9558494645
      8  O         0.1506361773   -2.5583434287   -0.7669808252
      9  C        -2.1381642276   -2.9494487801    0.5691410246
     10  C        -3.4188928034    2.1060567984   -0.4324099686
     11  C         0.9288711927    1.7777571507   -0.0538738855
     12  C         2.1608424329    2.0348767606    0.8710314817
     13  C         2.9273628010    0.6838517478    0.7415270629
     14  C         1.9820702707   -0.1438431677   -0.2123110773
     15  O         1.4971415104    0.9193482387   -1.1079547522
     16  H        -0.2942111088    1.1323400792    1.6997780729
     17  H         1.0199233161   -0.7972471239    1.6402665765
     18  H        -1.6308732615   -3.9267386396    0.6705291043
     19  H        -3.2551835822    2.2105856156   -1.5209475810
     20  H         2.7741450762    2.8568452104    0.4749642800
     21  H         1.8814618103    2.2843461087    1.9046831102
     22  H         3.9035531759    0.8544500110    0.2658343125
     23  H         3.1064881738    0.1957378523    1.7106134570
     24  H        -3.0037413352   -2.9297837974    1.2522311788
     25  H        -2.5042561756   -2.8300249509   -0.4672403399
     26  H        -3.9058028115    3.0229870782   -0.0603546844
     27  H        -4.0906722120    1.2482483232   -0.2429263568
     28  H         0.4884686030    2.6868934638   -0.4945624690
     29  C         2.7248695998   -1.2364443827   -0.9994474149
     30  H         3.6536102800   -0.8283712713   -1.4243886058
     31  H         2.9814350263   -2.0864962975   -0.3542001193
     32  H         2.1257153774   -1.5919525288   -1.8488661902
   Point Group: c1    Number of degrees of freedom:    90


   Energy is   -794.582039168

              Constraints and their Current Values
                                        Value     Constraint
   Dihedral:        2   1   3   5      165.402      167.300
   Dihedral:        1   2   4   7      -56.226      -55.000
 Hessian Updated using BFGS Update

   Using Lagrange Multiplier Algorithm


 80 Hessian modes will be used to form the next step
  Hessian Eigenvalues:
    -0.977839   -0.975544    0.044978    0.045002    0.045009    0.045371
     0.045528    0.048619    0.059361    0.061345    0.067524    0.068230
     0.070562    0.073236    0.073449    0.076710    0.079754    0.081330
     0.082109    0.083411    0.083600    0.084422    0.085341    0.090061
     0.091270    0.091976    0.096911    0.108141    0.112657    0.113729
     0.113796    0.116927    0.116970    0.122451    0.128248    0.140059
     0.143768    0.158785    0.161444    0.168084    0.180411    0.241771
     0.245290    0.248696    0.249954    0.250147    0.252901    0.262495
     0.268886    0.289438    0.295798    0.306805    0.308542    0.317538
     0.328236    0.337252    0.340073    0.340680    0.341489    0.341725
     0.342232    0.342757    0.343004    0.343223    0.343348    0.343537
     0.343582    0.343707    0.344437    0.344581    0.345013    0.374560
     0.411889    0.414966    0.495799    0.512272    0.952674    0.965977
     1.022721    1.031376

 Minimum Search - Taking P-RFO Step
 Searching for Lamda that Maximizes Along the Constraint modes Only
 Value Taken    Lamda =   0.00100050
 Searching for Lamda that Minimizes Along All other modes
 Value Taken    Lamda =  -0.01213605
 Step Taken.  Stepsize is  0.250257

                             Maximum     Tolerance    Cnvgd?
         Gradient            0.033126       0.000300      NO
         Displacement        0.078916       0.001200      NO
         Energy change     -0.030548       0.000001      NO


 New Cartesian Coordinates Obtained by Inverse Iteration

 Displacement from previous Coordinates is:  0.814634
 Adding empirical dispersion correction 
 ----------------------------------------------------------------
 Doing -D3(op) with
 s6 =   1.00000
 s8 =   0.78311
 a1 =   0.30000
 a2 =   4.25000
 n  =  10.00000
 -D3 energy without 3body term =     -0.0355228509 hartrees
 ----------------------------------------------------------------
             Standard Nuclear Orientation (Angstroms)
    I     Atom           X                Y                Z
 ----------------------------------------------------------------
    1      C      -0.0609162948     0.8441471250     0.7204075962
    2      C       0.7272598647    -0.5189070419     0.6588959773
    3      C      -1.4146903813     0.8176305513    -0.0639326744
    4      C      -0.1344589242    -1.7321858248     0.1525188722
    5      O      -2.1629562172     1.9722987414     0.3028601330
    6      O      -1.7774116853    -0.0137143059    -0.9271260169
    7      O      -1.2876205410    -1.8045988834     0.9933989855
    8      O       0.1130543924    -2.5419542202    -0.7665946967
    9      C      -2.1699821824    -2.8899933849     0.5295541754
   10      C      -3.4229494515     2.0121685315    -0.4648037372
   11      C       0.9519992360     1.8062866452    -0.0355439898
   12      C       2.2001122656     2.0583669550     0.8909605783
   13      C       2.9651783901     0.6918309141     0.7447793101
   14      C       1.9953896650    -0.1233326116    -0.2155453838
   15      O       1.4845100856     0.9468983285    -1.1155103246
   16      H      -0.2440838912     1.1788147237     1.7566994801
   17      H       1.0603911724    -0.7892668123     1.6791645137
   18      H      -1.6768714506    -3.8818942422     0.5981705325
   19      H      -3.2365532945     2.0466602614    -1.5581695214
   20      H       2.8010611116     2.8924231439     0.4942417604
   21      H       1.9199793279     2.2937920140     1.9305419733
   22      H       3.9392898899     0.8411029055     0.2516121450
   23      H       3.1398780743     0.1839109077     1.7069957832
   24      H      -3.0521731485    -2.8714697060     1.1964984814
   25      H      -2.4946474165    -2.7273746138    -0.5189633907
   26      H      -3.9427716366     2.9360200327    -0.1495492262
   27      H      -4.0647347717     1.1341385719    -0.2447907931
   28      H       0.4881984099     2.7139351254    -0.4698169986
   29      C       2.6851483949    -1.2437195000    -1.0327510897
   30      H       3.6106942854    -0.8521483507    -1.4832950840
   31      H       2.9357993704    -2.0949506225    -0.3822324912
   32      H       2.0184340911    -1.5928810441    -1.8356377935
 ----------------------------------------------------------------
 Molecular Point Group                 C1    NOp =  1
 Largest Abelian Subgroup              C1    NOp =  1
 Nuclear Repulsion Energy =  1228.6022070552 hartrees
 There are       61 alpha and       61 beta electrons
 Applying Cartesian multipole field
    Component          Value
    ---------          -----
     (2,0,0)        1.00000E-11
     (0,2,0)        2.00000E-11
     (0,0,2)       -3.00000E-11
 Nucleus-field energy     =     0.0000000343 hartrees
 Requested basis set is STO-3G
 There are 48 shells and 96 basis functions
 A cutoff of  1.0D-12 yielded   1025 shell pairs
 There are      4520 function pairs
 Smallest overlap matrix eigenvalue = 2.13E-01
 Guess MOs from SCF MO coefficient file
 Reading MOs from coefficient file
 Reading MOs from coefficient file
 A restricted hybrid HF-DFT SCF calculation will be
 performed using Pulay DIIS extrapolation
 Exchange:     0.2000 Hartree-Fock + 0.0800 Slater + 0.7200 B88
 Correlation:  0.1900 VWN1RPA + 0.8100 LYP
 Using SG-1 standard quadrature grid
 Dispersion:   Grimme D3
 SCF converges when DIIS error is below 1.0E-08
 Geometry optimization detected.  Setting ReadMinima to 0
 Setting SaveMinima to 0
 -------------------------------------------------------
 OpenMP Integral computing Module                
 Release: version 1.0, May 2013, Q-Chem Inc. Pittsburgh 
 -------------------------------------------------------
 -------------------------------------------------------
 OpenMP BLAS3 based DFT computing Module                
 Release: version 1.0, May 2013, Q-Chem Inc. Pittsburgh 
 -------------------------------------------------------
 ---------------------------------------
  Cycle       Energy         DIIS Error
 ---------------------------------------
    1    -794.4961637579      3.95E-03
    2    -794.5859908607      1.26E-03
    3    -794.5821133966      2.16E-03
    4    -794.5879464244      3.87E-04
    5    -794.5881487670      8.21E-05
    6    -794.5881580387      2.12E-05
    7    -794.5881583115      1.71E-05
    8    -794.5881586853      4.00E-06
    9    -794.5881587090      5.89E-07
   10    -794.5881587094      2.58E-07
   11    -794.5881587095      5.18E-08
   12    -794.5881587095      1.93E-08
   13    -794.5881587096      3.69E-09 Convergence criterion met
 ---------------------------------------
 SCF time:  CPU 57.70 s  wall 2.43 s
 SCF   energy in the final basis set = -794.5881587096
 Total energy in the final basis set = -794.5881587096
 
 --------------------------------------------------------------
 
                    Orbital Energies (a.u.)
 --------------------------------------------------------------
 
 Alpha MOs
 -- Occupied --
-18.938 -18.923 -18.877 -18.874 -18.864 -10.099 -10.092 -10.066
-10.059 -10.057 -10.056 -10.035 -10.030 -10.017 -10.012 -10.006
 -1.015  -1.002  -0.964  -0.937  -0.926  -0.761  -0.726  -0.717
 -0.672  -0.654  -0.635  -0.591  -0.539  -0.526  -0.491  -0.470
 -0.452  -0.439  -0.429  -0.414  -0.413  -0.404  -0.401  -0.380
 -0.377  -0.367  -0.357  -0.348  -0.338  -0.335  -0.310  -0.306
 -0.306  -0.296  -0.289  -0.277  -0.267  -0.254  -0.245  -0.227
 -0.181  -0.166  -0.153  -0.141  -0.138
 -- Virtual --
  0.099   0.116   0.239   0.253   0.274   0.287   0.310   0.328
  0.345   0.347   0.358   0.374   0.387   0.391   0.404   0.419
  0.423   0.424   0.428   0.431   0.433   0.437   0.441   0.441
  0.450   0.465   0.475   0.479   0.490   0.505   0.513   0.548
  0.554   0.650   0.659
 --------------------------------------------------------------
 
          Ground-State Mulliken Net Atomic Charges

     Atom                 Charge (a.u.)
  ----------------------------------------
      1 C                    -0.077659
      2 C                    -0.081805
      3 C                     0.216079
      4 C                     0.217141
      5 O                    -0.171163
      6 O                    -0.212340
      7 O                    -0.177821
      8 O                    -0.214364
      9 C                    -0.126886
     10 C                    -0.127128
     11 C                     0.024571
     12 C                    -0.144828
     13 C                    -0.144179
     14 C                     0.104671
     15 O                    -0.195546
     16 H                     0.086756
     17 H                     0.081760
     18 H                     0.085625
     19 H                     0.090383
     20 H                     0.076770
     21 H                     0.072707
     22 H                     0.074542
     23 H                     0.070123
     24 H                     0.085972
     25 H                     0.093468
     26 H                     0.090271
     27 H                     0.089060
     28 H                     0.082403
     29 C                    -0.226455
     30 H                     0.078375
     31 H                     0.080620
     32 H                     0.098876
  ----------------------------------------
  Sum of atomic charges =    -0.000000

 -----------------------------------------------------------------
                    Cartesian Multipole Moments
 -----------------------------------------------------------------
    Charge (ESU x 10^10)
                 0.0000
    Dipole Moment (Debye)
         X      -0.5791      Y       1.0426      Z       2.0126
       Tot       2.3394
    Quadrupole Moments (Debye-Ang)
        XX     -77.9825     XY      -0.3296     YY     -84.6830
        XZ       2.6761     YZ      -3.0334     ZZ     -89.2307
    Octopole Moments (Debye-Ang^2)
       XXX     -40.4705    XXY       0.6950    XYY     -20.1907
       YYY      -5.4494    XXZ      -5.0892    XYZ       6.0848
       YYZ       0.8981    XZZ      -5.6451    YZZ      -0.5415
       ZZZ      -8.9143
    Hexadecapole Moments (Debye-Ang^3)
      XXXX   -2063.7230   XXXY     -63.3751   XXYY    -568.7262
      XYYY     -11.3716   YYYY   -1515.7260   XXXZ     -18.4337
      XXYZ     -21.5169   XYYZ       4.4966   YYYZ     -55.5414
      XXZZ    -432.9561   XYZZ     -17.9746   YYZZ    -327.0211
      XZZZ      -1.8950   YZZZ     -11.1844   ZZZZ    -372.0408
 -----------------------------------------------------------------
 Calculating analytic gradient of the SCF energy
 Gradient of SCF Energy
            1           2           3           4           5           6
    1   0.0010348   0.0001570  -0.0044411  -0.0034226   0.0006508   0.0003070
    2  -0.0031551   0.0041700   0.0044728  -0.0034222  -0.0017002  -0.0017261
    3   0.0011683  -0.0088545   0.0032611   0.0088781  -0.0022616  -0.0004549
            7           8           9          10          11          12
    1   0.0001621   0.0013094   0.0035618   0.0041500  -0.0017399  -0.0025831
    2   0.0020352  -0.0006307   0.0025409  -0.0018759   0.0009286  -0.0012333
    3  -0.0056618  -0.0012622  -0.0000758   0.0015250   0.0028125  -0.0000982
           13          14          15          16          17          18
    1  -0.0011852  -0.0032204   0.0020317   0.0005725   0.0002550   0.0000455
    2  -0.0007364  -0.0035203   0.0011481   0.0001064  -0.0001729  -0.0002293
    3  -0.0011126   0.0019158   0.0000391   0.0003071   0.0004019   0.0002207
           19          20          21          22          23          24
    1   0.0000477   0.0001756   0.0007902   0.0002194   0.0013515  -0.0000801
    2   0.0001747  -0.0001031   0.0010836   0.0005848   0.0000312   0.0002822
    3  -0.0002966  -0.0004459   0.0001980   0.0001934   0.0001402   0.0002399
           25          26          27          28          29          30
    1  -0.0002031   0.0001103  -0.0002754   0.0003579  -0.0010422   0.0000912
    2  -0.0000420   0.0002415  -0.0000443  -0.0002488  -0.0006698   0.0004509
    3  -0.0001598   0.0002097   0.0001687  -0.0017195   0.0029318  -0.0003507
           31          32
    1  -0.0000691   0.0008811
    2  -0.0000845   0.0013440
    3   0.0000205  -0.0018779
 Max gradient component =       8.878E-03
 RMS gradient           =       2.129E-03
 Gradient time:  CPU 16.08 s  wall 0.68 s
 Geometry Optimization Parameters
   NAtoms,    NIC,     NZ,  NCons,   NDum,   NFix, NCnnct, MaxDiis
       32     251       0       2       0       0       0       0

 Cartesian Hessian Update
 Hessian Updated using BFGS Update


** CONSTRAINED OPTIMIZATION IN DELOCALIZED INTERNAL COORDINATES **
   Searching for a Minimum

   Optimization Cycle:   3

                       Coordinates (Angstroms)
     ATOM                X               Y               Z
      1  C        -0.0609162948    0.8441471250    0.7204075962
      2  C         0.7272598647   -0.5189070419    0.6588959773
      3  C        -1.4146903813    0.8176305513   -0.0639326744
      4  C        -0.1344589242   -1.7321858248    0.1525188722
      5  O        -2.1629562172    1.9722987414    0.3028601330
      6  O        -1.7774116853   -0.0137143059   -0.9271260169
      7  O        -1.2876205410   -1.8045988834    0.9933989855
      8  O         0.1130543924   -2.5419542202   -0.7665946967
      9  C        -2.1699821824   -2.8899933849    0.5295541754
     10  C        -3.4229494515    2.0121685315   -0.4648037372
     11  C         0.9519992360    1.8062866452   -0.0355439898
     12  C         2.2001122656    2.0583669550    0.8909605783
     13  C         2.9651783901    0.6918309141    0.7447793101
     14  C         1.9953896650   -0.1233326116   -0.2155453838
     15  O         1.4845100856    0.9468983285   -1.1155103246
     16  H        -0.2440838912    1.1788147237    1.7566994801
     17  H         1.0603911724   -0.7892668123    1.6791645137
     18  H        -1.6768714506   -3.8818942422    0.5981705325
     19  H        -3.2365532945    2.0466602614   -1.5581695214
     20  H         2.8010611116    2.8924231439    0.4942417604
     21  H         1.9199793279    2.2937920140    1.9305419733
     22  H         3.9392898899    0.8411029055    0.2516121450
     23  H         3.1398780743    0.1839109077    1.7069957832
     24  H        -3.0521731485   -2.8714697060    1.1964984814
     25  H        -2.4946474165   -2.7273746138   -0.5189633907
     26  H        -3.9427716366    2.9360200327   -0.1495492262
     27  H        -4.0647347717    1.1341385719   -0.2447907931
     28  H         0.4881984099    2.7139351254   -0.4698169986
     29  C         2.6851483949   -1.2437195000   -1.0327510897
     30  H         3.6106942854   -0.8521483507   -1.4832950840
     31  H         2.9357993704   -2.0949506225   -0.3822324912
     32  H         2.0184340911   -1.5928810441   -1.8356377935
   Point Group: c1    Number of degrees of freedom:    90


   Energy is   -794.588158710

              Constraints and their Current Values
                                        Value     Constraint
   Dihedral:        2   1   3   5      167.288      167.300
   Dihedral:        1   2   4   7      -55.003      -55.000
 Hessian Updated using BFGS Update

   Using Lagrange Multiplier Algorithm


 83 Hessian modes will be used to form the next step
  Hessian Eigenvalues:
    -0.977715   -0.975456    0.044492    0.045000    0.045002    0.045176
     0.045322    0.045611    0.048505    0.059388    0.060101    0.067371
     0.068365    0.071124    0.073167    0.073553    0.076613    0.078995
     0.080601    0.082021    0.082856    0.083625    0.084366    0.085359
     0.090093    0.091206    0.092102    0.096458    0.107984    0.113294
     0.113741    0.113800    0.116927    0.116970    0.123353    0.129261
     0.140023    0.143734    0.159441    0.160642    0.161714    0.171191
     0.179914    0.239191    0.246763    0.249287    0.249996    0.250127
     0.251784    0.261469    0.267832    0.270833    0.289414    0.295901
     0.306726    0.308512    0.313450    0.328995    0.337254    0.339985
     0.340714    0.341339    0.341770    0.341843    0.342567    0.342973
     0.343212    0.343323    0.343528    0.343600    0.343703    0.344437
     0.344598    0.345160    0.375411    0.392278    0.411952    0.475959
     0.511879    0.952795    0.976929    1.022948    1.034587

 Minimum Search - Taking P-RFO Step
 Searching for Lamda that Maximizes Along the Constraint modes Only
 Value Taken    Lamda =   0.00000777
 Searching for Lamda that Minimizes Along All other modes
 Value Taken    Lamda =  -0.00101956
 Step Taken.  Stepsize is  0.102624

                             Maximum     Tolerance    Cnvgd?
         Gradient            0.006389       0.000300      NO
         Displacement        0.030931       0.001200      NO
         Energy change     -0.006120       0.000001      NO


 New Cartesian Coordinates Obtained by Inverse Iteration

 Displacement from previous Coordinates is:  0.232818
 Adding empirical dispersion correction 
 ----------------------------------------------------------------
 Doing -D3(op) with
 s6 =   1.00000
 s8 =   0.78311
 a1 =   0.30000
 a2 =   4.25000
 n  =  10.00000
 -D3 energy without 3body term =     -0.0355037440 hartrees
 ----------------------------------------------------------------
             Standard Nuclear Orientation (Angstroms)
    I     Atom           X                Y                Z
 ----------------------------------------------------------------
    1      C      -0.0595873473     0.8418300349     0.7319585961
    2      C       0.7382010393    -0.5232509942     0.6647127161
    3      C      -1.4072178645     0.8184296458    -0.0705217409
    4      C      -0.1248683476    -1.7419192305     0.1593019781
    5      O      -2.1724769164     1.9709785611     0.2982731218
    6      O      -1.7605465817    -0.0015708424    -0.9480393902
    7      O      -1.2818358730    -1.8220125445     1.0100289713
    8      O       0.1121502733    -2.5494770922    -0.7638529135
    9      C      -2.1792807986    -2.9049365943     0.5475435475
   10      C      -3.4300856718     2.0243063286    -0.4870037237
   11      C       0.9535774483     1.8091680472    -0.0236147127
   12      C       2.2076805904     2.0606981835     0.9001688641
   13      C       2.9758158837     0.6982343323     0.7400862514
   14      C       2.0031058649    -0.1139114241    -0.2215032857
   15      O       1.4738555931     0.9548496555    -1.1139511380
   16      H      -0.2465727073     1.1697455267     1.7693815394
   17      H       1.0748433479    -0.7964743720     1.6822610261
   18      H      -1.6885878880    -3.8987274018     0.6007674735
   19      H      -3.2295805797     2.0732008914    -1.5769811263
   20      H       2.8026404871     2.9031619887     0.5126198602
   21      H       1.9237582860     2.2792354540     1.9421689056
   22      H       3.9487448097     0.8477422628     0.2448741182
   23      H       3.1458005373     0.1809807436     1.6976590406
   24      H      -3.0545330909    -2.8893350095     1.2232818219
   25      H      -2.5117855864    -2.7318967709    -0.4966439910
   26      H      -3.9556825829     2.9422173508    -0.1649123384
   27      H      -4.0714876470     1.1409147583    -0.2896474095
   28      H       0.4802241550     2.7191512101    -0.4420749262
   29      C       2.6840987449    -1.2368949384    -1.0478628410
   30      H       3.6034250156    -0.8519538276    -1.5151151166
   31      H       2.9434073860    -2.0827997630    -0.3936527497
   32      H       1.9963567605    -1.5976498561    -1.8266733425
 ----------------------------------------------------------------
 Molecular Point Group                 C1    NOp =  1
 Largest Abelian Subgroup              C1    NOp =  1
 Nuclear Repulsion Energy =  1225.4134428243 hartrees
 There are       61 alpha and       61 beta electrons
 Applying Cartesian multipole field
    Component          Value
    ---------          -----
     (2,0,0)        1.00000E-11
     (0,2,0)        2.00000E-11
     (0,0,2)       -3.00000E-11
 Nucleus-field energy     =     0.0000000343 hartrees
 Requested basis set is STO-3G
 There are 48 shells and 96 basis functions
 A cutoff of  1.0D-12 yielded   1022 shell pairs
 There are      4508 function pairs
 Smallest overlap matrix eigenvalue = 2.14E-01
 Guess MOs from SCF MO coefficient file
 Reading MOs from coefficient file
 Reading MOs from coefficient file
 A restricted hybrid HF-DFT SCF calculation will be
 performed using Pulay DIIS extrapolation
 Exchange:     0.2000 Hartree-Fock + 0.0800 Slater + 0.7200 B88
 Correlation:  0.1900 VWN1RPA + 0.8100 LYP
 Using SG-1 standard quadrature grid
 Dispersion:   Grimme D3
 SCF converges when DIIS error is below 1.0E-08
 Geometry optimization detected.  Setting ReadMinima to 0
 Setting SaveMinima to 0
 -------------------------------------------------------
 OpenMP Integral computing Module                
 Release: version 1.0, May 2013, Q-Chem Inc. Pittsburgh 
 -------------------------------------------------------
 -------------------------------------------------------
 OpenMP BLAS3 based DFT computing Module                
 Release: version 1.0, May 2013, Q-Chem Inc. Pittsburgh 
 -------------------------------------------------------
 ---------------------------------------
  Cycle       Energy         DIIS Error
 ---------------------------------------
    1    -794.5724038642      1.25E-03
    2    -794.5884616473      3.70E-04
    3    -794.5878948121      7.58E-04
    4    -794.5886431884      6.60E-05
    5    -794.5886489489      1.90E-05
    6    -794.5886493649      7.92E-06
    7    -794.5886494183      4.87E-06
    8    -794.5886494495      9.24E-07
    9    -794.5886494507      1.29E-07
   10    -794.5886494507      6.53E-08
   11    -794.5886494507      1.25E-08
   12    -794.5886494507      5.24E-09 Convergence criterion met
 ---------------------------------------
 SCF time:  CPU 52.77 s  wall 2.22 s
 SCF   energy in the final basis set = -794.5886494507
 Total energy in the final basis set = -794.5886494507
 
 --------------------------------------------------------------
 
                    Orbital Energies (a.u.)
 --------------------------------------------------------------
 
 Alpha MOs
 -- Occupied --
-18.934 -18.920 -18.879 -18.875 -18.866 -10.098 -10.092 -10.065
-10.060 -10.057 -10.055 -10.036 -10.031 -10.018 -10.013 -10.006
 -1.011  -0.998  -0.964  -0.935  -0.925  -0.760  -0.725  -0.717
 -0.671  -0.653  -0.635  -0.591  -0.539  -0.525  -0.490  -0.469
 -0.451  -0.439  -0.429  -0.412  -0.412  -0.403  -0.401  -0.380
 -0.376  -0.366  -0.357  -0.347  -0.339  -0.336  -0.311  -0.307
 -0.306  -0.295  -0.289  -0.276  -0.266  -0.253  -0.245  -0.227
 -0.178  -0.165  -0.153  -0.142  -0.139
 -- Virtual --
  0.098   0.115   0.235   0.249   0.269   0.286   0.308   0.326
  0.341   0.344   0.355   0.373   0.384   0.389   0.402   0.418
  0.422   0.423   0.428   0.431   0.433   0.436   0.440   0.441
  0.449   0.463   0.473   0.478   0.491   0.502   0.512   0.546
  0.553   0.648   0.656
 --------------------------------------------------------------
 
          Ground-State Mulliken Net Atomic Charges

     Atom                 Charge (a.u.)
  ----------------------------------------
      1 C                    -0.077085
      2 C                    -0.081240
      3 C                     0.214299
      4 C                     0.215132
      5 O                    -0.170965
      6 O                    -0.211536
      7 O                    -0.177264
      8 O                    -0.212979
      9 C                    -0.128326
     10 C                    -0.128445
     11 C                     0.024557
     12 C                    -0.144839
     13 C                    -0.144412
     14 C                     0.104766
     15 O                    -0.194564
     16 H                     0.087009
     17 H                     0.081702
     18 H                     0.085598
     19 H                     0.090128
     20 H                     0.077178
     21 H                     0.073107
     22 H                     0.074996
     23 H                     0.070702
     24 H                     0.086379
     25 H                     0.092992
     26 H                     0.090454
     27 H                     0.088866
     28 H                     0.082358
     29 C                    -0.227232
     30 H                     0.078755
     31 H                     0.080346
     32 H                     0.099561
  ----------------------------------------
  Sum of atomic charges =    -0.000000

 -----------------------------------------------------------------
                    Cartesian Multipole Moments
 -----------------------------------------------------------------
    Charge (ESU x 10^10)
                 0.0000
    Dipole Moment (Debye)
         X      -0.5102      Y       1.0272      Z       2.0097
       Tot       2.3139
    Quadrupole Moments (Debye-Ang)
        XX     -77.8314     XY      -0.2528     YY     -84.6187
        XZ       2.7236     YZ      -3.0022     ZZ     -89.2777
    Octopole Moments (Debye-Ang^2)
       XXX     -41.0109    XXY       0.5677    XYY     -20.5246
       YYY      -5.5295    XXZ      -5.4459    XYZ       6.2993
       YYZ       0.8558    XZZ      -5.7055    YZZ      -0.4874
       ZZZ      -8.8235
    Hexadecapole Moments (Debye-Ang^3)
      XXXX   -2066.1610   XXXY     -64.0199   XXYY    -569.8112
      XYYY     -11.7514   YYYY   -1523.9622   XXXZ     -19.1389
      XXYZ     -21.4979   XYYZ       4.2547   YYYZ     -53.0697
      XXZZ    -434.5823   XYZZ     -18.3402   YYZZ    -329.8394
      XZZZ      -3.2914   YZZZ      -8.7039   ZZZZ    -378.1898
 -----------------------------------------------------------------
 Calculating analytic gradient of the SCF energy
 Gradient of SCF Energy
            1           2           3           4           5           6
    1  -0.0007994   0.0022903   0.0004497   0.0023046   0.0006865  -0.0007869
    2  -0.0009681   0.0023767   0.0010987  -0.0028183  -0.0002091  -0.0006784
    3   0.0038131  -0.0059967   0.0022199   0.0058280  -0.0008867  -0.0012691
            7           8           9          10          11          12
    1  -0.0014991   0.0003068  -0.0013757  -0.0012940  -0.0006601  -0.0006262
    2   0.0019746  -0.0008877  -0.0005248   0.0011170   0.0006448   0.0001461
    3  -0.0027818  -0.0008475   0.0006838   0.0000147   0.0011289   0.0010428
           13          14          15          16          17          18
    1   0.0000232  -0.0005658   0.0004115   0.0009929  -0.0003268  -0.0000308
    2   0.0002437  -0.0010254   0.0006993  -0.0000981  -0.0005679  -0.0001462
    3   0.0001349   0.0013876  -0.0019950   0.0002248  -0.0001160  -0.0000870
           19          20          21          22          23          24
    1  -0.0001345   0.0002081   0.0003304   0.0000457   0.0004216  -0.0003357
    2  -0.0001794  -0.0000740   0.0005967   0.0002277  -0.0000499  -0.0002177
    3  -0.0001180  -0.0003517   0.0000597  -0.0001492  -0.0000385  -0.0000383
           25          26          27          28          29          30
    1   0.0001198  -0.0003970  -0.0001104  -0.0002237   0.0003475   0.0004124
    2  -0.0001387   0.0001235  -0.0000799  -0.0003508  -0.0008751  -0.0000113
    3  -0.0001189  -0.0001944  -0.0001982  -0.0008905  -0.0001767   0.0004321
           31          32
    1  -0.0005640   0.0003791
    2  -0.0001837   0.0008360
    3  -0.0001603  -0.0005562
 Max gradient component =       5.997E-03
 RMS gradient           =       1.291E-03
 Gradient time:  CPU 16.17 s  wall 0.68 s
 Geometry Optimization Parameters
   NAtoms,    NIC,     NZ,  NCons,   NDum,   NFix, NCnnct, MaxDiis
       32     251       0       2       0       0       0       0

 Cartesian Hessian Update
 Hessian Updated using BFGS Update


** CONSTRAINED OPTIMIZATION IN DELOCALIZED INTERNAL COORDINATES **
   Searching for a Minimum

   Optimization Cycle:   4

                       Coordinates (Angstroms)
     ATOM                X               Y               Z
      1  C        -0.0595873473    0.8418300349    0.7319585961
      2  C         0.7382010393   -0.5232509942    0.6647127161
      3  C        -1.4072178645    0.8184296458   -0.0705217409
      4  C        -0.1248683476   -1.7419192305    0.1593019781
      5  O        -2.1724769164    1.9709785611    0.2982731218
      6  O        -1.7605465817   -0.0015708424   -0.9480393902
      7  O        -1.2818358730   -1.8220125445    1.0100289713
      8  O         0.1121502733   -2.5494770922   -0.7638529135
      9  C        -2.1792807986   -2.9049365943    0.5475435475
     10  C        -3.4300856718    2.0243063286   -0.4870037237
     11  C         0.9535774483    1.8091680472   -0.0236147127
     12  C         2.2076805904    2.0606981835    0.9001688641
     13  C         2.9758158837    0.6982343323    0.7400862514
     14  C         2.0031058649   -0.1139114241   -0.2215032857
     15  O         1.4738555931    0.9548496555   -1.1139511380
     16  H        -0.2465727073    1.1697455267    1.7693815394
     17  H         1.0748433479   -0.7964743720    1.6822610261
     18  H        -1.6885878880   -3.8987274018    0.6007674735
     19  H        -3.2295805797    2.0732008914   -1.5769811263
     20  H         2.8026404871    2.9031619887    0.5126198602
     21  H         1.9237582860    2.2792354540    1.9421689056
     22  H         3.9487448097    0.8477422628    0.2448741182
     23  H         3.1458005373    0.1809807436    1.6976590406
     24  H        -3.0545330909   -2.8893350095    1.2232818219
     25  H        -2.5117855864   -2.7318967709   -0.4966439910
     26  H        -3.9556825829    2.9422173508   -0.1649123384
     27  H        -4.0714876470    1.1409147583   -0.2896474095
     28  H         0.4802241550    2.7191512101   -0.4420749262
     29  C         2.6840987449   -1.2368949384   -1.0478628410
     30  H         3.6034250156   -0.8519538276   -1.5151151166
     31  H         2.9434073860   -2.0827997630   -0.3936527497
     32  H         1.9963567605   -1.5976498561   -1.8266733425
   Point Group: c1    Number of degrees of freedom:    90


   Energy is   -794.588649451

              Constraints and their Current Values
                                        Value     Constraint
   Dihedral:        2   1   3   5      167.300      167.300
   Dihedral:        1   2   4   7      -55.000      -55.000
 Hessian Updated using BFGS Update

   Using Lagrange Multiplier Algorithm


 84 Hessian modes will be used to form the next step
  Hessian Eigenvalues:
    -0.977690    0.032785    0.045000    0.045002    0.045005    0.045202
     0.045381    0.045649    0.048232    0.055366    0.059543    0.067464
     0.068408    0.071436    0.073275    0.073418    0.075823    0.079197
     0.080334    0.081956    0.082667    0.083717    0.084513    0.085382
     0.090442    0.091305    0.092137    0.096364    0.107460    0.113602
     0.113795    0.114286    0.116927    0.116972    0.124600    0.128618
     0.140825    0.144224    0.159624    0.160221    0.160801    0.161669
     0.172046    0.182124    0.240595    0.246025    0.249478    0.249998
     0.250001    0.250270    0.251674    0.261837    0.268469    0.288484
     0.293763    0.296562    0.306840    0.308633    0.325401    0.329451
     0.337607    0.340184    0.340738    0.341505    0.341744    0.342439
     0.342954    0.343171    0.343313    0.343505    0.343523    0.343698
     0.344343    0.344511    0.344947    0.347543    0.380039    0.411952
     0.453725    0.511281    0.521769    0.952935    0.980393    1.023199

 Minimum Search - Taking P-RFO Step
 Searching for Lamda that Maximizes Along the Constraint modes Only
 Value Taken    Lamda =   0.00000038
 Searching for Lamda that Minimizes Along All other modes
 Value Taken    Lamda =  -0.00027973
 Step Taken.  Stepsize is  0.072045

                             Maximum     Tolerance    Cnvgd?
         Gradient            0.004047       0.000300      NO
         Displacement        0.026271       0.001200      NO
         Energy change     -0.000491       0.000001      NO


 New Cartesian Coordinates Obtained by Inverse Iteration

 Displacement from previous Coordinates is:  0.236512
 Adding empirical dispersion correction 
 ----------------------------------------------------------------
 Doing -D3(op) with
 s6 =   1.00000
 s8 =   0.78311
 a1 =   0.30000
 a2 =   4.25000
 n  =  10.00000
 -D3 energy without 3body term =     -0.0356150932 hartrees
 ----------------------------------------------------------------
             Standard Nuclear Orientation (Angstroms)
    I     Atom           X                Y                Z
 ----------------------------------------------------------------
    1      C      -0.0571473131     0.8419599339     0.7421937985
    2      C       0.7440475040    -0.5200587462     0.6709989965
    3      C      -1.3994767944     0.8080097301    -0.0662515883
    4      C      -0.1255371111    -1.7310685472     0.1622048065
    5      O      -2.1757772379     1.9550243910     0.3011693087
    6      O      -1.7419270981    -0.0145454909    -0.9445142801
    7      O      -1.2804488626    -1.8056531000     1.0186278641
    8      O       0.0990573445    -2.5340918392    -0.7670051830
    9      C      -2.1864305494    -2.8759728392     0.5438390519
   10      C      -3.4264381293     1.9930920507    -0.4955697877
   11      C       0.9553054977     1.8109366347    -0.0147674678
   12      C       2.2144985757     2.0599535820     0.9034258012
   13      C       2.9822990722     0.6990903540     0.7351875706
   14      C       2.0046463361    -0.1093227614    -0.2231949600
   15      O       1.4662296321     0.9578916314    -1.1092225826
   16      H      -0.2495830704     1.1679559130     1.7791402522
   17      H       1.0847134719    -0.7940653039     1.6869092093
   18      H      -1.7023181001    -3.8734885960     0.5824495246
   19      H      -3.2162229820     2.0456641109    -1.5834167330
   20      H       2.8062730080     2.9064809175     0.5207379566
   21      H       1.9306973027     2.2688393550     1.9472552817
   22      H       3.9543524796     0.8466630338     0.2382628153
   23      H       3.1504223238     0.1781226531     1.6908653388
   24      H      -3.0580851681    -2.8619609188     1.2236559598
   25      H      -2.5215582395    -2.6857821308    -0.4964344987
   26      H      -3.9637804855     2.9046554221    -0.1761477248
   27      H      -4.0584312971     1.1019678745    -0.3033887756
   28      H       0.4789142805     2.7234027309    -0.4236239800
   29      C       2.6760133306    -1.2351538466    -1.0531199781
   30      H       3.5873973889    -0.8541265442    -1.5379145456
   31      H       2.9470998066    -2.0746775633    -0.3951873999
   32      H       1.9747518237    -1.6077077769    -1.8141269654
 ----------------------------------------------------------------
 Molecular Point Group                 C1    NOp =  1
 Largest Abelian Subgroup              C1    NOp =  1
 Nuclear Repulsion Energy =  1227.5916605447 hartrees
 There are       61 alpha and       61 beta electrons
 Applying Cartesian multipole field
    Component          Value
    ---------          -----
     (2,0,0)        1.00000E-11
     (0,2,0)        2.00000E-11
     (0,0,2)       -3.00000E-11
 Nucleus-field energy     =     0.0000000339 hartrees
 Requested basis set is STO-3G
 There are 48 shells and 96 basis functions
 A cutoff of  1.0D-12 yielded   1022 shell pairs
 There are      4508 function pairs
 Smallest overlap matrix eigenvalue = 2.13E-01
 Guess MOs from SCF MO coefficient file
 Reading MOs from coefficient file
 Reading MOs from coefficient file
 A restricted hybrid HF-DFT SCF calculation will be
 performed using Pulay DIIS extrapolation
 Exchange:     0.2000 Hartree-Fock + 0.0800 Slater + 0.7200 B88
 Correlation:  0.1900 VWN1RPA + 0.8100 LYP
 Using SG-1 standard quadrature grid
 Dispersion:   Grimme D3
 SCF converges when DIIS error is below 1.0E-08
 Geometry optimization detected.  Setting ReadMinima to 0
 Setting SaveMinima to 0
 -------------------------------------------------------
 OpenMP Integral computing Module                
 Release: version 1.0, May 2013, Q-Chem Inc. Pittsburgh 
 -------------------------------------------------------
 -------------------------------------------------------
 OpenMP BLAS3 based DFT computing Module                
 Release: version 1.0, May 2013, Q-Chem Inc. Pittsburgh 
 -------------------------------------------------------
 ---------------------------------------
  Cycle       Energy         DIIS Error
 ---------------------------------------
    1    -794.5897879478      8.00E-04
    2    -794.5888101519      7.61E-05
    3    -794.5887930022      1.46E-04
    4    -794.5888205962      2.62E-05
    5    -794.5888214078      9.03E-06
    6    -794.5888215134      2.76E-06
    7    -794.5888215228      1.12E-06
    8    -794.5888215242      4.62E-07
    9    -794.5888215245      6.88E-08
   10    -794.5888215245      2.63E-08
   11    -794.5888215245      7.15E-09 Convergence criterion met
 ---------------------------------------
 SCF time:  CPU 49.86 s  wall 2.10 s
 SCF   energy in the final basis set = -794.5888215245
 Total energy in the final basis set = -794.5888215245
 
 --------------------------------------------------------------
 
                    Orbital Energies (a.u.)
 --------------------------------------------------------------
 
 Alpha MOs
 -- Occupied --
-18.935 -18.919 -18.879 -18.876 -18.866 -10.099 -10.092 -10.064
-10.060 -10.057 -10.055 -10.035 -10.030 -10.018 -10.013 -10.006
 -1.012  -0.998  -0.965  -0.935  -0.925  -0.760  -0.725  -0.717
 -0.671  -0.653  -0.635  -0.591  -0.539  -0.525  -0.490  -0.469
 -0.451  -0.439  -0.429  -0.413  -0.412  -0.403  -0.401  -0.380
 -0.376  -0.367  -0.356  -0.348  -0.339  -0.336  -0.311  -0.307
 -0.306  -0.295  -0.289  -0.276  -0.266  -0.253  -0.245  -0.228
 -0.179  -0.165  -0.154  -0.142  -0.139
 -- Virtual --
  0.098   0.115   0.236   0.250   0.270   0.288   0.308   0.326
  0.341   0.344   0.354   0.374   0.384   0.389   0.402   0.418
  0.422   0.424   0.428   0.432   0.433   0.436   0.440   0.441
  0.450   0.463   0.473   0.479   0.491   0.502   0.512   0.545
  0.553   0.648   0.658
 --------------------------------------------------------------
 
          Ground-State Mulliken Net Atomic Charges

     Atom                 Charge (a.u.)
  ----------------------------------------
      1 C                    -0.077294
      2 C                    -0.081484
      3 C                     0.214993
      4 C                     0.215392
      5 O                    -0.170437
      6 O                    -0.211290
      7 O                    -0.177591
      8 O                    -0.213046
      9 C                    -0.128792
     10 C                    -0.128764
     11 C                     0.024768
     12 C                    -0.144922
     13 C                    -0.144553
     14 C                     0.105107
     15 O                    -0.194834
     16 H                     0.087087
     17 H                     0.081521
     18 H                     0.085604
     19 H                     0.090187
     20 H                     0.077410
     21 H                     0.073212
     22 H                     0.075164
     23 H                     0.070868
     24 H                     0.085987
     25 H                     0.092955
     26 H                     0.090381
     27 H                     0.088931
     28 H                     0.082261
     29 C                    -0.227762
     30 H                     0.078852
     31 H                     0.080004
     32 H                     0.100083
  ----------------------------------------
  Sum of atomic charges =    -0.000000

 -----------------------------------------------------------------
                    Cartesian Multipole Moments
 -----------------------------------------------------------------
    Charge (ESU x 10^10)
                 0.0000
    Dipole Moment (Debye)
         X      -0.4968      Y       1.0400      Z       1.9935
       Tot       2.3027
    Quadrupole Moments (Debye-Ang)
        XX     -77.8161     XY      -0.2509     YY     -84.7595
        XZ       2.7649     YZ      -2.9519     ZZ     -89.3000
    Octopole Moments (Debye-Ang^2)
       XXX     -41.0325    XXY       0.3139    XYY     -19.8692
       YYY      -5.5243    XXZ      -5.7935    XYZ       6.2912
       YYZ       0.6623    XZZ      -5.7300    YZZ      -0.4651
       ZZZ      -9.1410
    Hexadecapole Moments (Debye-Ang^3)
      XXXX   -2065.7791   XXXY     -66.4030   XXYY    -568.1311
      XYYY     -15.6630   YYYY   -1505.7704   XXXZ     -19.5561
      XXYZ     -21.8805   XYYZ       3.9649   YYYZ     -53.3596
      XXZZ    -434.4000   XYZZ     -19.6549   YYZZ    -327.1640
      XZZZ      -3.9647   YZZZ     -10.0910   ZZZZ    -379.8269
 -----------------------------------------------------------------
 Calculating analytic gradient of the SCF energy
 Gradient of SCF Energy
            1           2           3           4           5           6
    1  -0.0023353   0.0015790   0.0001928   0.0028963   0.0003376  -0.0002683
    2  -0.0007331   0.0023583  -0.0013470  -0.0036094   0.0013660  -0.0003953
    3   0.0043290  -0.0057922   0.0003229   0.0042038   0.0002926  -0.0000944
            7           8           9          10          11          12
    1  -0.0022278  -0.0001783  -0.0009108  -0.0010330   0.0002508   0.0002114
    2   0.0031528  -0.0001027  -0.0007199   0.0003222   0.0001350   0.0006222
    3  -0.0017762  -0.0002356  -0.0001490  -0.0005110   0.0003029   0.0006633
           13          14          15          16          17          18
    1   0.0002701   0.0004981  -0.0001147   0.0008143  -0.0002893   0.0000395
    2   0.0005294   0.0000905  -0.0002766  -0.0001595  -0.0001955  -0.0000558
    3   0.0001297   0.0005375  -0.0009048   0.0002225   0.0000354   0.0000027
           19          20          21          22          23          24
    1   0.0000014   0.0001553  -0.0000063  -0.0001167  -0.0000692   0.0000609
    2  -0.0001353  -0.0001725   0.0002333  -0.0000245  -0.0000479   0.0000742
    3  -0.0000604  -0.0001742  -0.0000939  -0.0001386  -0.0000659  -0.0000497
           25          26          27          28          29          30
    1   0.0000977   0.0000969   0.0000301  -0.0003546   0.0004525   0.0004034
    2  -0.0000669  -0.0000442  -0.0000910  -0.0003797  -0.0001661  -0.0003016
    3  -0.0000842  -0.0000050  -0.0000573  -0.0002533  -0.0007918   0.0006711
           31          32
    1  -0.0007591   0.0002752
    2  -0.0003224   0.0004631
    3  -0.0001921  -0.0002841
 Max gradient component =       5.792E-03
 RMS gradient           =       1.197E-03
 Gradient time:  CPU 16.22 s  wall 0.68 s
 Geometry Optimization Parameters
   NAtoms,    NIC,     NZ,  NCons,   NDum,   NFix, NCnnct, MaxDiis
       32     251       0       2       0       0       0       0

 Cartesian Hessian Update
 Hessian Updated using BFGS Update


** CONSTRAINED OPTIMIZATION IN DELOCALIZED INTERNAL COORDINATES **
   Searching for a Minimum

   Optimization Cycle:   5

                       Coordinates (Angstroms)
     ATOM                X               Y               Z
[...]
 TransDip   0.137  0.215  0.159   -0.141  0.408  0.417   -0.128  0.040  0.038

 Mode:                76                     77                     78
 Frequency:      3048.68                3049.56                3055.25
 Force Cnst:      5.6371                 5.6416                 5.8643
 Red. Mass:       1.0294                 1.0296                 1.0663
 IR Active:          YES                    YES                    YES
 IR Intens:       33.136                 37.889                 15.509
 Raman Active:       YES                    YES                    YES
               X      Y      Z        X      Y      Z        X      Y      Z
 C          0.000 -0.000 -0.001   -0.000  0.000  0.001   -0.001  0.002  0.007
 C          0.001 -0.001  0.004   -0.000  0.000 -0.000   -0.011  0.010 -0.042
 C         -0.000  0.000  0.000    0.001 -0.002 -0.001    0.000 -0.000  0.000
 C          0.002 -0.000 -0.002    0.000 -0.000 -0.000    0.000 -0.000 -0.002
 O          0.000 -0.000  0.000   -0.002  0.001 -0.001   -0.000  0.000 -0.000
 O         -0.000 -0.000 -0.000    0.000  0.001  0.001   -0.000 -0.000 -0.000
 O         -0.002 -0.001  0.000   -0.000 -0.000  0.000   -0.000 -0.000  0.000
 O         -0.000  0.001  0.001   -0.000  0.000  0.000   -0.000  0.000  0.000
 C         -0.023 -0.032 -0.019   -0.003 -0.005 -0.003   -0.001 -0.002 -0.001
 C          0.005  0.000  0.004   -0.034 -0.002 -0.028    0.000  0.000  0.000
 C          0.000 -0.000  0.000   -0.000  0.000 -0.000   -0.001  0.002 -0.001
 C          0.000  0.000  0.000   -0.000 -0.000 -0.000   -0.009 -0.028 -0.020
 C         -0.001  0.001 -0.001   -0.001  0.000 -0.000    0.033 -0.017  0.024
 C          0.000  0.000 -0.000    0.000  0.000  0.000   -0.000 -0.000 -0.000
 O         -0.000 -0.000  0.000   -0.000  0.000  0.000    0.000  0.000  0.000
 H         -0.001  0.002  0.006    0.002 -0.003 -0.009    0.015 -0.027 -0.082
 H         -0.013  0.012 -0.050    0.001 -0.001  0.004    0.139 -0.120  0.512
 H         -0.249  0.577 -0.014   -0.036  0.083 -0.002   -0.012  0.029 -0.001
 H          0.019  0.019 -0.085   -0.134 -0.135  0.592    0.001  0.002 -0.007
 H         -0.002 -0.002  0.001    0.004  0.005 -0.002    0.211  0.249 -0.126
 H          0.001 -0.001 -0.004   -0.002  0.001  0.005   -0.114  0.078  0.364
 H          0.015  0.001 -0.008    0.005  0.001 -0.003   -0.345 -0.038  0.175
 H          0.002 -0.010  0.019    0.000 -0.002  0.004   -0.037  0.237 -0.447
 H          0.322 -0.047 -0.311    0.046 -0.007 -0.045    0.016 -0.002 -0.016
 H          0.216 -0.135  0.557    0.031 -0.019  0.081    0.011 -0.006  0.028
 H         -0.026  0.050  0.029    0.180 -0.345 -0.203   -0.002  0.004  0.002
 H         -0.054 -0.073  0.006    0.374  0.507 -0.039   -0.004 -0.006  0.000
 H         -0.001  0.002 -0.001    0.001 -0.002  0.001    0.009 -0.025  0.011
 C          0.001 -0.001 -0.000    0.001 -0.001 -0.000    0.003 -0.002 -0.001
 H         -0.016 -0.007  0.008   -0.009 -0.004  0.005   -0.040 -0.018  0.021
 H         -0.005  0.015 -0.012   -0.003  0.009 -0.007   -0.011  0.036 -0.028
 H          0.006  0.003  0.006    0.004  0.002  0.004    0.014  0.008  0.017
 TransDip  -0.114 -0.144  0.015   -0.183  0.042 -0.061    0.070 -0.099 -0.034

 Mode:                79                     80                     81
 Frequency:      3060.21                3067.28                3093.53
 Force Cnst:      5.9193                 5.8899                 6.2438
 Red. Mass:       1.0728                 1.0625                 1.1074
 IR Active:          YES                    YES                    YES
 IR Intens:       20.107                 37.835                  0.573
 Raman Active:       YES                    YES                    YES
               X      Y      Z        X      Y      Z        X      Y      Z
 C         -0.001  0.001  0.004   -0.001  0.002  0.007   -0.002  0.003  0.009
 C         -0.015  0.014 -0.058   -0.006  0.006 -0.025    0.002 -0.002  0.007
 C          0.000 -0.000  0.000    0.000  0.000  0.000   -0.000  0.000  0.000
 C          0.000 -0.000 -0.002    0.000  0.000 -0.001   -0.000  0.000  0.000
 O         -0.000  0.000 -0.000   -0.000  0.000 -0.000    0.000 -0.000 -0.000
 O         -0.000 -0.000 -0.000   -0.000 -0.000 -0.000    0.000 -0.000 -0.000
 O         -0.000 -0.000  0.000   -0.000 -0.000  0.000   -0.000 -0.000 -0.000
 O         -0.000  0.000  0.000   -0.000  0.000  0.000    0.000 -0.000 -0.000
 C         -0.001 -0.001 -0.001   -0.000 -0.000  0.000    0.000  0.000 -0.000
 C          0.000 -0.000  0.000    0.000  0.000  0.000    0.000 -0.000 -0.000
 C          0.001 -0.003  0.001   -0.001  0.004 -0.002    0.003 -0.006  0.002
 C          0.011  0.035  0.023   -0.008 -0.031 -0.023    0.038  0.024 -0.053
 C         -0.011  0.000  0.001   -0.044  0.018 -0.020   -0.032 -0.020  0.049
 C         -0.001 -0.000 -0.000   -0.000  0.001  0.000   -0.000 -0.000  0.000
 O          0.000 -0.000  0.000    0.000 -0.000  0.000   -0.000  0.000  0.000
 H          0.010 -0.015 -0.049    0.015 -0.027 -0.081    0.018 -0.036 -0.105
 H          0.189 -0.165  0.703    0.079 -0.069  0.296   -0.021  0.020 -0.084
 H         -0.009  0.022 -0.001   -0.001  0.001 -0.000    0.001 -0.001  0.000
 H          0.000  0.001 -0.002    0.002  0.002 -0.008   -0.000 -0.000  0.000
 H         -0.262 -0.311  0.157    0.222  0.264 -0.134   -0.324 -0.393  0.177
 H          0.135 -0.092 -0.428   -0.126  0.087  0.397   -0.133  0.110  0.453
 H          0.132  0.012 -0.062    0.469  0.049 -0.232    0.426  0.037 -0.195
 H          0.003 -0.025  0.051    0.037 -0.249  0.468   -0.045  0.204 -0.383
 H          0.012 -0.002 -0.012    0.000 -0.000 -0.001   -0.001  0.000  0.001
 H          0.008 -0.004  0.020    0.000  0.000 -0.000   -0.000 -0.000 -0.000
 H         -0.001  0.001  0.001   -0.002  0.004  0.002   -0.000  0.000  0.000
 H         -0.001 -0.001  0.000   -0.004 -0.006  0.000   -0.000 -0.000  0.000
 H         -0.011  0.031 -0.012    0.020 -0.052  0.023   -0.028  0.067 -0.033
 C         -0.003  0.002  0.001   -0.004  0.003  0.001    0.005  0.011 -0.009
 H          0.044  0.020 -0.024    0.050  0.022 -0.027   -0.090 -0.040  0.045
 H          0.013 -0.038  0.029    0.015 -0.044  0.034    0.035 -0.095  0.075
 H         -0.018 -0.009 -0.019   -0.020 -0.012 -0.024   -0.004 -0.000 -0.009
 TransDip  -0.014  0.142  0.012   -0.157 -0.004 -0.119    0.023  0.009 -0.001

 Mode:                82                     83                     84
 Frequency:      3102.33                3110.05                3116.34
 Force Cnst:      6.2489                 6.2491                 6.2694
 Red. Mass:       1.1020                 1.0966                 1.0957
 IR Active:          YES                    YES                    YES
 IR Intens:       12.440                 18.426                 37.016
 Raman Active:       YES                    YES                    YES
               X      Y      Z        X      Y      Z        X      Y      Z
 C         -0.001  0.002  0.007    0.010 -0.018 -0.054    0.010 -0.019 -0.055
 C          0.001 -0.000  0.000   -0.001  0.001 -0.002   -0.003  0.003 -0.009
 C         -0.000  0.000  0.000    0.001 -0.001 -0.001    0.001 -0.001 -0.001
 C          0.000 -0.000 -0.000    0.000  0.000 -0.000    0.000  0.000 -0.000
 O         -0.000 -0.000 -0.000   -0.000  0.000  0.000   -0.000  0.000  0.000
 O          0.000 -0.000 -0.000    0.000  0.000  0.000    0.000  0.000  0.000
 O         -0.000 -0.000  0.000   -0.000 -0.000  0.000   -0.000 -0.000  0.000
 O         -0.000  0.000  0.000   -0.000 -0.000 -0.000   -0.000  0.000  0.000
 C         -0.000  0.000  0.000   -0.000  0.000  0.000    0.000 -0.000  0.000
 C          0.000  0.000 -0.000   -0.000  0.000  0.000   -0.001 -0.001  0.001
 C          0.001 -0.002  0.001   -0.004  0.008 -0.004    0.001 -0.001 -0.001
 C          0.013  0.008 -0.018   -0.019 -0.013  0.025    0.026  0.014 -0.039
 C          0.003  0.002 -0.004   -0.030 -0.018  0.044    0.023  0.015 -0.035
 C         -0.001 -0.001  0.001   -0.001 -0.001  0.001    0.000  0.001 -0.001
 O         -0.000  0.000 -0.000    0.000  0.000 -0.000   -0.000  0.000  0.001
 H          0.016 -0.029 -0.087   -0.116  0.215  0.636   -0.121  0.220  0.654
 H         -0.002  0.002 -0.011    0.010 -0.008  0.027    0.031 -0.030  0.114
 H          0.001 -0.003 -0.000    0.001 -0.002  0.000   -0.002  0.004  0.000
 H         -0.000 -0.000  0.001   -0.000 -0.001  0.003    0.002  0.001 -0.005
 H         -0.110 -0.134  0.061    0.171  0.211 -0.095   -0.207 -0.253  0.114
 H         -0.045  0.037  0.151    0.060 -0.051 -0.199   -0.104  0.087  0.352
 H         -0.036 -0.002  0.019    0.403  0.034 -0.185   -0.307 -0.025  0.141
 H          0.004 -0.017  0.028   -0.040  0.182 -0.338    0.033 -0.150  0.278
 H          0.001 -0.000 -0.001    0.001 -0.000 -0.001    0.001 -0.000 -0.001
 H          0.000 -0.000  0.000   -0.000  0.000 -0.000   -0.001  0.001 -0.003
 H         -0.000  0.000  0.000    0.001 -0.003 -0.002    0.001 -0.003 -0.002
 H         -0.001 -0.002  0.000    0.002  0.003 -0.000    0.008  0.011 -0.001
 H         -0.012  0.029 -0.014    0.042 -0.098  0.048   -0.001  0.006 -0.003
 C         -0.028 -0.063  0.057   -0.005 -0.012  0.012    0.003  0.005 -0.006
 H          0.543  0.237 -0.276    0.114  0.049 -0.059   -0.053 -0.022  0.027
 H         -0.195  0.530 -0.414   -0.038  0.104 -0.081    0.018 -0.047  0.036
 H         -0.010 -0.017  0.011   -0.009 -0.007 -0.006    0.004  0.003  0.004
 TransDip  -0.047 -0.072  0.073   -0.093 -0.082  0.059    0.100  0.021 -0.166

 Mode:                85                     86                     87
 Frequency:      3122.16                3123.62                3128.50
 Force Cnst:      6.3580                 6.3654                 6.2861
 Red. Mass:       1.1070                 1.1073                 1.0901
 IR Active:          YES                    YES                    YES
 IR Intens:       19.018                 15.452                 23.507
 Raman Active:       YES                    YES                    YES
               X      Y      Z        X      Y      Z        X      Y      Z
 C          0.000 -0.000 -0.001   -0.000  0.000  0.000    0.001 -0.002 -0.007
 C         -0.000  0.000 -0.000    0.000 -0.000  0.000   -0.000  0.001 -0.002
 C         -0.000 -0.000  0.000    0.000  0.000  0.000    0.000 -0.001  0.000
 C          0.000  0.000 -0.000   -0.000 -0.000 -0.000    0.000  0.000  0.000
 O         -0.000 -0.000  0.000   -0.000 -0.000 -0.000   -0.000  0.000 -0.000
 O         -0.000 -0.000  0.000   -0.000 -0.000 -0.000   -0.000  0.000 -0.000
 O         -0.000 -0.000  0.000   -0.000  0.000 -0.000   -0.000 -0.000  0.000
 O         -0.000 -0.000  0.000   -0.000  0.000 -0.000   -0.000 -0.000 -0.000
 C         -0.003  0.004 -0.002    0.045 -0.066  0.051    0.000 -0.000  0.000
 C          0.046  0.060 -0.058    0.002  0.003 -0.003   -0.001 -0.001  0.001
 C          0.001 -0.001  0.001   -0.000  0.000 -0.000    0.030 -0.071  0.036
 C          0.000  0.000 -0.000   -0.000 -0.000  0.000   -0.008 -0.008  0.005
 C          0.000  0.000 -0.000   -0.000 -0.000  0.000   -0.003  0.000  0.001
 C         -0.000  0.000 -0.000    0.000 -0.000  0.000   -0.001  0.001 -0.000
 O          0.000 -0.000  0.000   -0.000  0.000 -0.000    0.000 -0.000 -0.000
 H         -0.002  0.004  0.011    0.000 -0.001 -0.003   -0.015  0.024  0.077
 H          0.001 -0.001  0.003   -0.000  0.001 -0.001    0.005 -0.004  0.017
 H          0.015 -0.035  0.000   -0.281  0.648 -0.001   -0.000  0.000  0.000
 H         -0.147 -0.135  0.675   -0.008 -0.007  0.037    0.002  0.002 -0.010
 H         -0.001 -0.001  0.001    0.000  0.000 -0.000    0.083  0.097 -0.043
 H         -0.001  0.001  0.005    0.000 -0.000 -0.001    0.007 -0.006 -0.016
 H         -0.003 -0.000  0.001    0.002  0.000 -0.001    0.031  0.003 -0.015
 H          0.001 -0.002  0.004   -0.000  0.001 -0.003   -0.000  0.000  0.001
 H          0.003  0.000 -0.004   -0.021 -0.009  0.038    0.001 -0.000 -0.001
 H          0.012 -0.007  0.033   -0.235  0.140 -0.642   -0.001  0.001 -0.003
 H          0.016 -0.001 -0.019    0.000  0.001 -0.000    0.000 -0.002 -0.001
 H         -0.411 -0.568  0.027   -0.021 -0.029  0.001    0.008  0.011 -0.000
 H         -0.006  0.014 -0.007    0.001 -0.001  0.001   -0.345  0.822 -0.414
 C          0.000  0.000 -0.000   -0.000 -0.000  0.000   -0.000 -0.000  0.000
 H         -0.002 -0.001  0.001    0.002  0.001 -0.001    0.003  0.001 -0.002
 H          0.001 -0.002  0.001   -0.001  0.002 -0.002   -0.000  0.001 -0.001
 H          0.000  0.000 -0.000   -0.000 -0.000  0.000   -0.002 -0.001 -0.002
 TransDip   0.064  0.089 -0.086    0.054 -0.096  0.061    0.034 -0.147  0.037

 Mode:                88                     89                     90
 Frequency:      3152.65                3157.03                3164.28
 Force Cnst:      6.4790                 6.4966                 6.4726
 Red. Mass:       1.1064                 1.1063                 1.0972
 IR Active:          YES                    YES                    YES
 IR Intens:       14.466                 14.497                  2.774
 Raman Active:       YES                    YES                    YES
               X      Y      Z        X      Y      Z        X      Y      Z
 C         -0.000  0.000  0.000    0.000  0.000 -0.000    0.000 -0.000 -0.000
 C          0.000 -0.000 -0.000   -0.000  0.000 -0.000    0.000 -0.000 -0.000
 C         -0.000  0.000  0.000   -0.001 -0.000 -0.001    0.000 -0.000 -0.000
 C          0.000  0.001  0.001   -0.000  0.000 -0.000    0.000 -0.000 -0.000
 O          0.000 -0.000 -0.000   -0.000  0.000  0.000   -0.000  0.000 -0.000
 O          0.000 -0.000 -0.000    0.000  0.000  0.000    0.000  0.000  0.000
 O          0.000 -0.000 -0.000    0.000 -0.000  0.000   -0.000  0.000  0.000
 O         -0.000 -0.000 -0.000    0.000 -0.000  0.000   -0.001 -0.000  0.000
 C         -0.052  0.023  0.076    0.000  0.000 -0.000    0.000 -0.000 -0.000
 C         -0.000 -0.000 -0.000    0.022 -0.072 -0.057    0.000 -0.000 -0.000
 C         -0.000  0.000 -0.000    0.000 -0.000  0.000    0.000 -0.000  0.000
 C          0.000  0.000  0.000   -0.000 -0.000 -0.000   -0.000  0.000 -0.000
 C          0.000 -0.000  0.000   -0.000  0.000 -0.000   -0.001  0.000  0.001
 C          0.000  0.000  0.000   -0.000  0.000  0.000   -0.001  0.000 -0.001
 O          0.000 -0.000 -0.000    0.000  0.000  0.000    0.000 -0.000  0.000
 H          0.000 -0.001 -0.002    0.000  0.000  0.002   -0.000  0.000  0.001
 H         -0.000 -0.000 -0.001    0.000 -0.000  0.000    0.000 -0.001  0.003
 H          0.109 -0.265  0.022    0.000 -0.001 -0.000   -0.001  0.001 -0.000
 H          0.000  0.000 -0.001   -0.068 -0.082  0.295   -0.000 -0.000  0.000
 H         -0.000 -0.000  0.000    0.000  0.000 -0.000    0.001  0.000 -0.000
 H          0.000 -0.000 -0.001   -0.000  0.000  0.001    0.000  0.000  0.001
 H         -0.000 -0.000  0.000    0.000  0.000 -0.000    0.011  0.002 -0.004
 H         -0.000  0.000 -0.000    0.000 -0.000  0.000   -0.001  0.002 -0.005
 H          0.634 -0.092 -0.617   -0.002  0.000  0.002   -0.003  0.000  0.003
 H         -0.131  0.083 -0.304    0.001 -0.000  0.002    0.001 -0.000  0.001
 H         -0.001  0.002  0.001   -0.368  0.705  0.415   -0.001  0.001  0.001
 H          0.002  0.003 -0.000    0.181  0.231 -0.031    0.000  0.000 -0.000
 H          0.001 -0.002  0.001   -0.000  0.001 -0.000   -0.001  0.001 -0.001
 C         -0.000 -0.000 -0.000    0.000  0.000  0.000   -0.067 -0.022 -0.057
 H         -0.000 -0.000  0.000   -0.000 -0.000  0.000    0.181  0.085 -0.106
 H          0.001 -0.002  0.001   -0.000  0.000 -0.000    0.043 -0.163  0.116
 H          0.003  0.002  0.003   -0.001 -0.001 -0.001    0.586  0.340  0.663
 TransDip  -0.083  0.016  0.088    0.047 -0.095 -0.059   -0.033 -0.008 -0.041

 STANDARD THERMODYNAMIC QUANTITIES AT   298.15 K  AND     1.00 ATM

   This Molecule has  0 Imaginary Frequencies
   Zero point vibrational energy:      166.290 kcal/mol

   Atom    1 Element C  Has Mass   12.00000
   Atom    2 Element C  Has Mass   12.00000
   Atom    3 Element C  Has Mass   12.00000
   Atom    4 Element C  Has Mass   12.00000
   Atom    5 Element O  Has Mass   15.99491
   Atom    6 Element O  Has Mass   15.99491
   Atom    7 Element O  Has Mass   15.99491
   Atom    8 Element O  Has Mass   15.99491
   Atom    9 Element C  Has Mass   12.00000
   Atom   10 Element C  Has Mass   12.00000
   Atom   11 Element C  Has Mass   12.00000
   Atom   12 Element C  Has Mass   12.00000
   Atom   13 Element C  Has Mass   12.00000
   Atom   14 Element C  Has Mass   12.00000
   Atom   15 Element O  Has Mass   15.99491
   Atom   16 Element H  Has Mass    1.00783
   Atom   17 Element H  Has Mass    1.00783
   Atom   18 Element H  Has Mass    1.00783
   Atom   19 Element H  Has Mass    1.00783
   Atom   20 Element H  Has Mass    1.00783
   Atom   21 Element H  Has Mass    1.00783
   Atom   22 Element H  Has Mass    1.00783
   Atom   23 Element H  Has Mass    1.00783
   Atom   24 Element H  Has Mass    1.00783
   Atom   25 Element H  Has Mass    1.00783
   Atom   26 Element H  Has Mass    1.00783
   Atom   27 Element H  Has Mass    1.00783
   Atom   28 Element H  Has Mass    1.00783
   Atom   29 Element C  Has Mass   12.00000
   Atom   30 Element H  Has Mass    1.00783
   Atom   31 Element H  Has Mass    1.00783
   Atom   32 Element H  Has Mass    1.00783
   Molecular Mass:   228.099830 amu
   Principal axes and moments of inertia in amu*Bohr^2:
                             1           2           3
    Eigenvalues --     2650.09439  3420.66523  5129.72561
          X               0.99998    -0.00295     0.00564
          Y               0.00294     0.99999     0.00238
          Z              -0.00565    -0.00237     0.99998
   Rotational Symmetry Number is   1
   The Molecule is an Asymmetric Top
   Translational Enthalpy:        0.889 kcal/mol
   Rotational Enthalpy:           0.889 kcal/mol
   Vibrational Enthalpy:        174.464 kcal/mol
   gas constant (RT):             0.592 kcal/mol
   Translational Entropy:        42.176  cal/mol.K
   Rotational Entropy:           32.208  cal/mol.K
   Vibrational Entropy:          53.905  cal/mol.K

   Total Enthalpy:              176.834 kcal/mol
   Total Entropy:               128.289  cal/mol.K
Archival summary:
1\1\nid04484\FREQ\ProcedureUnspecified\BasisUnspecified\51116\junteng\WedOct421:01:562017WedOct421:01:562017\0\\#,FREQ,ProcedureUnspecified,BasisUnspecified,\\0,1\O\C,1,1.42444\H,2,1.08821,1,110.138\C,1,1.44702,2,98.2278,3,179.907,0\C,4,1.51233,1,110.509,2,-177.254,0\H,5,1.08672,4,111.333,1,-57.9862,0\H,5,1.09266,4,108.998,1,63.0752,0\H,5,1.09304,4,110.331,1,-177.926,0\C,2,1.5438,1,103.65,3,-124.373,0\H,9,1.09102,2,110.252,1,85.3036,0\H,9,1.09183,2,112.497,1,-154.006,0\C,9,1.55402,2,100.764,1,-32.5561,0\H,12,1.09103,9,111.217,2,115.035,0\H,12,1.09183,9,113.516,2,-122.922,0\C,2,1.56025,1,102.287,3,121.981,0\H,15,1.08896,2,111.422,1,157.298,0\C,15,1.51332,2,108.674,1,-83.7268,0\O,17,1.20487,15,126.716,2,87.8586,0\O,17,1.3533,15,109.91,2,-89.1627,0\C,19,1.44022,17,115.819,15,176.541,0\H,20,1.08777,19,105.464,17,179.801,0\H,20,1.09105,19,110.494,17,-60.536,0\H,20,1.09108,19,110.38,17,60.299,0\C,15,1.56488,2,100.327,1,38.0346,0\H,24,1.09355,15,107.993,2,110.598,0\C,24,1.52173,15,114.357,2,-134.033,0\O,26,1.20195,24,128.091,15,125.973,0\O,26,1.3563,24,108.527,15,-58.0953,0\C,28,1.43904,26,115.712,24,175.002,0\H,29,1.08805,28,105.476,26,-178.814,0\H,29,1.09102,28,110.705,26,61.5423,0\H,29,1.09103,28,109.773,26,-59.4829,0\\\@

 Total job time:  10381.38s(wall), 58669.06s(cpu) 
 Wed Oct  4 21:01:57 2017

        *************************************************************
        *                                                           *
        *  Thank you very much for using Q-Chem.  Have a nice day.  *
        *                                                           *
        *************************************************************


