nid00960 10.128.3
Q-Chem Developer Version! Running on 10.128.3.*
                  Welcome to Q-Chem
     A Quantum Leap Into The Future Of Chemistry


 Q-Chem 5.0, Q-Chem, Inc., Pleasanton, CA (2017)

 Yihan Shao,  Zhengting Gan,  E. Epifanovsky,  A. T. B. Gilbert,  M. Wormit,  
 J. Kussmann,  A. W. Lange,  A. Behn,  Jia Deng,  Xintian Feng,  D. Ghosh,  
 M. Goldey,  P. R. Horn,  L. D. Jacobson,  I. Kaliman,  T. Kus,  A. Landau,  
 Jie Liu,  E. I. Proynov,  R. M. Richard,  R. P. Steele,  E. J. Sundstrom,  
 H. L. Woodcock III,  P. M. Zimmerman,  D. Zuev,  B. Albrecht,  E. Alguire,  
 S. A. Baeppler,  Z. Benda,  Y. A. Bernard,  E. J. Berquist,  K. B. Bravaya,  
 D. Casanova,  Chun-Min Chang,  Yunqing Chen,  A. Chien,  K. D. Closser,  
 M. P. Coons,  S. Dasgupta,  M. Diedenhofen,  Hainam Do,  R. G. Edgar,  
 Po-Tung Fang,  S. Fatehi,  Qingguo Feng,  Qinghui Ge,  A. Ghysels,  
 J. Gomes,  J. Gonthier,  A. Gunina,  M. W. D. Hanson-Heine,  
 P. H. P. Harbach,  A. W. Hauser,  J. E. Herr,  E. G. Hohenstein,  
 Z. C. Holden,  Kerwin Hui,  T.-C. Jagau,  Hyunjun Ji,  B. Kaduk,  
 K. Khistyaev,  Jaehoon Kim,  P. Klunzinger,  K. Koh,  D. Kosenkov,  
 T. Kowalczyk,  C. M. Krauter,  A. Kunitsa,  Ka Un Lao,  A. Laurent,  
 K. V. Lawler,  Joonho Lee,  D. Lefrancois,  S. Lehtola,  D. S. Levine,  
 Yi-Pei Li,  You-Sheng Lin,  Fenglai Liu,  E. Livshits,  A. Luenser,  
 P. Manohar,  E. Mansoor,  S. F. Manzer,  Shan-Ping Mao,  Yuezhi Mao,  
 N. Mardirossian,  A. V. Marenich,  L. A. Martinez-Martinez,  S. A. Maurer,  
 N. J. Mayhall,  S. C. McKenzie,  J.-M. Mewes,  A. F. Morrison,  K. Nanda,  
 T. S. Nguyen-Beck,  R. Olivares-Amaya,  J. A. Parkhill,  T. M. Perrine,  
 F. Plasser,  S. Prager,  A. Prociuk,  D. R. Rehn,  F. Rob,  M. Schneider,  
 N. Sergueev,  S. M. Sharada,  S. Sharma,  D. W. Small,  T. Stauch,  
 T. Stein,  Yu-Chuan Su,  A. J. W. Thom,  T. Tsuchimochi,  L. Vogt,  
 O. Vydrov,  M. A. Watson,  J. Wenzel,  M. de Wergifosse,  T. A. Wesolowski,  
 A. White,  J. Witte,  A. Yamada,  Jun Yang,  K. Yao,  S. Yeganeh,  
 S. R. Yost,  Zhi-Qiang You,  A. Zech,  Igor Ying Zhang,  Xing Zhang,  
 Yan Zhao,  Ying Zhu,  B. R. Brooks,  G. K. L. Chan,  C. J. Cramer,  
 M. S. Gordon,  W. J. Hehre,  A. Klamt,  M. W. Schmidt,  C. D. Sherrill,  
 D. G. Truhlar,  A. Aspuru-Guzik,  R. Baer,  A. T. Bell,  N. A. Besley,  
 Jeng-Da Chai,  A. Dreuw,  B. D. Dunietz,  T. R. Furlani,  Chao-Ping Hsu,  
 Yousung Jung,  Jing Kong,  D. S. Lambrecht,  WanZhen Liang,  C. Ochsenfeld,  
 V. A. Rassolov,  L. V. Slipchenko,  J. E. Subotnik,  T. Van Voorhis,  
 J. M. Herbert,  A. I. Krylov,  P. M. W. Gill,  M. Head-Gordon

 Contributors to earlier versions of Q-Chem not listed above: 
 R. D. Adamson,  B. Austin,  J. Baker,  G. J. O. Beran,  K. Brandhorst,  
 S. T. Brown,  E. F. C. Byrd,  A. K. Chakraborty,  C.-L. Cheng,  
 Siu Hung Chien,  D. M. Chipman,  D. L. Crittenden,  H. Dachsel,  
 R. A. DiStasio Jr.,  R. J. Doerksen,  A. D. Dutoi,  L. Fusti-Molnar,  
 W. A. Goddard III,  A. Golubeva-Zadorozhnaya,  S. R. Gwaltney,  G. Hawkins,  
 A. Heyden,  S. Hirata,  G. Kedziora,  F. J. Keil,  C. Kelley,  Jihan Kim,  
 R. A. King,  R. Z. Khaliullin,  P. P. Korambath,  W. Kurlancheek,  
 A. M. Lee,  M. S. Lee,  S. V. Levchenko,  Ching Yeh Lin,  D. Liotard,  
 R. C. Lochan,  I. Lotan,  P. E. Maslen,  N. Nair,  D. P. O'Neill,  
 D. Neuhauser,  E. Neuscamman,  C. M. Oana,  R. Olson,  B. Peters,  
 R. Peverati,  P. A. Pieniazek,  Y. M. Rhee,  J. Ritchie,  M. A. Rohrdanz,  
 E. Rosta,  N. J. Russ,  H. F. Schaefer III,  N. E. Schultz,  N. Shenvi,  
 A. C. Simmonett,  A. Sodt,  D. Stuck,  K. S. Thanthiriwatte,  V. Vanovschi,  
 Tao Wang,  A. Warshel,  C. F. Williams,  Q. Wu,  X. Xu,  W. Zhang

 Please cite Q-Chem as follows:
 Y. Shao et al., Mol. Phys. 113, 184-215 (2015)
 DOI: 10.1080/00268976.2014.952696

 Q-Chem 5.0.0 for Intel X86 EM64T Linux

 Parts of Q-Chem use Armadillo 5.200.1 (Boston Tea Smuggler).
 http://arma.sourceforge.net/

 Q-Chem begins on Wed Oct  4 18:04:27 2017  

Host: nid00960
0

     Scratch files written to /global/cscratch1/sd/junteng/scratch/17/opt_11n01+o.save//

Checking the input file for inconsistencies... 	...done.

--------------------------------------------------------------
User input:
--------------------------------------------------------------
$molecule
0  1
C    0.469  -2.369   0.246
C   -0.100  -2.666   1.497
C    0.820  -0.970  -0.128
C   -0.250  -1.617   2.525
O    1.710  -0.973  -1.154
O    0.353   0.027   0.395
O    0.994  -1.244   2.918
O   -1.315  -1.271   3.005
C    0.990  -0.231   3.923
C    2.104   0.331  -1.586
C    0.633  -3.406  -0.690
C    0.237  -4.708  -0.384
C   -0.335  -4.993   0.854
C   -0.510  -3.982   1.810
H    0.475   0.666   3.564
H    1.246   0.871  -1.997
H   -0.645  -6.015   1.070
H    0.524  -0.605   4.840
H    2.028   0.031   4.144
H    2.851   0.214  -2.376
H    2.557   0.890  -0.761
H    0.365  -5.501  -1.118
H    1.053  -3.209  -1.674
C   -1.128  -4.326   3.139
H   -2.093  -3.824   3.253
H   -0.462  -4.036   3.958
H   -1.304  -5.403   3.231
$end


$opt
CONSTRAINT
tors    2    1    3    5    168.6
tors    1    2    4    7    -67.3
ENDCONSTRAINT
$end

$rem
JOBTYPE                   OPT
METHOD                    B3LYP
DFT_D                     D3_OP
BASIS                     STO-3G
GEOM_OPT_MAX_CYCLES       500
SYMMETRY                  False
THRESH                    12
SCF_CONVERGENCE           8
MAX_SUB_FILE_NUM          128
MEM_STATIC                400
MEM_TOTAL                 4000
$end

--------------------------------------------------------------
 Adding empirical dispersion correction 
 ----------------------------------------------------------------
 Doing -D3(op) with
 s6 =   1.00000
 s8 =   0.78311
 a1 =   0.30000
 a2 =   4.25000
 n  =  10.00000
 -D3 energy without 3body term =     -0.0281099174 hartrees
 ----------------------------------------------------------------
             Standard Nuclear Orientation (Angstroms)
    I     Atom           X                Y                Z
 ----------------------------------------------------------------
    1      C       0.4276448099    -0.8415736243    -0.0588692333
    2      C      -0.8060843738    -0.1694900882    -0.1153229467
    3      C       1.7108516923    -0.1157460900    -0.2752773829
    4      C      -0.8586766063     1.2982395328    -0.2659510208
    5      O       2.7440659004    -0.8386462100     0.2293698371
    6      O       1.8151246914     0.9559824043    -0.8463747267
    7      O      -0.3462610882     1.8472865541     0.8641338013
    8      O      -1.3960448180     1.8760408395    -1.1942408759
    9      C      -0.3453536797     3.2741738433     0.8499267384
   10      C       4.0219453492    -0.2207266872     0.0636122501
   11      C       0.4347697576    -2.2356355990     0.1279500539
   12      C      -0.7617862935    -2.9413211965     0.2541144457
   13      C      -1.9807647890    -2.2699771573     0.1874690522
   14      C      -2.0220088454    -0.8801964136     0.0044651935
   15      H       0.2409006342     3.6507951732     0.0054285126
   16      H       4.2682047510    -0.1351699828    -0.9988007380
   17      H      -2.9041102496    -2.8410186193     0.2801232975
   18      H      -1.3703322120     3.6561049330     0.8116037554
   19      H       0.1193667722     3.6218521173     1.7762548225
   20      H       4.7702630880    -0.8580083794     0.5428727289
   21      H       4.0413877155     0.7607414868     0.5480265539
   22      H      -0.7435362013    -4.0202578732     0.3939414170
   23      H       1.3701157423    -2.7903072772     0.1584823066
   24      C      -3.3565948521    -0.1864117253    -0.0591272334
   25      H      -3.5169381685     0.2431909134    -1.0520807034
   26      H      -3.4152264497     0.6020259728     0.6980684692
   27      H      -4.1788259208    -0.8832659350     0.1350357913
 ----------------------------------------------------------------
 Molecular Point Group                 C1    NOp =  1
 Largest Abelian Subgroup              C1    NOp =  1
 Nuclear Repulsion Energy =  1009.1896279882 hartrees
 There are       55 alpha and       55 beta electrons
 Requested basis set is STO-3G
 There are 42 shells and 87 basis functions

 Total QAlloc Memory Limit   4000 MB
 Mega-Array Size       392 MB
 MEM_STATIC part       400 MB
 A cutoff of  1.0D-12 yielded    765 shell pairs
 There are      3696 function pairs
 
 -------------------------------------------------------
 OpenMP Integral Computing Module                       
 Release: version 1.0, May 2013, Q-Chem Inc. Pittsburgh 
 -------------------------------------------------------
 Integral Job Info:
 Integral job number is                      11
 Integral operator is                         1
 short-range coefficients                     0
 long-range coefficients              100000000
 Omega coefficients                           0
 if combine SR and LR in K                    0
 Integral screening is                        0
 Integral computing path is                   2
 max size of driver memory is            800000
 size of driver memory is                 45569
 size of scratch memory is               945100
 max col of scratch BK array                289
 max len of scratch array in speh3           22
 max len of scratch index in speh4            8
 max int batch size is                      520
 min int batch size is                       52
 fixed nKL is                                52
 max L of basis functions is                  1
 order of int derivative is                   0
 number of shells is                         42
 number of basis is                          87
 number of cartesian basis is                87
 number of contracted shell pairs           765
 number of primitive shell pairs           4169
 maxK2 (contraction) of shell pair            9
 max number of K2 of shell pair               1
 max number of CS2 of shell pair            112
 max number of PS2 of shell pair            564
 mem total for path MDJ                   25842
 -------------------------------------------------------
 Smallest overlap matrix eigenvalue = 1.75E-01

 Scale SEOQF with 1.000000e-01/1.000000e-01/1.000000e-01

 Standard Electronic Orientation quadrupole field applied
 Nucleus-field energy     =     0.0000000367 hartrees
 Guess from superposition of atomic densities
 Warning:  Energy on first SCF cycle will be non-variational
 A restricted hybrid HF-DFT SCF calculation will be
 performed using Pulay DIIS extrapolation
 Exchange:     0.2000 Hartree-Fock + 0.0800 Slater + 0.7200 B88
 Correlation:  0.1900 VWN1RPA + 0.8100 LYP
 Using SG-1 standard quadrature grid
 Dispersion:   Grimme D3
 SCF converges when DIIS error is below 1.0E-08
 -------------------------------------------------------
 OpenMP Integral computing Module                
 Release: version 1.0, May 2013, Q-Chem Inc. Pittsburgh 
 -------------------------------------------------------
 -------------------------------------------------------
 OpenMP BLAS3 based DFT computing Module                
 Release: version 1.0, May 2013, Q-Chem Inc. Pittsburgh 
 -------------------------------------------------------
 ---------------------------------------
  Cycle       Energy         DIIS Error
 ---------------------------------------
    1    -717.8019365690      1.20E-01
    2    -717.7010378448      1.35E-02
    3    -716.6909548447      3.55E-02
    4    -717.8989360821      4.93E-03
    5    -717.9220252155      1.83E-03
    6    -717.9252541391      6.40E-04
    7    -717.9256752319      2.14E-04
    8    -717.9257222207      5.99E-05
    9    -717.9257259474      2.45E-05
   10    -717.9257267525      3.51E-06
   11    -717.9257267669      1.14E-06
   12    -717.9257267684      2.20E-07
   13    -717.9257267684      1.01E-07
   14    -717.9257267684      3.15E-08
   15    -717.9257267684      8.11E-09 Convergence criterion met
 ---------------------------------------
 SCF time:  CPU 58.10 s  wall 2.47 s
 SCF   energy in the final basis set = -717.9257267684
 Total energy in the final basis set = -717.9257267684
 
 --------------------------------------------------------------
 
                    Orbital Energies (a.u.)
 --------------------------------------------------------------
 
 Alpha MOs
 -- Occupied --
-18.948 -18.944 -18.869 -18.865 -10.116 -10.112 -10.076 -10.069
-10.024 -10.023 -10.020 -10.016 -10.010 -10.010 -10.009  -1.048
 -1.041  -0.957  -0.953  -0.821  -0.742  -0.730  -0.692  -0.672
 -0.648  -0.595  -0.566  -0.516  -0.504  -0.472  -0.451  -0.440
 -0.433  -0.422  -0.418  -0.395  -0.390  -0.385  -0.372  -0.360
 -0.352  -0.343  -0.339  -0.322  -0.312  -0.300  -0.293  -0.253
 -0.246  -0.199  -0.190  -0.185  -0.179  -0.154  -0.147
 -- Virtual --
  0.052   0.076   0.129   0.152   0.251   0.281   0.311   0.352
  0.373   0.392   0.397   0.405   0.432   0.437   0.443   0.446
  0.453   0.456   0.457   0.459   0.467   0.471   0.483   0.493
  0.574   0.582   0.592   0.613   0.701   0.710   0.788   0.802
 --------------------------------------------------------------
 
          Ground-State Mulliken Net Atomic Charges

     Atom                 Charge (a.u.)
  ----------------------------------------
      1 C                    -0.018582
      2 C                    -0.016936
      3 C                     0.234617
      4 C                     0.240956
      5 O                    -0.184918
      6 O                    -0.230663
      7 O                    -0.182368
      8 O                    -0.224940
      9 C                    -0.127135
     10 C                    -0.125431
     11 C                    -0.074859
     12 C                    -0.080052
     13 C                    -0.077609
     14 C                     0.012689
     15 H                     0.097897
     16 H                     0.094244
     17 H                     0.080944
     18 H                     0.091047
     19 H                     0.094514
     20 H                     0.096685
     21 H                     0.094839
     22 H                     0.082779
     23 H                     0.091068
     24 C                    -0.232605
     25 H                     0.096456
     26 H                     0.085477
     27 H                     0.081886
  ----------------------------------------
  Sum of atomic charges =     0.000000

 -----------------------------------------------------------------
                    Cartesian Multipole Moments
 -----------------------------------------------------------------
    Charge (ESU x 10^10)
                -0.0000
    Dipole Moment (Debye)
         X       0.7982      Y      -0.5502      Z       1.4656
       Tot       1.7573
    Quadrupole Moments (Debye-Ang)
        XX     -68.8640     XY       1.0683     YY     -74.0057
        XZ      -1.4979     YZ       4.7411     ZZ     -83.2885
    Octopole Moments (Debye-Ang^2)
       XXX      41.5766    XXY      -2.7669    XYY       0.8577
       YYY      25.2011    XXZ       3.5524    XYZ      -0.6167
       YYZ      13.0115    XZZ       9.2585    YZZ       6.8348
       ZZZ      -3.0962
    Hexadecapole Moments (Debye-Ang^3)
      XXXX   -1834.3719   XXXY     -13.9583   XXYY    -592.7498
      XYYY      -6.0514   YYYY   -1421.5834   XXXZ       3.4567
      XXYZ       8.8362   XYYZ      -9.5961   YYYZ      16.3355
      XXZZ    -378.5399   XYZZ      -4.8522   YYZZ    -299.7002
      XZZZ      -0.3707   YZZZ       2.9732   ZZZZ    -200.2064
 -----------------------------------------------------------------
 Calculating analytic gradient of the SCF energy
 Gradient of SCF Energy
            1           2           3           4           5           6
    1   0.0155520   0.0002434   0.0288734   0.0033619  -0.0165587  -0.0090033
    2   0.0247654   0.0340006   0.0084045   0.0202584   0.0561898  -0.0668372
    3  -0.0054958  -0.0064167  -0.0034908   0.0083047  -0.0327235   0.0327088
            7           8           9          10          11          12
    1  -0.0295598   0.0255054  -0.0003711  -0.0164199  -0.0008983  -0.0031731
    2   0.0085524  -0.0425767  -0.0241214  -0.0093064   0.0067387   0.0046852
    3  -0.0553920   0.0504006  -0.0000651   0.0029537   0.0000270  -0.0002477
           13          14          15          16          17          18
    1   0.0029767  -0.0065585  -0.0025396  -0.0055135   0.0073378   0.0102249
    2   0.0029842   0.0110264  -0.0077578  -0.0067668   0.0014604  -0.0087175
    3  -0.0002257  -0.0001337   0.0102837   0.0117449  -0.0006387   0.0042723
           19          20          21          22          23          24
    1  -0.0046865  -0.0047308  -0.0030343  -0.0003432  -0.0094996   0.0157825
    2  -0.0008429   0.0080769  -0.0133174   0.0081641   0.0001020  -0.0050621
    3  -0.0097686  -0.0052144  -0.0006932  -0.0010887  -0.0004175  -0.0020005
           25          26          27
    1   0.0009587   0.0010130   0.0010607
    2  -0.0069575  -0.0076169   0.0044717
    3   0.0047262  -0.0008020  -0.0006072
 Max gradient component =       6.684E-02
 RMS gradient           =       1.774E-02
 Gradient time:  CPU 13.73 s  wall 0.59 s
 Geometry Optimization Parameters
   NAtoms,    NIC,     NZ,  NCons,   NDum,   NFix, NCnnct, MaxDiis
       27     173       0       2       0       0       0       0


** CONSTRAINED OPTIMIZATION IN DELOCALIZED INTERNAL COORDINATES **
   Searching for a Minimum

   Optimization Cycle:   1

                       Coordinates (Angstroms)
     ATOM                X               Y               Z
      1  C         0.4276448099   -0.8415736243   -0.0588692333
      2  C        -0.8060843738   -0.1694900882   -0.1153229467
      3  C         1.7108516923   -0.1157460900   -0.2752773829
      4  C        -0.8586766063    1.2982395328   -0.2659510208
      5  O         2.7440659004   -0.8386462100    0.2293698371
      6  O         1.8151246914    0.9559824043   -0.8463747267
      7  O        -0.3462610882    1.8472865541    0.8641338013
      8  O        -1.3960448180    1.8760408395   -1.1942408759
      9  C        -0.3453536797    3.2741738433    0.8499267384
     10  C         4.0219453492   -0.2207266872    0.0636122501
     11  C         0.4347697576   -2.2356355990    0.1279500539
     12  C        -0.7617862935   -2.9413211965    0.2541144457
     13  C        -1.9807647890   -2.2699771573    0.1874690522
     14  C        -2.0220088454   -0.8801964136    0.0044651935
     15  H         0.2409006342    3.6507951732    0.0054285126
     16  H         4.2682047510   -0.1351699828   -0.9988007380
     17  H        -2.9041102496   -2.8410186193    0.2801232975
     18  H        -1.3703322120    3.6561049330    0.8116037554
     19  H         0.1193667722    3.6218521173    1.7762548225
     20  H         4.7702630880   -0.8580083794    0.5428727289
     21  H         4.0413877155    0.7607414868    0.5480265539
     22  H        -0.7435362013   -4.0202578732    0.3939414170
     23  H         1.3701157423   -2.7903072772    0.1584823066
     24  C        -3.3565948521   -0.1864117253   -0.0591272334
     25  H        -3.5169381685    0.2431909134   -1.0520807034
     26  H        -3.4152264497    0.6020259728    0.6980684692
     27  H        -4.1788259208   -0.8832659350    0.1350357913
   Point Group: c1    Number of degrees of freedom:    75


   Energy is   -717.925726768

              Constraints and their Current Values
                                        Value     Constraint
   Dihedral:        2   1   3   5      160.883      168.600
   Dihedral:        1   2   4   7      -66.511      -67.300

 Attempting to Generate Delocalized Internal Coordinates

   Using Lagrange Multiplier Algorithm


 77 Hessian modes will be used to form the next step
  Hessian Eigenvalues:
    -0.977753   -0.977753    0.045000    0.045000    0.045000    0.045000
     0.045000    0.045000    0.045000    0.045000    0.045000    0.045001
     0.045002    0.045007    0.045012    0.045014    0.045073    0.045391
     0.094103    0.094233    0.113874    0.113890    0.116885    0.116948
     0.159973    0.159992    0.160000    0.160000    0.160000    0.160000
     0.160000    0.160000    0.160000    0.160000    0.160000    0.160000
     0.220831    0.234483    0.248788    0.249003    0.249488    0.249924
     0.249954    0.250000    0.250000    0.250000    0.250000    0.250000
     0.318081    0.334430    0.342234    0.342572    0.342726    0.342778
     0.342982    0.343623    0.343862    0.344084    0.344536    0.348583
     0.349879    0.350317    0.350597    0.408825    0.411215    0.413739
     0.414295    0.441969    0.449403    0.456885    0.464260    0.533072
     0.535839    0.958888    0.961246    1.022753    1.022753

 Minimum Search - Taking P-RFO Step
 Searching for Lamda that Maximizes Along the Constraint modes Only
 Value Taken    Lamda =   0.00943275
 Searching for Lamda that Minimizes Along All other modes
 Value Taken    Lamda =  -0.06121304
 Calculated Step too Large.  Step scaled by  0.837826
 Step Taken.  Stepsize is  0.300000

                             Maximum     Tolerance    Cnvgd?
         Gradient            0.134692       0.000300      NO
         Displacement        0.116411       0.001200      NO
         Energy change     *********       0.000001      NO


 New Cartesian Coordinates Obtained by Inverse Iteration

 Displacement from previous Coordinates is:  0.935835
 Adding empirical dispersion correction 
 ----------------------------------------------------------------
 Doing -D3(op) with
 s6 =   1.00000
 s8 =   0.78311
 a1 =   0.30000
 a2 =   4.25000
 n  =  10.00000
 -D3 energy without 3body term =     -0.0278635502 hartrees
 ----------------------------------------------------------------
             Standard Nuclear Orientation (Angstroms)
    I     Atom           X                Y                Z
 ----------------------------------------------------------------
    1      C       0.4105941273    -0.8956372757     0.0190703802
    2      C      -0.8292917825    -0.2119880399    -0.0690281622
    3      C       1.7102810196    -0.1160947707    -0.1848943930
    4      C      -0.8567963087     1.3148945469    -0.2389226508
    5      O       2.8067782481    -0.8921146915     0.2267191336
    6      O       1.7998229607     1.0057631581    -0.7320842591
    7      O      -0.3603178863     1.9097667611     0.9338603255
    8      O      -1.3401864717     1.9339995557    -1.2095406770
    9      C      -0.3377711515     3.3732880533     0.8581216831
   10      C       4.0855765466    -0.2166004286     0.0020890875
   11      C       0.4224457529    -2.3026846414     0.1782814519
   12      C      -0.7850452970    -3.0154863082     0.2662027950
   13      C      -2.0134868752    -2.3335078337     0.1783027970
   14      C      -2.0557264432    -0.9304385421     0.0077350141
   15      H       0.2864763211     3.7279883787     0.0142057325
   16      H       4.2753429700    -0.0467322001    -1.0766239123
   17      H      -2.9506090581    -2.9010225272     0.2385420073
   18      H      -1.3584599576     3.7934350628     0.7560375684
   19      H       0.1023252787     3.7401444647     1.8025544251
   20      H       4.8726200090    -0.8822228075     0.3994693675
   21      H       4.1370090576     0.7531870239     0.5358319470
   22      H      -0.7699985955    -4.1052711255     0.3908219350
   23      H       1.3763654830    -2.8422312496     0.2200060763
   24      C      -3.4058553768    -0.2109573631    -0.0938895588
   25      H      -3.5348343995     0.2421789604    -1.0896089533
   26      H      -3.4913602879     0.5830078659     0.6646936963
   27      H      -4.2338015273    -0.9159831148     0.0668813095
 ----------------------------------------------------------------
 Molecular Point Group                 C1    NOp =  1
 Largest Abelian Subgroup              C1    NOp =  1
 Nuclear Repulsion Energy =   990.7468767553 hartrees
 There are       55 alpha and       55 beta electrons
 Applying Cartesian multipole field
    Component          Value
    ---------          -----
     (2,0,0)        1.00000E-11
     (0,2,0)        2.00000E-11
     (0,0,2)       -3.00000E-11
 Nucleus-field energy     =     0.0000000386 hartrees
 Requested basis set is STO-3G
 There are 42 shells and 87 basis functions
 A cutoff of  1.0D-12 yielded    762 shell pairs
 There are      3690 function pairs
 Smallest overlap matrix eigenvalue = 1.81E-01
 Guess MOs from SCF MO coefficient file
 Reading MOs from coefficient file
 Reading MOs from coefficient file
 A restricted hybrid HF-DFT SCF calculation will be
 performed using Pulay DIIS extrapolation
 Exchange:     0.2000 Hartree-Fock + 0.0800 Slater + 0.7200 B88
 Correlation:  0.1900 VWN1RPA + 0.8100 LYP
 Using SG-1 standard quadrature grid
 Dispersion:   Grimme D3
 SCF converges when DIIS error is below 1.0E-08
 Geometry optimization detected.  Setting ReadMinima to 0
 Setting SaveMinima to 0
 -------------------------------------------------------
 OpenMP Integral computing Module                
 Release: version 1.0, May 2013, Q-Chem Inc. Pittsburgh 
 -------------------------------------------------------
 -------------------------------------------------------
 OpenMP BLAS3 based DFT computing Module                
 Release: version 1.0, May 2013, Q-Chem Inc. Pittsburgh 
 -------------------------------------------------------
 ---------------------------------------
  Cycle       Energy         DIIS Error
 ---------------------------------------
    1    -717.7806463158      7.46E-03
    2    -717.9446263520      2.48E-03
    3    -717.9315451305      4.29E-03
    4    -717.9511208995      6.72E-04
    5    -717.9516267440      1.95E-04
    6    -717.9516700429      5.03E-05
    7    -717.9516728891      2.00E-05
    8    -717.9516733220      1.05E-05
    9    -717.9516734359      2.84E-06
   10    -717.9516734458      5.43E-07
   11    -717.9516734463      1.78E-07
   12    -717.9516734463      5.08E-08
   13    -717.9516734463      2.18E-08
   14    -717.9516734463      6.26E-09 Convergence criterion met
 ---------------------------------------
 SCF time:  CPU 53.80 s  wall 2.27 s
 SCF   energy in the final basis set = -717.9516734463
 Total energy in the final basis set = -717.9516734463
 
 --------------------------------------------------------------
 
                    Orbital Energies (a.u.)
 --------------------------------------------------------------
 
 Alpha MOs
 -- Occupied --
-18.943 -18.934 -18.872 -18.865 -10.108 -10.102 -10.071 -10.063
-10.027 -10.027 -10.024 -10.018 -10.014 -10.014 -10.012  -1.022
 -1.012  -0.941  -0.933  -0.815  -0.735  -0.721  -0.678  -0.661
 -0.646  -0.588  -0.562  -0.509  -0.497  -0.461  -0.440  -0.427
 -0.419  -0.413  -0.408  -0.388  -0.382  -0.376  -0.370  -0.358
 -0.348  -0.341  -0.333  -0.313  -0.310  -0.296  -0.288  -0.255
 -0.246  -0.197  -0.191  -0.181  -0.172  -0.154  -0.145
 -- Virtual --
  0.046   0.072   0.119   0.140   0.239   0.255   0.280   0.329
  0.350   0.361   0.375   0.393   0.414   0.422   0.427   0.429
  0.430   0.437   0.439   0.443   0.448   0.458   0.466   0.478
  0.548   0.560   0.567   0.591   0.655   0.664   0.757   0.774
 --------------------------------------------------------------
 
          Ground-State Mulliken Net Atomic Charges

     Atom                 Charge (a.u.)
  ----------------------------------------
      1 C                    -0.017095
      2 C                    -0.014697
      3 C                     0.214751
      4 C                     0.220711
      5 O                    -0.172755
      6 O                    -0.214923
      7 O                    -0.172305
      8 O                    -0.213588
      9 C                    -0.124702
     10 C                    -0.123778
     11 C                    -0.074592
     12 C                    -0.077497
     13 C                    -0.076152
     14 C                     0.011208
     15 H                     0.094038
     16 H                     0.090591
     17 H                     0.080842
     18 H                     0.087151
     19 H                     0.090642
     20 H                     0.092808
     21 H                     0.091308
     22 H                     0.083142
     23 H                     0.091953
     24 C                    -0.226179
     25 H                     0.093638
     26 H                     0.084806
     27 H                     0.080676
  ----------------------------------------
  Sum of atomic charges =     0.000000

 -----------------------------------------------------------------
                    Cartesian Multipole Moments
 -----------------------------------------------------------------
    Charge (ESU x 10^10)
                 0.0000
    Dipole Moment (Debye)
         X       0.6605      Y      -0.6794      Z       1.2350
       Tot       1.5566
    Quadrupole Moments (Debye-Ang)
        XX     -68.4321     XY       1.3840     YY     -73.6486
        XZ      -1.5251     YZ       4.3583     ZZ     -83.3349
    Octopole Moments (Debye-Ang^2)
       XXX      41.2798    XXY      -0.8422    XYY      -0.0043
       YYY      27.0958    XXZ       0.0677    XYZ      -0.8726
       YYZ      11.5803    XZZ       9.8361    YZZ       7.8405
       ZZZ      -8.2643
    Hexadecapole Moments (Debye-Ang^3)
      XXXX   -1868.7932   XXXY     -18.2535   XXYY    -613.4283
      XYYY     -13.5092   YYYY   -1490.8884   XXXZ      -1.0814
      XXYZ       6.8905   XYYZ      -9.2839   YYYZ      16.9523
      XXZZ    -387.3201   XYZZ      -6.3694   YYZZ    -315.1679
      XZZZ      -2.5363   YZZZ       1.4175   ZZZZ    -198.8319
 -----------------------------------------------------------------
 Calculating analytic gradient of the SCF energy
 Gradient of SCF Energy
            1           2           3           4           5           6
    1   0.0025337   0.0004246   0.0107006   0.0084107  -0.0059536  -0.0013689
    2   0.0066721   0.0046558  -0.0046332   0.0025226   0.0189965  -0.0105026
    3  -0.0000497  -0.0046014   0.0090384   0.0130236  -0.0112508   0.0004197
            7           8           9          10          11          12
    1  -0.0107293   0.0010144   0.0011218  -0.0068235   0.0000341  -0.0001869
    2   0.0037023  -0.0062870  -0.0085542  -0.0060805   0.0017137  -0.0012539
    3  -0.0211129   0.0059381   0.0035892   0.0022270  -0.0006155   0.0004955
           13          14          15          16          17          18
    1  -0.0010541  -0.0024977   0.0006198   0.0005155   0.0014572   0.0009495
    2   0.0000392   0.0025646  -0.0002446  -0.0018423  -0.0003827  -0.0004507
    3   0.0002815   0.0000649   0.0019263   0.0011493  -0.0002377   0.0018744
           19          20          21          22          23          24
    1  -0.0005519   0.0007921   0.0004106   0.0001075  -0.0022426   0.0049021
    2   0.0021801   0.0021013  -0.0018743   0.0010643  -0.0015111  -0.0003481
    3  -0.0017440  -0.0008899   0.0009165  -0.0001048  -0.0005607  -0.0008564
           25          26          27
    1  -0.0010729  -0.0011061  -0.0004065
    2  -0.0020079  -0.0018245   0.0015851
    3   0.0003333   0.0006688   0.0000773
 Max gradient component =       2.111E-02
 RMS gradient           =       5.116E-03
 Gradient time:  CPU 12.42 s  wall 0.52 s
 Geometry Optimization Parameters
   NAtoms,    NIC,     NZ,  NCons,   NDum,   NFix, NCnnct, MaxDiis
       27     173       0       2       0       0       0       0

 Cartesian Hessian Update
 Hessian Updated using BFGS Update


** CONSTRAINED OPTIMIZATION IN DELOCALIZED INTERNAL COORDINATES **
   Searching for a Minimum

   Optimization Cycle:   2

                       Coordinates (Angstroms)
     ATOM                X               Y               Z
      1  C         0.4105941273   -0.8956372757    0.0190703802
      2  C        -0.8292917825   -0.2119880399   -0.0690281622
      3  C         1.7102810196   -0.1160947707   -0.1848943930
      4  C        -0.8567963087    1.3148945469   -0.2389226508
      5  O         2.8067782481   -0.8921146915    0.2267191336
      6  O         1.7998229607    1.0057631581   -0.7320842591
      7  O        -0.3603178863    1.9097667611    0.9338603255
      8  O        -1.3401864717    1.9339995557   -1.2095406770
      9  C        -0.3377711515    3.3732880533    0.8581216831
     10  C         4.0855765466   -0.2166004286    0.0020890875
     11  C         0.4224457529   -2.3026846414    0.1782814519
     12  C        -0.7850452970   -3.0154863082    0.2662027950
     13  C        -2.0134868752   -2.3335078337    0.1783027970
     14  C        -2.0557264432   -0.9304385421    0.0077350141
     15  H         0.2864763211    3.7279883787    0.0142057325
     16  H         4.2753429700   -0.0467322001   -1.0766239123
     17  H        -2.9506090581   -2.9010225272    0.2385420073
     18  H        -1.3584599576    3.7934350628    0.7560375684
     19  H         0.1023252787    3.7401444647    1.8025544251
     20  H         4.8726200090   -0.8822228075    0.3994693675
     21  H         4.1370090576    0.7531870239    0.5358319470
     22  H        -0.7699985955   -4.1052711255    0.3908219350
     23  H         1.3763654830   -2.8422312496    0.2200060763
     24  C        -3.4058553768   -0.2109573631   -0.0938895588
     25  H        -3.5348343995    0.2421789604   -1.0896089533
     26  H        -3.4913602879    0.5830078659    0.6646936963
     27  H        -4.2338015273   -0.9159831148    0.0668813095
   Point Group: c1    Number of degrees of freedom:    75


   Energy is   -717.951673446

              Constraints and their Current Values
                                        Value     Constraint
   Dihedral:        2   1   3   5      167.137      168.600
   Dihedral:        1   2   4   7      -67.156      -67.300
 Hessian Updated using BFGS Update

   Using Lagrange Multiplier Algorithm


 65 Hessian modes will be used to form the next step
  Hessian Eigenvalues:
    -0.977990   -0.977594    0.044722    0.045000    0.045000    0.045000
     0.045000    0.045000    0.045000    0.045002    0.045006    0.045008
     0.045055    0.045081    0.045524    0.094017    0.094224    0.113791
     0.113883    0.116885    0.116948    0.158475    0.159978    0.159992
     0.160000    0.162289    0.220793    0.233173    0.238543    0.248937
     0.249202    0.249760    0.249932    0.249960    0.250000    0.252912
     0.319385    0.336880    0.342234    0.342628    0.342732    0.342873
     0.343258    0.343784    0.343949    0.344332    0.345155    0.348601
     0.350307    0.350583    0.372277    0.407977    0.411396    0.413392
     0.423809    0.442455    0.451312    0.463548    0.469235    0.521804
     0.534818    0.959887    0.990587    1.022673    1.023846

 Minimum Search - Taking P-RFO Step
 Searching for Lamda that Maximizes Along the Constraint modes Only
 Value Taken    Lamda =   0.00022620
 Searching for Lamda that Minimizes Along All other modes
 Value Taken    Lamda =  -0.00572432
 Step Taken.  Stepsize is  0.191162

                             Maximum     Tolerance    Cnvgd?
         Gradient            0.025531       0.000300      NO
         Displacement        0.067617       0.001200      NO
         Energy change     -0.025947       0.000001      NO


 New Cartesian Coordinates Obtained by Inverse Iteration

 Displacement from previous Coordinates is:  0.754614
 Adding empirical dispersion correction 
 ----------------------------------------------------------------
 Doing -D3(op) with
 s6 =   1.00000
 s8 =   0.78311
 a1 =   0.30000
 a2 =   4.25000
 n  =  10.00000
 -D3 energy without 3body term =     -0.0279548110 hartrees
 ----------------------------------------------------------------
             Standard Nuclear Orientation (Angstroms)
    I     Atom           X                Y                Z
 ----------------------------------------------------------------
    1      C       0.3939889709    -0.9344006634     0.0416510807
    2      C      -0.8406011442    -0.2399198202    -0.0371441604
    3      C       1.6862620353    -0.1284644108    -0.1474048296
    4      C      -0.8408474320     1.2983956372    -0.2122837732
    5      O       2.8140198722    -0.9178723926     0.2209474887
    6      O       1.7588325214     1.0425421850    -0.6008921544
    7      O      -0.3186100316     1.8872161705     0.9765238508
    8      O      -1.2818773533     1.9439332946    -1.1927402634
    9      C      -0.2687752715     3.3528952526     0.8094601254
   10      C       4.0508193930    -0.1419196428     0.0045926402
   11      C       0.4084481408    -2.3430574147     0.1724899767
   12      C      -0.8059356083    -3.0492293496     0.2428255539
   13      C      -2.0327359312    -2.3571050083     0.1653981516
   14      C      -2.0697061304    -0.9505495417     0.0204625746
   15      H       0.3624348077     3.6420350855    -0.0563551115
   16      H       4.1964562546     0.1047297634    -1.0681281808
   17      H      -2.9782045215    -2.9151248749     0.2135992939
   18      H      -1.2818499272     3.7850008012     0.6693170140
   19      H       0.1762319753     3.7467582889     1.7423162387
   20      H       4.8780415930    -0.7898254864     0.3505538989
   21      H       4.0513555084     0.8038019789     0.5854757475
   22      H      -0.7996068688    -4.1427580769     0.3484839792
   23      H       1.3714439315    -2.8704789533     0.2117105654
   24      C      -3.4140309265    -0.2084340708    -0.0790834802
   25      H      -3.5178161255     0.2723732916    -1.0665095159
   26      H      -3.4859013971     0.5788522748     0.6895681163
   27      H      -4.2497399793    -0.9107134058     0.0599993391
 ----------------------------------------------------------------
 Molecular Point Group                 C1    NOp =  1
 Largest Abelian Subgroup              C1    NOp =  1
 Nuclear Repulsion Energy =   991.3618726956 hartrees
 There are       55 alpha and       55 beta electrons
 Applying Cartesian multipole field
    Component          Value
    ---------          -----
     (2,0,0)        1.00000E-11
     (0,2,0)        2.00000E-11
     (0,0,2)       -3.00000E-11
 Nucleus-field energy     =     0.0000000389 hartrees
 Requested basis set is STO-3G
 There are 42 shells and 87 basis functions
 A cutoff of  1.0D-12 yielded    761 shell pairs
 There are      3686 function pairs
 Smallest overlap matrix eigenvalue = 1.82E-01
 Guess MOs from SCF MO coefficient file
 Reading MOs from coefficient file
 Reading MOs from coefficient file
 A restricted hybrid HF-DFT SCF calculation will be
 performed using Pulay DIIS extrapolation
 Exchange:     0.2000 Hartree-Fock + 0.0800 Slater + 0.7200 B88
 Correlation:  0.1900 VWN1RPA + 0.8100 LYP
 Using SG-1 standard quadrature grid
 Dispersion:   Grimme D3
 SCF converges when DIIS error is below 1.0E-08
 Geometry optimization detected.  Setting ReadMinima to 0
 Setting SaveMinima to 0
 -------------------------------------------------------
 OpenMP Integral computing Module                
 Release: version 1.0, May 2013, Q-Chem Inc. Pittsburgh 
 -------------------------------------------------------
 -------------------------------------------------------
 OpenMP BLAS3 based DFT computing Module                
 Release: version 1.0, May 2013, Q-Chem Inc. Pittsburgh 
 -------------------------------------------------------
 ---------------------------------------
  Cycle       Energy         DIIS Error
 ---------------------------------------
    1    -717.8954777187      4.84E-03
    2    -717.9531549589      9.70E-04
    3    -717.9504565036      1.89E-03
    4    -717.9542263893      3.08E-04
    5    -717.9543290647      1.02E-04
    6    -717.9543405778      3.00E-05
    7    -717.9543416444      9.88E-06
    8    -717.9543417685      3.99E-06
    9    -717.9543417842      1.84E-06
   10    -717.9543417879      3.86E-07
   11    -717.9543417881      7.96E-08
   12    -717.9543417881      3.15E-08
   13    -717.9543417881      1.20E-08
   14    -717.9543417881      2.49E-09 Convergence criterion met
 ---------------------------------------
 SCF time:  CPU 51.77 s  wall 2.18 s
 SCF   energy in the final basis set = -717.9543417881
 Total energy in the final basis set = -717.9543417881
 
 --------------------------------------------------------------
 
                    Orbital Energies (a.u.)
 --------------------------------------------------------------
 
 Alpha MOs
 -- Occupied --
-18.942 -18.930 -18.875 -18.868 -10.105 -10.099 -10.068 -10.058
-10.027 -10.027 -10.024 -10.020 -10.016 -10.015 -10.014  -1.016
 -1.005  -0.938  -0.929  -0.816  -0.735  -0.720  -0.673  -0.656
 -0.645  -0.586  -0.562  -0.507  -0.496  -0.458  -0.439  -0.425
 -0.416  -0.413  -0.405  -0.387  -0.379  -0.373  -0.367  -0.358
 -0.349  -0.341  -0.332  -0.311  -0.308  -0.295  -0.286  -0.260
 -0.250  -0.197  -0.192  -0.182  -0.170  -0.155  -0.147
 -- Virtual --
  0.044   0.071   0.116   0.137   0.239   0.251   0.277   0.319
  0.339   0.351   0.369   0.389   0.412   0.419   0.423   0.428
  0.429   0.435   0.437   0.441   0.446   0.454   0.461   0.474
  0.543   0.557   0.564   0.587   0.646   0.656   0.754   0.772
 --------------------------------------------------------------
 
          Ground-State Mulliken Net Atomic Charges

     Atom                 Charge (a.u.)
  ----------------------------------------
      1 C                    -0.017347
      2 C                    -0.015190
      3 C                     0.209235
      4 C                     0.215323
      5 O                    -0.166773
      6 O                    -0.210606
      7 O                    -0.166938
      8 O                    -0.210572
      9 C                    -0.126613
     10 C                    -0.125975
     11 C                    -0.074845
     12 C                    -0.076671
     13 C                    -0.075778
     14 C                     0.010576
     15 H                     0.093955
     16 H                     0.089889
     17 H                     0.080934
     18 H                     0.086126
     19 H                     0.088249
     20 H                     0.091262
     21 H                     0.091217
     22 H                     0.083463
     23 H                     0.092871
     24 C                    -0.224728
     25 H                     0.093079
     26 H                     0.085021
     27 H                     0.080833
  ----------------------------------------
  Sum of atomic charges =     0.000000

 -----------------------------------------------------------------
                    Cartesian Multipole Moments
 -----------------------------------------------------------------
    Charge (ESU x 10^10)
                 0.0000
    Dipole Moment (Debye)
         X       0.5534      Y      -0.7418      Z       1.0182
       Tot       1.3759
    Quadrupole Moments (Debye-Ang)
        XX     -68.7974     XY       1.7804     YY     -74.1673
        XZ      -1.5374     YZ       3.8236     ZZ     -83.2073
    Octopole Moments (Debye-Ang^2)
       XXX      37.9959    XXY       1.3283    XYY      -0.2094
       YYY      26.3057    XXZ      -1.6118    XYZ      -0.9769
       YYZ       9.1639    XZZ      10.2664    YZZ       8.7243
       ZZZ     -11.6293
    Hexadecapole Moments (Debye-Ang^3)
      XXXX   -1864.0527   XXXY     -30.7947   XXYY    -612.4410
      XYYY     -30.2281   YYYY   -1511.0066   XXXZ      -4.9395
      XXYZ       4.8005   XYYZ      -9.1615   YYYZ      14.2706
      XXZZ    -382.3538   XYZZ     -11.6934   YYZZ    -317.1572
      XZZZ      -6.2479   YZZZ      -0.1858   ZZZZ    -190.1128
 -----------------------------------------------------------------
 Calculating analytic gradient of the SCF energy
 Gradient of SCF Energy
            1           2           3           4           5           6
    1  -0.0013789   0.0010811   0.0050644   0.0033716  -0.0009273  -0.0007412
    2  -0.0004741  -0.0011476  -0.0018730   0.0030544   0.0010968   0.0025433
    3   0.0033108  -0.0007190   0.0025989   0.0068382  -0.0012436  -0.0017075
            7           8           9          10          11          12
    1  -0.0000559  -0.0015569  -0.0010686  -0.0044350   0.0000668   0.0003487
    2  -0.0008680   0.0014746  -0.0044117  -0.0005779   0.0003861  -0.0002736
    3  -0.0026774  -0.0030762  -0.0019455   0.0002887  -0.0012725   0.0000097
           13          14          15          16          17          18
    1  -0.0005675  -0.0001400   0.0002333   0.0001671  -0.0002690  -0.0005648
    2   0.0004994   0.0004344   0.0004645   0.0001201   0.0000303   0.0002592
    3  -0.0000197  -0.0000246  -0.0004917  -0.0005826  -0.0001266   0.0000256
           19          20          21          22          23          24
    1   0.0003138   0.0000602   0.0003744   0.0001685   0.0002369   0.0008734
    2  -0.0006137  -0.0005313   0.0005628  -0.0001253  -0.0002843   0.0007786
    3   0.0005109   0.0003141   0.0002295   0.0001015  -0.0002640  -0.0002686
           25          26          27
    1  -0.0002598  -0.0001714  -0.0002239
    2  -0.0001673   0.0000470  -0.0004035
    3  -0.0002624   0.0002161   0.0002379
 Max gradient component =       6.838E-03
 RMS gradient           =       1.600E-03
 Gradient time:  CPU 12.71 s  wall 0.53 s
 Geometry Optimization Parameters
   NAtoms,    NIC,     NZ,  NCons,   NDum,   NFix, NCnnct, MaxDiis
       27     173       0       2       0       0       0       0

 Cartesian Hessian Update
 Hessian Updated using BFGS Update


** CONSTRAINED OPTIMIZATION IN DELOCALIZED INTERNAL COORDINATES **
   Searching for a Minimum

   Optimization Cycle:   3

                       Coordinates (Angstroms)
     ATOM                X               Y               Z
      1  C         0.3939889709   -0.9344006634    0.0416510807
      2  C        -0.8406011442   -0.2399198202   -0.0371441604
      3  C         1.6862620353   -0.1284644108   -0.1474048296
      4  C        -0.8408474320    1.2983956372   -0.2122837732
      5  O         2.8140198722   -0.9178723926    0.2209474887
      6  O         1.7588325214    1.0425421850   -0.6008921544
      7  O        -0.3186100316    1.8872161705    0.9765238508
      8  O        -1.2818773533    1.9439332946   -1.1927402634
      9  C        -0.2687752715    3.3528952526    0.8094601254
     10  C         4.0508193930   -0.1419196428    0.0045926402
     11  C         0.4084481408   -2.3430574147    0.1724899767
     12  C        -0.8059356083   -3.0492293496    0.2428255539
     13  C        -2.0327359312   -2.3571050083    0.1653981516
     14  C        -2.0697061304   -0.9505495417    0.0204625746
     15  H         0.3624348077    3.6420350855   -0.0563551115
     16  H         4.1964562546    0.1047297634   -1.0681281808
     17  H        -2.9782045215   -2.9151248749    0.2135992939
     18  H        -1.2818499272    3.7850008012    0.6693170140
     19  H         0.1762319753    3.7467582889    1.7423162387
     20  H         4.8780415930   -0.7898254864    0.3505538989
     21  H         4.0513555084    0.8038019789    0.5854757475
     22  H        -0.7996068688   -4.1427580769    0.3484839792
     23  H         1.3714439315   -2.8704789533    0.2117105654
     24  C        -3.4140309265   -0.2084340708   -0.0790834802
     25  H        -3.5178161255    0.2723732916   -1.0665095159
     26  H        -3.4859013971    0.5788522748    0.6895681163
     27  H        -4.2497399793   -0.9107134058    0.0599993391
   Point Group: c1    Number of degrees of freedom:    75


   Energy is   -717.954341788

              Constraints and their Current Values
                                        Value     Constraint
   Dihedral:        2   1   3   5      168.595      168.600
   Dihedral:        1   2   4   7      -67.299      -67.300
 Hessian Updated using BFGS Update

   Using Lagrange Multiplier Algorithm


 68 Hessian modes will be used to form the next step
  Hessian Eigenvalues:
    -0.977833   -0.975743    0.042581    0.045000    0.045000    0.045000
     0.045000    0.045000    0.045000    0.045002    0.045006    0.045008
     0.045020    0.045081    0.045469    0.047000    0.093433    0.094214
     0.113070    0.113889    0.116881    0.116951    0.158239    0.159985
     0.159995    0.160000    0.161262    0.163587    0.220943    0.234510
     0.241259    0.248937    0.249471    0.249817    0.249942    0.249991
     0.250000    0.251855    0.291056    0.319344    0.336822    0.342276
     0.342642    0.342725    0.342882    0.343311    0.343777    0.343973
     0.344420    0.345643    0.348688    0.350323    0.350727    0.375313
     0.393652    0.410281    0.413560    0.423302    0.442298    0.451680
     0.463896    0.469438    0.476604    0.535098    0.959716    1.002791
     1.022765    1.041256

 Minimum Search - Taking P-RFO Step
 Searching for Lamda that Maximizes Along the Constraint modes Only
 Value Taken    Lamda =   0.00001402
 Searching for Lamda that Minimizes Along All other modes
 Value Taken    Lamda =  -0.00055440
 Step Taken.  Stepsize is  0.059976

                             Maximum     Tolerance    Cnvgd?
         Gradient            0.005228       0.000300      NO
         Displacement        0.022478       0.001200      NO
         Energy change     -0.002668       0.000001      NO


 New Cartesian Coordinates Obtained by Inverse Iteration

 Displacement from previous Coordinates is:  0.167178
 Adding empirical dispersion correction 
 ----------------------------------------------------------------
 Doing -D3(op) with
 s6 =   1.00000
 s8 =   0.78311
 a1 =   0.30000
 a2 =   4.25000
 n  =  10.00000
 -D3 energy without 3body term =     -0.0279138874 hartrees
 ----------------------------------------------------------------
             Standard Nuclear Orientation (Angstroms)
    I     Atom           X                Y                Z
 ----------------------------------------------------------------
    1      C       0.3916053907    -0.9306356972     0.0333603110
    2      C      -0.8467636794    -0.2376605010    -0.0447231544
    3      C       1.6869501085    -0.1310702343    -0.1577929430
    4      C      -0.8574657412     1.3025686328    -0.2154998348
    5      O       2.8187310460    -0.9251504087     0.2121182740
    6      O       1.7681193183     1.0422793210    -0.6003554233
    7      O      -0.3375772531     1.8993675951     0.9799709493
    8      O      -1.2947699180     1.9489520856    -1.1949013409
    9      C      -0.2751785492     3.3716076679     0.8227742284
   10      C       4.0670978119    -0.1569998376    -0.0025340468
   11      C       0.4088550705    -2.3380578863     0.1779961345
   12      C      -0.8029062074    -3.0476858060     0.2501555472
   13      C      -2.0306289709    -2.3605021132     0.1654720104
   14      C      -2.0724270802    -0.9547375277     0.0151113066
   15      H       0.3665954113     3.6559675509    -0.0356657744
   16      H       4.2135009774     0.0904245597    -1.0740470205
   17      H      -2.9739837785    -2.9213637220     0.2172874468
   18      H      -1.2827936817     3.8099871605     0.6705363086
   19      H       0.1614992537     3.7623744808     1.7602732130
   20      H       4.8902610045    -0.8090162125     0.3433488661
   21      H       4.0689973380     0.7876719807     0.5783332171
   22      H      -0.7946999372    -4.1403034947     0.3635406425
   23      H       1.3741098637    -2.8598294014     0.2254552703
   24      C      -3.4195238992    -0.2169272970    -0.0856787452
   25      H      -3.5203431733     0.2641680429    -1.0730667494
   26      H      -3.4905262305     0.5723357227     0.6806958190
   27      H      -4.2546381390    -0.9190837490     0.0526696541
 ----------------------------------------------------------------
 Molecular Point Group                 C1    NOp =  1
 Largest Abelian Subgroup              C1    NOp =  1
 Nuclear Repulsion Energy =   989.2158345494 hartrees
 There are       55 alpha and       55 beta electrons
 Applying Cartesian multipole field
    Component          Value
    ---------          -----
     (2,0,0)        1.00000E-11
     (0,2,0)        2.00000E-11
     (0,0,2)       -3.00000E-11
 Nucleus-field energy     =     0.0000000391 hartrees
 Requested basis set is STO-3G
 There are 42 shells and 87 basis functions
 A cutoff of  1.0D-12 yielded    759 shell pairs
 There are      3678 function pairs
 Smallest overlap matrix eigenvalue = 1.82E-01
 Guess MOs from SCF MO coefficient file
 Reading MOs from coefficient file
 Reading MOs from coefficient file
 A restricted hybrid HF-DFT SCF calculation will be
 performed using Pulay DIIS extrapolation
 Exchange:     0.2000 Hartree-Fock + 0.0800 Slater + 0.7200 B88
 Correlation:  0.1900 VWN1RPA + 0.8100 LYP
 Using SG-1 standard quadrature grid
 Dispersion:   Grimme D3
 SCF converges when DIIS error is below 1.0E-08
 Geometry optimization detected.  Setting ReadMinima to 0
 Setting SaveMinima to 0
 -------------------------------------------------------
 OpenMP Integral computing Module                
 Release: version 1.0, May 2013, Q-Chem Inc. Pittsburgh 
 -------------------------------------------------------
 -------------------------------------------------------
 OpenMP BLAS3 based DFT computing Module                
 Release: version 1.0, May 2013, Q-Chem Inc. Pittsburgh 
 -------------------------------------------------------
 ---------------------------------------
  Cycle       Energy         DIIS Error
 ---------------------------------------
    1    -717.9489094880      9.67E-04
    2    -717.9545039116      2.89E-04
    3    -717.9541738503      6.17E-04
    4    -717.9545973214      5.26E-05
    5    -717.9546003248      1.44E-05
    6    -717.9546005396      4.93E-06
    7    -717.9546005652      2.56E-06
    8    -717.9546005719      9.29E-07
    9    -717.9546005728      3.62E-07
   10    -717.9546005730      5.66E-08
   11    -717.9546005730      1.79E-08
   12    -717.9546005730      8.10E-09 Convergence criterion met
 ---------------------------------------
 SCF time:  CPU 44.65 s  wall 1.88 s
 SCF   energy in the final basis set = -717.9546005730
 Total energy in the final basis set = -717.9546005730
 
 --------------------------------------------------------------
 
                    Orbital Energies (a.u.)
 --------------------------------------------------------------
 
 Alpha MOs
 -- Occupied --
-18.939 -18.928 -18.876 -18.870 -10.105 -10.099 -10.067 -10.057
-10.028 -10.028 -10.025 -10.020 -10.016 -10.016 -10.014  -1.013
 -1.002  -0.937  -0.929  -0.816  -0.735  -0.720  -0.672  -0.656
 -0.645  -0.587  -0.562  -0.507  -0.495  -0.457  -0.438  -0.425
 -0.414  -0.413  -0.404  -0.387  -0.379  -0.373  -0.367  -0.359
 -0.349  -0.342  -0.332  -0.312  -0.309  -0.295  -0.286  -0.259
 -0.249  -0.197  -0.192  -0.180  -0.169  -0.155  -0.147
 -- Virtual --
  0.043   0.070   0.115   0.137   0.238   0.247   0.272   0.318
  0.338   0.349   0.368   0.387   0.410   0.420   0.423   0.429
  0.430   0.436   0.437   0.441   0.447   0.453   0.461   0.474
  0.542   0.557   0.564   0.587   0.645   0.656   0.754   0.771
 --------------------------------------------------------------
 
          Ground-State Mulliken Net Atomic Charges

     Atom                 Charge (a.u.)
  ----------------------------------------
      1 C                    -0.016785
      2 C                    -0.014820
      3 C                     0.208174
      4 C                     0.214365
      5 O                    -0.167077
      6 O                    -0.210331
      7 O                    -0.166643
      8 O                    -0.209433
      9 C                    -0.128098
     10 C                    -0.127265
     11 C                    -0.074730
     12 C                    -0.076620
     13 C                    -0.075807
     14 C                     0.010842
     15 H                     0.093743
     16 H                     0.089815
     17 H                     0.081141
     18 H                     0.086211
     19 H                     0.088849
     20 H                     0.091541
     21 H                     0.091215
     22 H                     0.083686
     23 H                     0.093485
     24 C                    -0.224986
     25 H                     0.093084
     26 H                     0.085280
     27 H                     0.081164
  ----------------------------------------
  Sum of atomic charges =     0.000000

 -----------------------------------------------------------------
                    Cartesian Multipole Moments
 -----------------------------------------------------------------
    Charge (ESU x 10^10)
                 0.0000
    Dipole Moment (Debye)
         X       0.5167      Y      -0.7570      Z       1.0045
       Tot       1.3598
    Quadrupole Moments (Debye-Ang)
        XX     -68.7909     XY       1.7850     YY     -74.0691
        XZ      -1.5274     YZ       3.7971     ZZ     -83.1813
    Octopole Moments (Debye-Ang^2)
       XXX      38.6963    XXY       1.0227    XYY      -0.1845
       YYY      26.6835    XXZ      -1.5402    XYZ      -0.9808
       YYZ       9.6545    XZZ      10.4641    YZZ       8.7042
       ZZZ     -11.2459
    Hexadecapole Moments (Debye-Ang^3)
      XXXX   -1871.3737   XXXY     -28.5624   XXYY    -615.4920
      XYYY     -27.3278   YYYY   -1515.3042   XXXZ      -4.5403
      XXYZ       4.3331   XYYZ      -8.9898   YYYZ      13.8771
      XXZZ    -384.5437   XYZZ     -10.6593   YYZZ    -318.1950
      XZZZ      -5.6059   YZZZ      -0.8791   ZZZZ    -191.4797
 -----------------------------------------------------------------
 Calculating analytic gradient of the SCF energy
 Gradient of SCF Energy
            1           2           3           4           5           6
    1  -0.0005712  -0.0003773   0.0002106  -0.0002528  -0.0005440   0.0000384
    2  -0.0005578  -0.0008552  -0.0015578  -0.0005783   0.0003629   0.0011759
    3   0.0026304  -0.0013565   0.0002665   0.0017376  -0.0002711  -0.0006989
            7           8           9          10          11          12
    1   0.0003178  -0.0005255   0.0003876   0.0009990   0.0000447   0.0000600
    2   0.0000682   0.0006464   0.0008527  -0.0001805  -0.0001460   0.0002882
    3  -0.0009474  -0.0010815   0.0008148   0.0002844  -0.0006250  -0.0001428
           13          14          15          16          17          18
    1   0.0001059   0.0000645  -0.0002812  -0.0000362  -0.0000803   0.0000962
    2   0.0001225  -0.0001886  -0.0000385   0.0001336   0.0000279   0.0000169
    3  -0.0001021  -0.0001653  -0.0001109   0.0000436   0.0000154  -0.0000625
           19          20          21          22          23          24
    1   0.0001400   0.0002164  -0.0000200  -0.0000216   0.0000365  -0.0002543
    2   0.0002529   0.0000351   0.0000271  -0.0000381   0.0000157   0.0001466
    3   0.0000367   0.0000195  -0.0001808   0.0000172  -0.0000841  -0.0000051
           25          26          27
    1   0.0000680   0.0001684   0.0000104
    2  -0.0000390   0.0001156  -0.0001085
    3  -0.0000401  -0.0001122   0.0001201
 Max gradient component =       2.630E-03
 RMS gradient           =       5.582E-04
 Gradient time:  CPU 12.38 s  wall 0.52 s
 Geometry Optimization Parameters
   NAtoms,    NIC,     NZ,  NCons,   NDum,   NFix, NCnnct, MaxDiis
       27     173       0       2       0       0       0       0

 Cartesian Hessian Update
 Hessian Updated using BFGS Update


** CONSTRAINED OPTIMIZATION IN DELOCALIZED INTERNAL COORDINATES **
   Searching for a Minimum

   Optimization Cycle:   4

                       Coordinates (Angstroms)
     ATOM                X               Y               Z
      1  C         0.3916053907   -0.9306356972    0.0333603110
      2  C        -0.8467636794   -0.2376605010   -0.0447231544
      3  C         1.6869501085   -0.1310702343   -0.1577929430
      4  C        -0.8574657412    1.3025686328   -0.2154998348
      5  O         2.8187310460   -0.9251504087    0.2121182740
      6  O         1.7681193183    1.0422793210   -0.6003554233
      7  O        -0.3375772531    1.8993675951    0.9799709493
      8  O        -1.2947699180    1.9489520856   -1.1949013409
      9  C        -0.2751785492    3.3716076679    0.8227742284
     10  C         4.0670978119   -0.1569998376   -0.0025340468
     11  C         0.4088550705   -2.3380578863    0.1779961345
     12  C        -0.8029062074   -3.0476858060    0.2501555472
     13  C        -2.0306289709   -2.3605021132    0.1654720104
     14  C        -2.0724270802   -0.9547375277    0.0151113066
     15  H         0.3665954113    3.6559675509   -0.0356657744
     16  H         4.2135009774    0.0904245597   -1.0740470205
     17  H        -2.9739837785   -2.9213637220    0.2172874468
     18  H        -1.2827936817    3.8099871605    0.6705363086
     19  H         0.1614992537    3.7623744808    1.7602732130
     20  H         4.8902610045   -0.8090162125    0.3433488661
     21  H         4.0689973380    0.7876719807    0.5783332171
     22  H        -0.7946999372   -4.1403034947    0.3635406425
     23  H         1.3741098637   -2.8598294014    0.2254552703
     24  C        -3.4195238992   -0.2169272970   -0.0856787452
     25  H        -3.5203431733    0.2641680429   -1.0730667494
     26  H        -3.4905262305    0.5723357227    0.6806958190
     27  H        -4.2546381390   -0.9190837490    0.0526696541
   Point Group: c1    Number of degrees of freedom:    75


   Energy is   -717.954600573

              Constraints and their Current Values
                                        Value     Constraint
   Dihedral:        2   1   3   5      168.600      168.600
   Dihedral:        1   2   4   7      -67.300      -67.300
 Hessian Updated using BFGS Update

   Using Lagrange Multiplier Algorithm


 69 Hessian modes will be used to form the next step
  Hessian Eigenvalues:
    -0.975813    0.036773    0.045000    0.045000    0.045000    0.045000
     0.045000    0.045000    0.045002    0.045004    0.045007    0.045019
     0.045029    0.045442    0.045708    0.046625    0.093793    0.094217
     0.113881    0.114601    0.116873    0.116953    0.158435    0.159985
     0.159995    0.160000    0.160068    0.161285    0.163892    0.220752
     0.234449    0.238067    0.248950    0.249518    0.249768    0.249915
     0.249961    0.249997    0.250000    0.251535    0.299471    0.319167
     0.335977    0.342225    0.342646    0.342730    0.342885    0.343378
     0.343839    0.343938    0.344433    0.348020    0.349148    0.350388
     0.351517    0.369831    0.408053    0.411473    0.413687    0.441553
     0.451038    0.458735    0.464400    0.467559    0.519729    0.544429
     0.959819    0.982749    1.034048

 Minimum Search - Taking P-RFO Step
 Searching for Lamda that Maximizes Along the Constraint modes Only
 Value Taken    Lamda =   0.00000010
 Searching for Lamda that Minimizes Along All other modes
 Value Taken    Lamda =  -0.00005737
 Step Taken.  Stepsize is  0.027447

                             Maximum     Tolerance    Cnvgd?
         Gradient            0.001935       0.000300      NO
         Displacement        0.010923       0.001200      NO
         Energy change     -0.000259       0.000001      NO


 New Cartesian Coordinates Obtained by Inverse Iteration

 Displacement from previous Coordinates is:  0.056811
 Adding empirical dispersion correction 
 ----------------------------------------------------------------
 Doing -D3(op) with
 s6 =   1.00000
 s8 =   0.78311
 a1 =   0.30000
 a2 =   4.25000
 n  =  10.00000
 -D3 energy without 3body term =     -0.0279238339 hartrees
 ----------------------------------------------------------------
             Standard Nuclear Orientation (Angstroms)
    I     Atom           X                Y                Z
 ----------------------------------------------------------------
    1      C       0.3911594768    -0.9273609570     0.0278964450
    2      C      -0.8478271545    -0.2360314619    -0.0490398147
    3      C       1.6856684525    -0.1272868950    -0.1583264172
    4      C      -0.8589486227     1.3034112992    -0.2163602169
    5      O       2.8159727665    -0.9246604358     0.2109087638
    6      O       1.7693430395     1.0467099218    -0.5966567249
    7      O      -0.3391877322     1.8952196329     0.9821854026
    8      O      -1.2936423951     1.9533317726    -1.1935944477
    9      C      -0.2708948307     3.3665702430     0.8228591145
   10      C       4.0633369240    -0.1560150430    -0.0041860107
   11      C       0.4094879798    -2.3343616224     0.1791081961
   12      C      -0.8012474557    -3.0458617534     0.2528577409
   13      C      -2.0296541773    -2.3603926276     0.1652526097
   14      C      -2.0729278877    -0.9546046465     0.0127136387
   15      H       0.3791035644     3.6478591083    -0.0305453127
   16      H       4.2092586911     0.0921792019    -1.0755930561
   17      H      -2.9721497500    -2.9224133299     0.2187829435
   18      H      -1.2759412760     3.8085826415     0.6637463163
   19      H       0.1603741513     3.7557508410     1.7632410138
   20      H       4.8857775465    -0.8094144445     0.3401598026
   21      H       4.0660323832     0.7873584265     0.5789169658
   22      H      -0.7916412534    -4.1380288214     0.3701462372
   23      H       1.3752553054    -2.8546930179     0.2307758329
   24      C      -3.4212779285    -0.2186874054    -0.0871058451
   25      H      -3.5236302660     0.2632814687    -1.0739166759
   26      H      -3.4940101041     0.5697586612     0.6799888493
   27      H      -4.2556930911    -0.9215198451     0.0506188153
 ----------------------------------------------------------------
 Molecular Point Group                 C1    NOp =  1
 Largest Abelian Subgroup              C1    NOp =  1
 Nuclear Repulsion Energy =   989.5474584148 hartrees
 There are       55 alpha and       55 beta electrons
 Applying Cartesian multipole field
    Component          Value
    ---------          -----
     (2,0,0)        1.00000E-11
     (0,2,0)        2.00000E-11
     (0,0,2)       -3.00000E-11
 Nucleus-field energy     =     0.0000000391 hartrees
 Requested basis set is STO-3G
 There are 42 shells and 87 basis functions
 A cutoff of  1.0D-12 yielded    761 shell pairs
 There are      3686 function pairs
 Smallest overlap matrix eigenvalue = 1.82E-01
 Guess MOs from SCF MO coefficient file
 Reading MOs from coefficient file
 Reading MOs from coefficient file
 A restricted hybrid HF-DFT SCF calculation will be
 performed using Pulay DIIS extrapolation
 Exchange:     0.2000 Hartree-Fock + 0.0800 Slater + 0.7200 B88
 Correlation:  0.1900 VWN1RPA + 0.8100 LYP
 Using SG-1 standard quadrature grid
 Dispersion:   Grimme D3
 SCF converges when DIIS error is below 1.0E-08
 Geometry optimization detected.  Setting ReadMinima to 0
 Setting SaveMinima to 0
 -------------------------------------------------------
 OpenMP Integral computing Module                
 Release: version 1.0, May 2013, Q-Chem Inc. Pittsburgh 
 -------------------------------------------------------
 -------------------------------------------------------
 OpenMP BLAS3 based DFT computing Module                
 Release: version 1.0, May 2013, Q-Chem Inc. Pittsburgh 
 -------------------------------------------------------
 ---------------------------------------
  Cycle       Energy         DIIS Error
 ---------------------------------------
    1    -717.9553628462      3.36E-04
    2    -717.9546340597      3.33E-05
    3    -717.9546312777      6.10E-05
    4    -717.9546357802      1.30E-05
    5    -717.9546359086      6.83E-06
    6    -717.9546359593      1.54E-06
    7    -717.9546359622      3.90E-07
    8    -717.9546359623      2.14E-07
    9    -717.9546359623      9.52E-08
   10    -717.9546359624      1.65E-08
   11    -717.9546359624      6.38E-09 Convergence criterion met
 ---------------------------------------
 SCF time:  CPU 41.84 s  wall 1.77 s
 SCF   energy in the final basis set = -717.9546359624
 Total energy in the final basis set = -717.9546359624
 
 --------------------------------------------------------------
 
                    Orbital Energies (a.u.)
 --------------------------------------------------------------
 
 Alpha MOs
 -- Occupied --
-18.939 -18.928 -18.876 -18.870 -10.105 -10.099 -10.067 -10.057
-10.028 -10.028 -10.025 -10.020 -10.016 -10.016 -10.014  -1.013
 -1.003  -0.937  -0.929  -0.816  -0.735  -0.720  -0.672  -0.656
 -0.645  -0.587  -0.562  -0.507  -0.495  -0.457  -0.438  -0.425
 -0.414  -0.413  -0.404  -0.387  -0.379  -0.373  -0.367  -0.359
 -0.349  -0.342  -0.332  -0.312  -0.309  -0.295  -0.287  -0.259
 -0.250  -0.197  -0.192  -0.180  -0.169  -0.155  -0.148
 -- Virtual --
  0.043   0.070   0.115   0.138   0.238   0.248   0.273   0.318
  0.337   0.349   0.368   0.387   0.410   0.421   0.423   0.429
  0.430   0.436   0.437   0.441   0.447   0.453   0.462   0.474
  0.542   0.557   0.564   0.587   0.646   0.657   0.754   0.771
 --------------------------------------------------------------
 
          Ground-State Mulliken Net Atomic Charges

     Atom                 Charge (a.u.)
  ----------------------------------------
      1 C                    -0.016896
      2 C                    -0.014898
      3 C                     0.208378
      4 C                     0.214561
      5 O                    -0.167059
      6 O                    -0.210408
      7 O                    -0.166544
      8 O                    -0.209314
      9 C                    -0.128200
     10 C                    -0.127331
     11 C                    -0.074603
     12 C                    -0.076666
     13 C                    -0.075774
     14 C                     0.010902
     15 H                     0.093705
     16 H                     0.089763
     17 H                     0.081161
     18 H                     0.086263
     19 H                     0.088684
     20 H                     0.091412
     21 H                     0.091184
     22 H                     0.083726
     23 H                     0.093537
     24 C                    -0.225051
     25 H                     0.092975
     26 H                     0.085289
     27 H                     0.081205
  ----------------------------------------
  Sum of atomic charges =     0.000000

 -----------------------------------------------------------------
                    Cartesian Multipole Moments
 -----------------------------------------------------------------
    Charge (ESU x 10^10)
                 0.0000
    Dipole Moment (Debye)
         X       0.5089      Y      -0.7665      Z       0.9997
       Tot       1.3587
    Quadrupole Moments (Debye-Ang)
        XX     -68.8315     XY       1.7935     YY     -74.1323
        XZ      -1.5242     YZ       3.7695     ZZ     -83.1683
    Octopole Moments (Debye-Ang^2)
       XXX      38.4007    XXY       0.9565    XYY      -0.1462
       YYY      26.2235    XXZ      -1.5447    XYZ      -0.9760
       YYZ       9.7353    XZZ      10.4930    YZZ       8.6238
       ZZZ     -11.1620
    Hexadecapole Moments (Debye-Ang^3)
      XXXX   -1871.5231   XXXY     -29.2101   XXYY    -614.9189
      XYYY     -27.8034   YYYY   -1514.1459   XXXZ      -4.7110
      XXYZ       4.3048   XYYZ      -9.0171   YYYZ      13.6955
      XXZZ    -384.2674   XYZZ     -10.8431   YYZZ    -317.8445
      XZZZ      -5.6979   YZZZ      -0.6847   ZZZZ    -191.4713
 -----------------------------------------------------------------
 Calculating analytic gradient of the SCF energy
 Gradient of SCF Energy
            1           2           3           4           5           6
    1  -0.0000536   0.0001940   0.0000212  -0.0007093  -0.0001958   0.0000185
    2   0.0000328  -0.0001984  -0.0002415   0.0000256  -0.0002174   0.0002381
    3   0.0017522  -0.0011832   0.0000498   0.0007208   0.0000536  -0.0003301
            7           8           9          10          11          12
    1   0.0005897  -0.0001274   0.0001846   0.0004788   0.0000675  -0.0001296
    2  -0.0000859   0.0000720   0.0004348   0.0000944  -0.0000652  -0.0000144
    3  -0.0001039  -0.0002238   0.0001547  -0.0000083  -0.0003923  -0.0000613
           13          14          15          16          17          18
    1   0.0000920   0.0000195  -0.0001025   0.0000020   0.0000053  -0.0000260
    2  -0.0001794  -0.0000359   0.0000155   0.0000121  -0.0000053   0.0000352
    3  -0.0001572  -0.0001327  -0.0001136  -0.0000142   0.0000428   0.0000586
           19          20          21          22          23          24
    1   0.0000703  -0.0000764  -0.0000667  -0.0000484  -0.0000154  -0.0002751
    2  -0.0000166  -0.0000086   0.0000195  -0.0000306   0.0000120  -0.0000529
    3  -0.0000918  -0.0000023  -0.0000153   0.0000012   0.0000059   0.0000513
           25          26          27
    1  -0.0000114   0.0000586   0.0000357
    2  -0.0000416   0.0001139   0.0000878
    3  -0.0000306  -0.0001174   0.0000873
 Max gradient component =       1.752E-03
 RMS gradient           =       2.996E-04
 Gradient time:  CPU 12.90 s  wall 0.54 s
 Geometry Optimization Parameters
   NAtoms,    NIC,     NZ,  NCons,   NDum,   NFix, NCnnct, MaxDiis
       27     173       0       2       0       0       0       0

 Cartesian Hessian Update
 Hessian Updated using BFGS Update


** CONSTRAINED OPTIMIZATION IN DELOCALIZED INTERNAL COORDINATES **
   Searching for a Minimum

   Optimization Cycle:   5

                       Coordinates (Angstroms)
     ATOM                X               Y               Z
      1  C         0.3911594768   -0.9273609570    0.0278964450
      2  C        -0.8478271545   -0.2360314619   -0.0490398147
      3  C         1.6856684525   -0.1272868950   -0.1583264172
      4  C        -0.8589486227    1.3034112992   -0.2163602169
      5  O         2.8159727665   -0.9246604358    0.2109087638
      6  O         1.7693430395    1.0467099218   -0.5966567249
      7  O        -0.3391877322    1.8952196329    0.9821854026
      8  O        -1.2936423951    1.9533317726   -1.1935944477
      9  C        -0.2708948307    3.3665702430    0.8228591145
     10  C         4.0633369240   -0.1560150430   -0.0041860107
     11  C         0.4094879798   -2.3343616224    0.1791081961
     12  C        -0.8012474557   -3.0458617534    0.2528577409
     13  C        -2.0296541773   -2.3603926276    0.1652526097
     14  C        -2.0729278877   -0.9546046465    0.0127136387
     15  H         0.3791035644    3.6478591083   -0.0305453127
     16  H         4.2092586911    0.0921792019   -1.0755930561
     17  H        -2.9721497500   -2.9224133299    0.2187829435
     18  H        -1.2759412760    3.8085826415    0.6637463163
     19  H         0.1603741513    3.7557508410    1.7632410138
     20  H         4.8857775465   -0.8094144445    0.3401598026
     21  H         4.0660323832    0.7873584265    0.5789169658
     22  H        -0.7916412534   -4.1380288214    0.3701462372
     23  H         1.3752553054   -2.8546930179    0.2307758329
     24  C        -3.4212779285   -0.2186874054   -0.0871058451
     25  H        -3.5236302660    0.2632814687   -1.0739166759
     26  H        -3.4940101041    0.5697586612    0.6799888493
     27  H        -4.2556930911   -0.9215198451    0.0506188153
   Point Group: c1    Number of degrees of freedom:    75


   Energy is   -717.954635962

              Constraints and their Current Values
                                        Value     Constraint
   Dihedral:        2   1   3   5      168.600      168.600
   Dihedral:        1   2   4   7      -67.300      -67.300
 Hessian Updated using BFGS Update

 64 Hessian modes will be used to form the next step
  Hessian Eigenvalues:
     0.020335    0.044277    0.045000    0.045000    0.045001    0.045002
     0.045006    0.045013    0.045020    0.045358    0.046053    0.047270
     0.093444    0.094214    0.113882    0.114889    0.116889    0.116957
     0.158308    0.159848    0.159988    0.159995    0.161050    0.162569
     0.164594    0.221670    0.234365    0.239387    0.244750    0.249107
     0.249528    0.249876    0.249988    0.250000    0.251258    0.255406
     0.310643    0.320642    0.337081    0.342486    0.342657    0.342733
     0.342881    0.343458    0.343840    0.344222    0.344774    0.348484
     0.349615    0.350498    0.353121    0.370565    0.410140    0.412308
     0.413576    0.439848    0.451469    0.460219    0.466267    0.471626
     0.507640    0.536496    0.959529    0.991684

 Minimum Search - Taking Simple RFO Step
 Searching for Lamda that Minimizes Along All modes
 Value Taken    Lamda =  -0.00003427
 Step Taken.  Stepsize is  0.038560

                             Maximum     Tolerance    Cnvgd?
         Gradient           0.000562      0.000300      NO
         Displacement       0.018213      0.001200      NO
         Energy change     -0.000035      0.000001      NO


 New Cartesian Coordinates Obtained by Inverse Iteration

 Displacement from previous Coordinates is:  0.083506
 Adding empirical dispersion correction 
 ----------------------------------------------------------------
 Doing -D3(op) with
 s6 =   1.00000
 s8 =   0.78311
 a1 =   0.30000
 a2 =   4.25000
 n  =  10.00000
 -D3 energy without 3body term =     -0.0279413964 hartrees
 ----------------------------------------------------------------
             Standard Nuclear Orientation (Angstroms)
    I     Atom           X                Y                Z
 ----------------------------------------------------------------
    1      C       0.3894667211    -0.9251710957     0.0194024675
    2      C      -0.8502522261    -0.2357471007    -0.0563409978
    3      C       1.6828336390    -0.1232183830    -0.1612002926
    4      C      -0.8613813174     1.3029747317    -0.2201557559
    5      O       2.8130264290    -0.9221218276     0.2067355583
    6      O       1.7672915070     1.0530549245    -0.5916491636
    7      O      -0.3416027687     1.8887090151     0.9816212814
    8      O      -1.2929799561     1.9574675145    -1.1950485987
    9      C      -0.2636474958     3.3591783899     0.8238371597
   10      C       4.0597855395    -0.1526043317    -0.0051096192
   11      C       0.4093108368    -2.3311614330     0.1796141918
   12      C      -0.8004597217    -3.0437164171     0.2572458991
   13      C      -2.0298438964    -2.3600607124     0.1666404035
   14      C      -2.0744958721    -0.9549710165     0.0096492829
   15      H       0.3993619556     3.6370719241    -0.0205967434
   16      H       4.2059104351     0.0992802635    -1.0755722633
   17      H      -2.9717997156    -2.9226749203     0.2233488000
   18      H      -1.2640614645     3.8069233755     0.6525671391
   19      H       0.1579090207     3.7454351320     1.7699124999
   20      H       4.8824920770    -0.8072134137     0.3366029129
   21      H       4.0631078226     0.7883436231     0.5818288296
   22      H      -0.7891910088    -4.1351477797     0.3804739399
   23      H       1.3756966236    -2.8499431475     0.2356195898
   24      C      -3.4233204766    -0.2205021531    -0.0885941224
   25      H      -3.5272747583     0.2628337553    -1.0745709396
   26      H      -3.4969861285     0.5663667296     0.6801003145
   27      H      -4.2567994447    -0.9247047349     0.0484723926
 ----------------------------------------------------------------
 Molecular Point Group                 C1    NOp =  1
 Largest Abelian Subgroup              C1    NOp =  1
 Nuclear Repulsion Energy =   989.9709883955 hartrees
 There are       55 alpha and       55 beta electrons
 Applying Cartesian multipole field
    Component          Value
    ---------          -----
     (2,0,0)        1.00000E-11
     (0,2,0)        2.00000E-11
     (0,0,2)       -3.00000E-11
 Nucleus-field energy     =     0.0000000390 hartrees
 Requested basis set is STO-3G
[...]
 IR Intens:       10.581                  3.182                 10.107
 Raman Active:       YES                    YES                    YES
               X      Y      Z        X      Y      Z        X      Y      Z
 C         -0.004 -0.008  0.001    0.074  0.006 -0.000    0.225  0.010  0.000
 C          0.003  0.002 -0.000   -0.033  0.057 -0.007   -0.310 -0.054 -0.000
 C          0.012 -0.001  0.001   -0.026 -0.002  0.000   -0.036 -0.024  0.007
 C         -0.001 -0.001 -0.000    0.005 -0.018 -0.008    0.030  0.011 -0.019
 O         -0.002 -0.017  0.005    0.002 -0.000  0.000   -0.005  0.002 -0.001
 O         -0.004  0.006 -0.002    0.003 -0.001  0.000    0.005  0.012 -0.004
 O         -0.000  0.001 -0.001   -0.001  0.004  0.002   -0.003  0.003  0.003
 O          0.000  0.000  0.001    0.001 -0.001  0.003   -0.003 -0.008  0.013
 C         -0.001  0.002 -0.005   -0.002  0.006 -0.001   -0.001  0.000  0.001
 C         -0.007 -0.054  0.015    0.006  0.005 -0.001    0.003  0.001  0.000
 C         -0.003  0.002 -0.000   -0.030 -0.064  0.008   -0.237 -0.175  0.020
 C          0.008  0.003 -0.000   -0.028  0.038 -0.005    0.401  0.073 -0.005
 C         -0.000 -0.006  0.001    0.043 -0.010  0.001   -0.210  0.022 -0.005
 C         -0.003  0.002  0.000   -0.030 -0.068  0.012    0.227  0.126 -0.011
 H          0.048 -0.022  0.044    0.030 -0.030  0.020   -0.004 -0.015 -0.010
 H          0.090  0.624  0.258   -0.028 -0.032 -0.017   -0.002 -0.010 -0.005
 H         -0.017  0.017 -0.003   -0.065  0.147 -0.019   -0.072 -0.198  0.023
 H         -0.031 -0.032  0.047   -0.023 -0.045  0.010    0.000  0.010  0.001
 H          0.007  0.027 -0.013    0.019 -0.012  0.003   -0.009 -0.006  0.004
 H         -0.135 -0.165  0.030   -0.014 -0.018  0.002    0.009  0.005 -0.002
 H          0.121  0.421 -0.528   -0.032 -0.019  0.027   -0.003 -0.006  0.008
 H         -0.027  0.001 -0.000    0.091  0.057 -0.005   -0.529 -0.003 -0.004
 H         -0.004  0.004 -0.000    0.102  0.225 -0.026   -0.023  0.337 -0.039
 C         -0.002 -0.002  0.002   -0.032 -0.018  0.013   -0.028 -0.011  0.001
 H         -0.003  0.024  0.011    0.042  0.497  0.187    0.014 -0.065 -0.023
 H          0.020  0.026 -0.027    0.100  0.378 -0.426    0.064 -0.041  0.050
 H          0.019 -0.025 -0.013    0.334 -0.365  0.017   -0.130  0.084 -0.039
 TransDip  -0.079  0.066 -0.014   -0.007  0.047 -0.032   -0.073 -0.071 -0.002

 Mode:                61                     62                     63
 Frequency:      1629.97                1766.55                1787.60
 Force Cnst:      9.0437                21.5784                22.3244
 Red. Mass:       5.7774                11.7359                11.8574
 IR Active:          YES                    YES                    YES
 IR Intens:        9.929                249.964                272.643
 Raman Active:       YES                    YES                    YES
               X      Y      Z        X      Y      Z        X      Y      Z
 C          0.091 -0.259  0.034   -0.008 -0.115  0.019    0.011  0.004 -0.001
 C         -0.080  0.152 -0.018   -0.026  0.040 -0.007   -0.030  0.078 -0.028
 C         -0.018 -0.034  0.012    0.033  0.759 -0.193   -0.010 -0.055  0.014
 C          0.001 -0.020 -0.032    0.029 -0.013  0.048    0.230 -0.383  0.645
 O         -0.003 -0.004  0.001    0.011 -0.051  0.014    0.001  0.004 -0.001
 O          0.008  0.044 -0.012   -0.004 -0.477  0.125    0.001  0.036 -0.012
 O          0.000  0.004  0.004   -0.006 -0.004 -0.006   -0.015  0.008 -0.049
 O          0.005 -0.008  0.020   -0.013  0.010 -0.029   -0.149  0.226 -0.431
 C         -0.001  0.004  0.001    0.001 -0.002 -0.001    0.004 -0.029  0.009
 C         -0.001  0.001 -0.000    0.024  0.023 -0.006   -0.002 -0.002  0.001
 C          0.061  0.281 -0.034   -0.026  0.015 -0.001    0.001 -0.005  0.003
 C          0.058 -0.161  0.021    0.038 -0.003  0.000    0.007 -0.002 -0.000
 C         -0.176  0.308 -0.042   -0.021  0.017 -0.002   -0.013  0.007  0.001
 C          0.059 -0.273  0.036    0.017 -0.015  0.002    0.016 -0.013  0.007
 H          0.001 -0.014 -0.007    0.016 -0.020  0.009   -0.013  0.111  0.090
 H          0.013  0.001  0.001   -0.144  0.027 -0.041    0.011 -0.002  0.004
 H          0.335 -0.400  0.061    0.010 -0.028  0.005    0.017 -0.030  0.003
 H         -0.004 -0.011 -0.008   -0.003 -0.000  0.024    0.041  0.107  0.093
 H          0.003 -0.014  0.008   -0.010  0.013 -0.006   -0.025  0.215 -0.068
 H          0.004  0.005 -0.002   -0.173 -0.171  0.038    0.012  0.012 -0.004
 H          0.009 -0.001 -0.000   -0.145  0.039  0.010    0.010 -0.002 -0.002
 H         -0.026 -0.193  0.027   -0.041 -0.011  0.001   -0.003 -0.004 -0.003
 H         -0.228 -0.338  0.037   -0.052 -0.011  0.002   -0.001 -0.009  0.005
 C         -0.018  0.022 -0.003   -0.003  0.002 -0.000    0.003  0.007 -0.001
 H         -0.045  0.141  0.049    0.002  0.006 -0.000   -0.071 -0.054 -0.004
 H         -0.088  0.101 -0.109    0.008  0.009 -0.003    0.013 -0.020  0.027
 H          0.126 -0.111  0.036    0.012 -0.013 -0.001   -0.029  0.020 -0.046
 TransDip   0.056 -0.082 -0.016   -0.001  0.499 -0.086    0.156 -0.176  0.474

 Mode:                64                     65                     66
 Frequency:      3035.21                3050.15                3050.38
 Force Cnst:      5.6247                 5.6427                 5.6435
 Red. Mass:       1.0363                 1.0294                 1.0294
 IR Active:          YES                    YES                    YES
 IR Intens:       18.045                 29.949                 43.586
 Raman Active:       YES                    YES                    YES
               X      Y      Z        X      Y      Z        X      Y      Z
 C         -0.000  0.000 -0.000    0.000 -0.000  0.000    0.000 -0.000  0.000
 C          0.001  0.000 -0.000   -0.000 -0.000 -0.000   -0.000  0.000  0.000
 C          0.000  0.000 -0.000   -0.002  0.002 -0.000   -0.001  0.001 -0.000
 C         -0.000  0.000 -0.000    0.000  0.001  0.002   -0.000 -0.001 -0.002
 O         -0.000 -0.000 -0.000    0.002  0.000 -0.000    0.002  0.000 -0.000
 O         -0.000 -0.000  0.000    0.000 -0.001  0.000   -0.000 -0.001  0.000
 O          0.000 -0.000 -0.000   -0.000 -0.002 -0.001    0.000  0.002  0.001
 O          0.000 -0.000  0.000   -0.000  0.000 -0.001    0.000 -0.000  0.001
 C          0.000 -0.000  0.000    0.003 -0.026  0.009   -0.003  0.032 -0.011
 C         -0.000 -0.000  0.000    0.023  0.025 -0.006    0.019  0.020 -0.005
 C         -0.000 -0.000 -0.000    0.000 -0.000  0.000    0.000 -0.000  0.000
 C         -0.000  0.000 -0.000    0.000  0.000 -0.000   -0.000  0.000 -0.000
 C          0.001  0.000  0.000    0.000  0.000  0.000    0.000  0.000 -0.000
 C          0.000 -0.000  0.000    0.000  0.000  0.000   -0.000  0.000 -0.000
 H          0.001  0.000 -0.001    0.291  0.117 -0.236   -0.351 -0.141  0.285
 H          0.000  0.001 -0.004   -0.040 -0.163  0.459   -0.033 -0.135  0.380
 H         -0.012 -0.007  0.001   -0.000 -0.000  0.000   -0.001 -0.001  0.000
 H         -0.001  0.000 -0.000   -0.368  0.120 -0.144    0.444 -0.145  0.173
 H          0.000  0.000  0.001    0.043  0.093  0.267   -0.052 -0.112 -0.322
 H          0.002 -0.002  0.001   -0.247  0.226 -0.071   -0.205  0.186 -0.059
 H         -0.000  0.003  0.003   -0.003 -0.368 -0.317   -0.003 -0.304 -0.263
 H         -0.000  0.000  0.000    0.000 -0.001  0.000    0.000 -0.001  0.000
 H          0.001 -0.000  0.000   -0.002  0.000 -0.000   -0.001  0.000 -0.000
 C         -0.041  0.029 -0.000   -0.000 -0.000 -0.000   -0.000  0.000  0.000
 H          0.081 -0.193  0.526    0.000 -0.001  0.003    0.000 -0.001  0.002
 H          0.066 -0.499 -0.426    0.000 -0.001 -0.001    0.000 -0.004 -0.003
 H          0.336  0.344 -0.099    0.002  0.002 -0.001    0.001  0.001 -0.000
 TransDip  -0.131  0.034  0.018    0.158 -0.073 -0.023    0.100  0.186  0.017

 Mode:                67                     68                     69
 Frequency:      3090.67                3111.37                3123.24
 Force Cnst:      6.1915                 6.2876                 6.3623
 Red. Mass:       1.1001                 1.1024                 1.1070
 IR Active:          YES                    YES                    YES
 IR Intens:        8.474                 15.306                 17.428
 Raman Active:       YES                    YES                    YES
               X      Y      Z        X      Y      Z        X      Y      Z
 C          0.000 -0.000 -0.000    0.000 -0.000  0.000    0.000 -0.000 -0.000
 C          0.000  0.000  0.000   -0.000 -0.000  0.000    0.000  0.000  0.000
 C         -0.000 -0.000  0.000    0.000 -0.000  0.000   -0.000  0.000  0.000
 C          0.000  0.000 -0.000    0.000 -0.000  0.000   -0.000 -0.000 -0.000
 O          0.000  0.000  0.000   -0.000  0.000 -0.000   -0.000  0.000  0.000
 O         -0.000  0.000 -0.000   -0.000  0.000 -0.000   -0.000  0.000  0.000
 O         -0.000  0.000  0.000   -0.000 -0.000 -0.000    0.000  0.000  0.000
 O          0.000  0.000  0.000   -0.000  0.000 -0.000   -0.000  0.000  0.000
 C         -0.000  0.000 -0.000   -0.000  0.000 -0.000    0.001  0.000 -0.000
 C         -0.000  0.000  0.000   -0.000  0.000 -0.000    0.005 -0.025 -0.092
 C          0.000  0.000 -0.000    0.000  0.000 -0.000   -0.000  0.000  0.000
 C         -0.000 -0.000 -0.000   -0.000 -0.000  0.000    0.000 -0.000  0.000
 C          0.001  0.000 -0.000    0.004  0.003 -0.000   -0.000  0.000 -0.000
 C         -0.000 -0.000 -0.001    0.001 -0.001  0.000   -0.000 -0.000 -0.000
 H         -0.001 -0.000  0.001    0.000  0.000 -0.001   -0.005 -0.002  0.005
 H          0.000  0.000 -0.000   -0.000 -0.000  0.000   -0.051 -0.250  0.651
 H         -0.006 -0.003  0.000   -0.043 -0.027  0.003    0.000  0.000 -0.000
 H          0.002 -0.001  0.001    0.004 -0.001  0.002   -0.007  0.002 -0.003
 H         -0.000 -0.000 -0.001    0.000  0.000  0.001   -0.000 -0.001 -0.001
 H          0.000 -0.000  0.000    0.000 -0.000  0.000   -0.003 -0.002 -0.019
 H          0.000 -0.000 -0.000   -0.000 -0.000 -0.000   -0.000  0.547  0.449
 H         -0.000  0.001 -0.000   -0.001  0.008 -0.001   -0.000  0.000 -0.000
 H          0.000 -0.000 -0.000   -0.000  0.000 -0.000    0.000 -0.000 -0.000
 C         -0.010 -0.030 -0.086   -0.042 -0.076  0.032   -0.000 -0.000 -0.000
 H          0.109 -0.263  0.643   -0.075  0.135 -0.394    0.000 -0.000  0.000
 H         -0.078  0.535  0.433   -0.037  0.192  0.184   -0.000  0.000  0.000
 H          0.090  0.086 -0.044    0.598  0.592 -0.173    0.000  0.000 -0.000
 TransDip  -0.012 -0.053 -0.076   -0.086 -0.089  0.023    0.006 -0.036 -0.129

 Mode:                70                     71                     72
 Frequency:      3126.13                3156.26                3156.80
 Force Cnst:      6.3753                 6.4929                 6.4960
 Red. Mass:       1.1072                 1.1062                 1.1064
 IR Active:          YES                    YES                    YES
 IR Intens:       13.561                 14.201                 13.946
 Raman Active:       YES                    YES                    YES
               X      Y      Z        X      Y      Z        X      Y      Z
 C          0.000  0.000 -0.000    0.000 -0.000  0.000    0.000 -0.000 -0.000
 C         -0.000 -0.000  0.000   -0.000  0.000  0.000    0.000  0.000  0.000
 C         -0.000 -0.000  0.000    0.001  0.001 -0.000   -0.000  0.000 -0.000
 C          0.000  0.000 -0.000    0.000 -0.000  0.000   -0.000  0.001 -0.001
 O         -0.000  0.000 -0.000    0.000 -0.000  0.000    0.000 -0.000  0.000
 O          0.000  0.000 -0.000   -0.000 -0.000  0.000    0.000 -0.000  0.000
 O          0.000  0.000  0.000   -0.000  0.000 -0.000    0.000  0.000  0.000
 O          0.000 -0.000 -0.000   -0.000  0.000 -0.000    0.000 -0.000  0.000
 C         -0.094 -0.002  0.011    0.000  0.000  0.002   -0.011 -0.009 -0.094
 C         -0.000 -0.000 -0.001   -0.052  0.076 -0.023   -0.001  0.002 -0.001
 C         -0.000 -0.000 -0.000   -0.000  0.000 -0.000    0.000 -0.000 -0.000
 C          0.000  0.000 -0.000    0.000 -0.000  0.000    0.000  0.000 -0.000
 C         -0.000 -0.000 -0.000    0.000  0.000 -0.000   -0.000 -0.000  0.000
 C          0.000 -0.000 -0.000    0.000 -0.000  0.000   -0.000 -0.000 -0.000
 H          0.510  0.211 -0.439    0.005  0.002 -0.004   -0.259 -0.102  0.193
 H         -0.001 -0.003  0.008   -0.032 -0.091  0.295   -0.001 -0.002  0.007
 H          0.000  0.000 -0.000   -0.002 -0.001  0.000    0.003  0.002 -0.000
 H          0.618 -0.205  0.258   -0.007  0.002 -0.002    0.254 -0.083  0.082
 H         -0.011  0.016  0.048   -0.003 -0.006 -0.018    0.132  0.289  0.835
 H          0.001 -0.001  0.000    0.648 -0.591  0.187    0.014 -0.013  0.004
 H          0.000  0.006  0.005   -0.009 -0.218 -0.206   -0.000 -0.004 -0.004
 H          0.000 -0.000  0.000   -0.000  0.004 -0.001    0.000 -0.001  0.000
 H          0.000 -0.000 -0.000    0.004 -0.002  0.000   -0.000  0.000 -0.000
 C          0.000  0.000 -0.000    0.000  0.000 -0.000    0.000  0.000 -0.000
 H          0.000 -0.000  0.001    0.000 -0.000  0.000    0.000 -0.000  0.001
 H          0.000 -0.001 -0.001    0.000 -0.000 -0.000    0.000 -0.000 -0.000
 H         -0.002 -0.002  0.001   -0.000 -0.000  0.000   -0.001 -0.001  0.000
 TransDip  -0.117  0.006  0.012   -0.089  0.078 -0.022   -0.019 -0.037 -0.112

 Mode:                73                     74                     75
 Frequency:      3164.96                3184.56                3220.86
 Force Cnst:      6.4213                 6.5336                 6.6796
 Red. Mass:       1.0880                 1.0935                 1.0928
 IR Active:          YES                    YES                    YES
 IR Intens:        7.136                 15.384                  2.055
 Raman Active:       YES                    YES                    YES
               X      Y      Z        X      Y      Z        X      Y      Z
 C          0.000 -0.000 -0.000   -0.000  0.000  0.000   -0.000 -0.003  0.000
 C          0.000  0.000  0.000    0.000  0.000 -0.000    0.001 -0.000  0.000
 C         -0.000 -0.000  0.000    0.000  0.000 -0.000   -0.001  0.001 -0.000
 C         -0.000  0.000 -0.000   -0.000  0.000 -0.000   -0.000 -0.000  0.000
 O          0.000  0.000  0.000   -0.000 -0.000  0.000   -0.000 -0.001  0.000
 O         -0.000  0.000  0.000   -0.000 -0.000  0.000    0.000  0.000 -0.000
 O          0.000 -0.000 -0.000    0.000 -0.000 -0.000   -0.000  0.000  0.000
 O          0.000 -0.000  0.000    0.000 -0.000  0.000   -0.000  0.000 -0.000
 C          0.000  0.000  0.000    0.000  0.000  0.000    0.000 -0.000 -0.000
 C         -0.000  0.000 -0.000    0.000 -0.000  0.000    0.000 -0.000  0.000
 C          0.004 -0.003  0.000   -0.012  0.008 -0.001   -0.078  0.035 -0.005
 C         -0.001  0.039 -0.005    0.008 -0.075  0.009    0.001  0.019 -0.002
 C         -0.061 -0.045  0.005   -0.036 -0.022  0.002    0.003  0.001 -0.000
 C         -0.001  0.002 -0.000   -0.001  0.002 -0.000    0.000 -0.000  0.000
 H          0.001  0.000 -0.000   -0.000 -0.000  0.000   -0.000 -0.000  0.000
 H         -0.000 -0.000  0.001   -0.000 -0.000 -0.000   -0.000  0.000 -0.000
 H          0.715  0.505 -0.056    0.382  0.265 -0.029   -0.025 -0.016  0.002
 H         -0.001  0.000 -0.000    0.000 -0.000  0.000   -0.000  0.000 -0.000
 H         -0.000 -0.001 -0.003   -0.000 -0.000 -0.001    0.000  0.000  0.000
 H          0.003 -0.002  0.001   -0.003  0.003 -0.001   -0.003  0.003 -0.001
 H         -0.000 -0.001 -0.001   -0.000 -0.000  0.000   -0.000 -0.000  0.000
 H          0.037 -0.459  0.058   -0.078  0.850 -0.107    0.013 -0.191  0.024
 H         -0.060  0.028 -0.004    0.170 -0.080  0.011    0.891 -0.398  0.053
 C         -0.003 -0.003  0.001   -0.001 -0.001  0.000    0.000 -0.000  0.000
 H         -0.001  0.003 -0.009    0.000  0.001 -0.002   -0.000  0.000 -0.001
 H         -0.000  0.007  0.006    0.001  0.001  0.001    0.000  0.001  0.000
 H          0.036  0.032 -0.010    0.014  0.012 -0.004   -0.000 -0.000  0.000
 TransDip  -0.085 -0.010 -0.000   -0.039 -0.118  0.015   -0.004  0.046 -0.004

 STANDARD THERMODYNAMIC QUANTITIES AT   298.15 K  AND     1.00 ATM

   This Molecule has  0 Imaginary Frequencies
   Zero point vibrational energy:      133.295 kcal/mol

   Atom    1 Element C  Has Mass   12.00000
   Atom    2 Element C  Has Mass   12.00000
   Atom    3 Element C  Has Mass   12.00000
   Atom    4 Element C  Has Mass   12.00000
   Atom    5 Element O  Has Mass   15.99491
   Atom    6 Element O  Has Mass   15.99491
   Atom    7 Element O  Has Mass   15.99491
   Atom    8 Element O  Has Mass   15.99491
   Atom    9 Element C  Has Mass   12.00000
   Atom   10 Element C  Has Mass   12.00000
   Atom   11 Element C  Has Mass   12.00000
   Atom   12 Element C  Has Mass   12.00000
   Atom   13 Element C  Has Mass   12.00000
   Atom   14 Element C  Has Mass   12.00000
   Atom   15 Element H  Has Mass    1.00783
   Atom   16 Element H  Has Mass    1.00783
   Atom   17 Element H  Has Mass    1.00783
   Atom   18 Element H  Has Mass    1.00783
   Atom   19 Element H  Has Mass    1.00783
   Atom   20 Element H  Has Mass    1.00783
   Atom   21 Element H  Has Mass    1.00783
   Atom   22 Element H  Has Mass    1.00783
   Atom   23 Element H  Has Mass    1.00783
   Atom   24 Element C  Has Mass   12.00000
   Atom   25 Element H  Has Mass    1.00783
   Atom   26 Element H  Has Mass    1.00783
   Atom   27 Element H  Has Mass    1.00783
   Molecular Mass:   208.073600 amu
   Principal axes and moments of inertia in amu*Bohr^2:
                             1           2           3
    Eigenvalues --     2454.13909  3113.26490  5138.94559
          X               0.99986     0.01649    -0.00187
          Y              -0.01648     0.99982     0.00977
          Z               0.00203    -0.00974     0.99995
   Rotational Symmetry Number is   1
   The Molecule is an Asymmetric Top
   Translational Enthalpy:        0.889 kcal/mol
   Rotational Enthalpy:           0.889 kcal/mol
   Vibrational Enthalpy:        141.066 kcal/mol
   gas constant (RT):             0.592 kcal/mol
   Translational Entropy:        41.902  cal/mol.K
   Rotational Entropy:           32.040  cal/mol.K
   Vibrational Entropy:          51.840  cal/mol.K

   Total Enthalpy:              143.436 kcal/mol
   Total Entropy:               125.782  cal/mol.K
Archival summary:
1\1\nid00960\FREQ\ProcedureUnspecified\BasisUnspecified\41112\junteng\WedOct420:08:322017WedOct420:08:322017\0\\#,FREQ,ProcedureUnspecified,BasisUnspecified,\\0,1\O\C,1,1.34346\O,2,1.20535,1,124.67\C,1,1.44008,2,115.654,3,-9.6524,0\H,4,1.08769,1,105.423,2,179.242,0\H,4,1.09083,1,110.675,2,59.385,0\H,4,1.09093,1,109.476,2,-61.6063,0\C,2,1.50483,1,111.05,3,-175.591,0\C,8,1.40507,2,117.785,1,102.969,0\C,9,1.39746,8,118.444,2,179.819,0\H,10,1.08504,9,118.945,8,179.533,0\C,10,1.39214,9,121.405,8,-0.506911,0\H,12,1.08399,10,120.028,9,-179.816,0\C,12,1.38823,10,119.882,9,0.0315598,0\H,14,1.08091,12,120.672,10,-179.511,0\C,14,1.40019,12,120.071,10,0.253284,0\C,16,1.49123,14,120.498,12,-178.17,0\O,17,1.20993,16,124.893,14,170.759,0\O,17,1.35004,16,112.209,14,-8.6289,0\C,19,1.43818,17,115.979,16,178.639,0\H,20,1.08776,19,105.334,17,-179.368,0\H,20,1.09091,19,110.439,17,61.1479,0\H,20,1.09099,19,110.457,17,-59.8222,0\C,9,1.51016,8,121.32,2,0.0678235,0\H,24,1.0912,9,110.732,8,-172.192,0\H,24,1.09301,9,110.897,8,67.441,0\H,24,1.09357,9,111.52,8,-51.8897,0\\\@

 Total job time:  5919.21s(wall), 31360.31s(cpu) 
 Wed Oct  4 20:08:32 2017

        *************************************************************
        *                                                           *
        *  Thank you very much for using Q-Chem.  Have a nice day.  *
        *                                                           *
        *************************************************************


