nid04485 10.128.17
Q-Chem Developer Version! Running on 10.128.17.*
                  Welcome to Q-Chem
     A Quantum Leap Into The Future Of Chemistry


 Q-Chem 5.0, Q-Chem, Inc., Pleasanton, CA (2017)

 Yihan Shao,  Zhengting Gan,  E. Epifanovsky,  A. T. B. Gilbert,  M. Wormit,  
 J. Kussmann,  A. W. Lange,  A. Behn,  Jia Deng,  Xintian Feng,  D. Ghosh,  
 M. Goldey,  P. R. Horn,  L. D. Jacobson,  I. Kaliman,  T. Kus,  A. Landau,  
 Jie Liu,  E. I. Proynov,  R. M. Richard,  R. P. Steele,  E. J. Sundstrom,  
 H. L. Woodcock III,  P. M. Zimmerman,  D. Zuev,  B. Albrecht,  E. Alguire,  
 S. A. Baeppler,  Z. Benda,  Y. A. Bernard,  E. J. Berquist,  K. B. Bravaya,  
 D. Casanova,  Chun-Min Chang,  Yunqing Chen,  A. Chien,  K. D. Closser,  
 M. P. Coons,  S. Dasgupta,  M. Diedenhofen,  Hainam Do,  R. G. Edgar,  
 Po-Tung Fang,  S. Fatehi,  Qingguo Feng,  Qinghui Ge,  A. Ghysels,  
 J. Gomes,  J. Gonthier,  A. Gunina,  M. W. D. Hanson-Heine,  
 P. H. P. Harbach,  A. W. Hauser,  J. E. Herr,  E. G. Hohenstein,  
 Z. C. Holden,  Kerwin Hui,  T.-C. Jagau,  Hyunjun Ji,  B. Kaduk,  
 K. Khistyaev,  Jaehoon Kim,  P. Klunzinger,  K. Koh,  D. Kosenkov,  
 T. Kowalczyk,  C. M. Krauter,  A. Kunitsa,  Ka Un Lao,  A. Laurent,  
 K. V. Lawler,  Joonho Lee,  D. Lefrancois,  S. Lehtola,  D. S. Levine,  
 Yi-Pei Li,  You-Sheng Lin,  Fenglai Liu,  E. Livshits,  A. Luenser,  
 P. Manohar,  E. Mansoor,  S. F. Manzer,  Shan-Ping Mao,  Yuezhi Mao,  
 N. Mardirossian,  A. V. Marenich,  L. A. Martinez-Martinez,  S. A. Maurer,  
 N. J. Mayhall,  S. C. McKenzie,  J.-M. Mewes,  A. F. Morrison,  K. Nanda,  
 T. S. Nguyen-Beck,  R. Olivares-Amaya,  J. A. Parkhill,  T. M. Perrine,  
 F. Plasser,  S. Prager,  A. Prociuk,  D. R. Rehn,  F. Rob,  M. Schneider,  
 N. Sergueev,  S. M. Sharada,  S. Sharma,  D. W. Small,  T. Stauch,  
 T. Stein,  Yu-Chuan Su,  A. J. W. Thom,  T. Tsuchimochi,  L. Vogt,  
 O. Vydrov,  M. A. Watson,  J. Wenzel,  M. de Wergifosse,  T. A. Wesolowski,  
 A. White,  J. Witte,  A. Yamada,  Jun Yang,  K. Yao,  S. Yeganeh,  
 S. R. Yost,  Zhi-Qiang You,  A. Zech,  Igor Ying Zhang,  Xing Zhang,  
 Yan Zhao,  Ying Zhu,  B. R. Brooks,  G. K. L. Chan,  C. J. Cramer,  
 M. S. Gordon,  W. J. Hehre,  A. Klamt,  M. W. Schmidt,  C. D. Sherrill,  
 D. G. Truhlar,  A. Aspuru-Guzik,  R. Baer,  A. T. Bell,  N. A. Besley,  
 Jeng-Da Chai,  A. Dreuw,  B. D. Dunietz,  T. R. Furlani,  Chao-Ping Hsu,  
 Yousung Jung,  Jing Kong,  D. S. Lambrecht,  WanZhen Liang,  C. Ochsenfeld,  
 V. A. Rassolov,  L. V. Slipchenko,  J. E. Subotnik,  T. Van Voorhis,  
 J. M. Herbert,  A. I. Krylov,  P. M. W. Gill,  M. Head-Gordon

 Contributors to earlier versions of Q-Chem not listed above: 
 R. D. Adamson,  B. Austin,  J. Baker,  G. J. O. Beran,  K. Brandhorst,  
 S. T. Brown,  E. F. C. Byrd,  A. K. Chakraborty,  C.-L. Cheng,  
 Siu Hung Chien,  D. M. Chipman,  D. L. Crittenden,  H. Dachsel,  
 R. A. DiStasio Jr.,  R. J. Doerksen,  A. D. Dutoi,  L. Fusti-Molnar,  
 W. A. Goddard III,  A. Golubeva-Zadorozhnaya,  S. R. Gwaltney,  G. Hawkins,  
 A. Heyden,  S. Hirata,  G. Kedziora,  F. J. Keil,  C. Kelley,  Jihan Kim,  
 R. A. King,  R. Z. Khaliullin,  P. P. Korambath,  W. Kurlancheek,  
 A. M. Lee,  M. S. Lee,  S. V. Levchenko,  Ching Yeh Lin,  D. Liotard,  
 R. C. Lochan,  I. Lotan,  P. E. Maslen,  N. Nair,  D. P. O'Neill,  
 D. Neuhauser,  E. Neuscamman,  C. M. Oana,  R. Olson,  B. Peters,  
 R. Peverati,  P. A. Pieniazek,  Y. M. Rhee,  J. Ritchie,  M. A. Rohrdanz,  
 E. Rosta,  N. J. Russ,  H. F. Schaefer III,  N. E. Schultz,  N. Shenvi,  
 A. C. Simmonett,  A. Sodt,  D. Stuck,  K. S. Thanthiriwatte,  V. Vanovschi,  
 Tao Wang,  A. Warshel,  C. F. Williams,  Q. Wu,  X. Xu,  W. Zhang

 Please cite Q-Chem as follows:
 Y. Shao et al., Mol. Phys. 113, 184-215 (2015)
 DOI: 10.1080/00268976.2014.952696

 Q-Chem 5.0.0 for Intel X86 EM64T Linux

 Parts of Q-Chem use Armadillo 5.200.1 (Boston Tea Smuggler).
 http://arma.sourceforge.net/

 Q-Chem begins on Wed Oct  4 17:37:16 2017  

Host: nid04485
0

     Scratch files written to /global/cscratch1/sd/junteng/scratch/14/opt_1101o-.save//

Checking the input file for inconsistencies... 	...done.

--------------------------------------------------------------
User input:
--------------------------------------------------------------
$molecule
0  1
C    0.711  -1.958   0.589
C   -0.299  -1.995   1.756
C    1.089  -0.603   0.022
C   -0.528  -0.668   2.454
O    2.255  -0.726  -0.682
O    0.458   0.435   0.138
O    0.672  -0.221   2.944
O   -1.603  -0.140   2.687
C    0.580   1.027   3.634
C    2.698   0.490  -1.286
C   -0.031  -2.720  -0.508
C   -0.144  -4.202  -0.153
C   -1.210  -4.188   0.944
C   -1.515  -2.680   1.086
O   -1.391  -2.278  -0.299
H    1.639  -2.461   0.888
H    0.068  -2.659   2.552
H   -0.050   0.928   4.523
H    1.951   0.864  -1.993
H   -0.511  -4.776  -1.011
H    0.804  -4.638   0.173
H   -2.087  -4.746   0.595
H   -0.869  -4.649   1.876
H    1.587   1.311   3.953
H    0.196   1.807   2.969
H    3.619   0.278  -1.837
H    2.918   1.240  -0.519
H    0.300  -2.531  -1.532
C   -2.908  -2.427   1.624
H   -3.642  -3.061   1.114
H   -2.968  -2.632   2.696
H   -3.235  -1.402   1.426
$end


$opt
CONSTRAINT
tors    2    1    3    5    162.3
tors    1    2    4    7    -65.0
ENDCONSTRAINT
$end

$rem
JOBTYPE                   OPT
METHOD                    B3LYP
DFT_D                     D3_OP
BASIS                     STO-3G
GEOM_OPT_MAX_CYCLES       500
SYMMETRY                  False
THRESH                    12
SCF_CONVERGENCE           8
MAX_SUB_FILE_NUM          128
MEM_STATIC                400
MEM_TOTAL                 4000
$end

--------------------------------------------------------------
 Adding empirical dispersion correction 
 ----------------------------------------------------------------
 Doing -D3(op) with
 s6 =   1.00000
 s8 =   0.78311
 a1 =   0.30000
 a2 =   4.25000
 n  =  10.00000
 -D3 energy without 3body term =     -0.0354339443 hartrees
 ----------------------------------------------------------------
             Standard Nuclear Orientation (Angstroms)
    I     Atom           X                Y                Z
 ----------------------------------------------------------------
    1      C      -0.1011848019     0.8054220658     0.6072204492
    2      C       0.6620154878    -0.5364971559     0.5955533906
    3      C      -1.4015644380     0.8875516009    -0.1690949129
    4      C      -0.1410572282    -1.7318799813     0.1194146361
    5      O      -2.1190916287     1.9620046977     0.2792423188
    6      O      -1.7586593461     0.1451011244    -1.0692679610
    7      O      -1.2361871469    -1.8724092621     0.9323420513
    8      O       0.1839039632    -2.5367797787    -0.7380435496
    9      C      -2.0705618232    -2.9788079980     0.5833882767
   10      C      -3.3601324547     2.1543130106    -0.4008725103
   11      C       0.8921947687     1.7507805700    -0.0666573788
   12      C       2.1006898551     1.9956119456     0.8359583888
   13      C       2.8581814059     0.6714609442     0.7228580976
   14      C       1.9353848860    -0.1568246325    -0.1989024928
   15      O       1.4677351984     0.8937269451    -1.0780214566
   16      H      -0.3158357451     1.0989107000     1.6422969653
   17      H       0.9675145382    -0.8059543627     1.6169564177
   18      H      -1.5277085504    -3.9211288805     0.7032368423
   19      H      -3.1925366947     2.3218430413    -1.4693196780
   20      H       2.7207990583     2.8058706669     0.4368664437
   21      H       1.8242280680     2.2474343817     1.8632024401
   22      H       3.8327460722     0.8578355890     0.2561866896
   23      H       3.0366664167     0.1979666648     1.6931015044
   24      H      -2.9267737949    -2.9833521908     1.2640838105
   25      H      -2.4439876414    -2.8714877839    -0.4398988433
   26      H      -3.8403685125     3.0440784321     0.0168317195
   27      H      -4.0212059080     1.2961810682    -0.2403095674
   28      H       0.4702491978     2.6594561976    -0.5026946926
   29      C       2.6945415386    -1.2278384490    -0.9542253256
   30      H       3.6222933193    -0.8229488311    -1.3739312116
   31      H       2.9531506788    -2.0694657777    -0.3064647586
   32      H       2.1281180017    -1.5881402477    -1.8179990175
 ----------------------------------------------------------------
 Molecular Point Group                 C1    NOp =  1
 Largest Abelian Subgroup              C1    NOp =  1
 Nuclear Repulsion Energy =  1248.6091517482 hartrees
 There are       61 alpha and       61 beta electrons
 Requested basis set is STO-3G
 There are 48 shells and 96 basis functions

 Total QAlloc Memory Limit   4000 MB
 Mega-Array Size       392 MB
 MEM_STATIC part       400 MB
 A cutoff of  1.0D-12 yielded   1028 shell pairs
 There are      4526 function pairs
 
 -------------------------------------------------------
 OpenMP Integral Computing Module                       
 Release: version 1.0, May 2013, Q-Chem Inc. Pittsburgh 
 -------------------------------------------------------
 Integral Job Info:
 Integral job number is                      11
 Integral operator is                         1
 short-range coefficients                     0
 long-range coefficients              100000000
 Omega coefficients                           0
 if combine SR and LR in K                    0
 Integral screening is                        0
 Integral computing path is                   2
 max size of driver memory is            800000
 size of driver memory is                 45569
 size of scratch memory is               945100
 max col of scratch BK array                289
 max len of scratch array in speh3           22
 max len of scratch index in speh4            8
 max int batch size is                      520
 min int batch size is                       52
 fixed nKL is                                52
 max L of basis functions is                  1
 order of int derivative is                   0
 number of shells is                         48
 number of basis is                          96
 number of cartesian basis is                96
 number of contracted shell pairs          1028
 number of primitive shell pairs           5665
 maxK2 (contraction) of shell pair            9
 max number of K2 of shell pair               1
 max number of CS2 of shell pair            150
 max number of PS2 of shell pair            666
 mem total for path MDJ                   31466
 -------------------------------------------------------
 Smallest overlap matrix eigenvalue = 1.94E-01

 Scale SEOQF with 1.000000e-01/1.000000e-01/1.000000e-01

 Standard Electronic Orientation quadrupole field applied
 Nucleus-field energy     =     0.0000000345 hartrees
 Guess from superposition of atomic densities
 Warning:  Energy on first SCF cycle will be non-variational
 A restricted hybrid HF-DFT SCF calculation will be
 performed using Pulay DIIS extrapolation
 Exchange:     0.2000 Hartree-Fock + 0.0800 Slater + 0.7200 B88
 Correlation:  0.1900 VWN1RPA + 0.8100 LYP
 Using SG-1 standard quadrature grid
 Dispersion:   Grimme D3
 SCF converges when DIIS error is below 1.0E-08
 -------------------------------------------------------
 OpenMP Integral computing Module                
 Release: version 1.0, May 2013, Q-Chem Inc. Pittsburgh 
 -------------------------------------------------------
 -------------------------------------------------------
 OpenMP BLAS3 based DFT computing Module                
 Release: version 1.0, May 2013, Q-Chem Inc. Pittsburgh 
 -------------------------------------------------------
 ---------------------------------------
  Cycle       Energy         DIIS Error
 ---------------------------------------
    1    -793.7951598601      1.10E-01
    2    -794.2843676763      1.34E-02
    3    -793.3333321269      3.22E-02
    4    -794.5216836078      4.73E-03
    5    -794.5484650511      1.51E-03
    6    -794.5513969032      2.61E-04
    7    -794.5514890854      3.74E-05
    8    -794.5514903283      2.22E-05
    9    -794.5514908913      7.66E-06
   10    -794.5514909686      1.53E-06
   11    -794.5514909718      3.16E-07
   12    -794.5514909719      9.25E-08
   13    -794.5514909719      1.78E-08
   14    -794.5514909720      6.56E-09 Convergence criterion met
 ---------------------------------------
 SCF time:  CPU 61.89 s  wall 2.62 s
 SCF   energy in the final basis set = -794.5514909720
 Total energy in the final basis set = -794.5514909720
 
 --------------------------------------------------------------
 
                    Orbital Energies (a.u.)
 --------------------------------------------------------------
 
 Alpha MOs
 -- Occupied --
-18.943 -18.932 -18.868 -18.867 -18.860 -10.109 -10.103 -10.074
-10.066 -10.062 -10.059 -10.033 -10.031 -10.012 -10.008 -10.003
 -1.043  -1.032  -0.988  -0.952  -0.944  -0.774  -0.743  -0.732
 -0.691  -0.670  -0.644  -0.600  -0.547  -0.535  -0.503  -0.481
 -0.469  -0.452  -0.439  -0.430  -0.426  -0.421  -0.414  -0.389
 -0.380  -0.373  -0.369  -0.361  -0.345  -0.338  -0.319  -0.311
 -0.307  -0.306  -0.290  -0.285  -0.273  -0.248  -0.240  -0.217
 -0.183  -0.173  -0.152  -0.141  -0.132
 -- Virtual --
  0.113   0.128   0.246   0.275   0.297   0.311   0.337   0.354
  0.375   0.382   0.400   0.402   0.409   0.414   0.433   0.434
  0.439   0.446   0.447   0.456   0.457   0.463   0.467   0.476
  0.483   0.487   0.501   0.503   0.508   0.531   0.544   0.578
  0.585   0.705   0.710
 --------------------------------------------------------------
 
          Ground-State Mulliken Net Atomic Charges

     Atom                 Charge (a.u.)
  ----------------------------------------
      1 C                    -0.083253
      2 C                    -0.085483
      3 C                     0.238543
      4 C                     0.240385
      5 O                    -0.189915
      6 O                    -0.229133
      7 O                    -0.193361
      8 O                    -0.227914
      9 C                    -0.126235
     10 C                    -0.125671
     11 C                     0.027112
     12 C                    -0.148912
     13 C                    -0.146349
     14 C                     0.112176
     15 O                    -0.212592
     16 H                     0.088932
     17 H                     0.086216
     18 H                     0.090756
     19 H                     0.094062
     20 H                     0.077409
     21 H                     0.072391
     22 H                     0.076456
     23 H                     0.069266
     24 H                     0.092224
     25 H                     0.097060
     26 H                     0.095371
     27 H                     0.092912
     28 H                     0.086999
     29 C                    -0.230002
     30 H                     0.079447
     31 H                     0.082736
     32 H                     0.098367
  ----------------------------------------
  Sum of atomic charges =    -0.000000

 -----------------------------------------------------------------
                    Cartesian Multipole Moments
 -----------------------------------------------------------------
    Charge (ESU x 10^10)
                 0.0000
    Dipole Moment (Debye)
         X      -0.9000      Y       1.0167      Z       2.2398
       Tot       2.6192
    Quadrupole Moments (Debye-Ang)
        XX     -78.1689     XY      -0.4924     YY     -83.5528
        XZ       1.8518     YZ      -3.7325     ZZ     -89.8619
    Octopole Moments (Debye-Ang^2)
       XXX     -39.6060    XXY       2.0281    XYY     -24.2189
       YYY      -4.1508    XXZ      -2.1840    XYZ       5.6095
       YYZ       2.6959    XZZ      -4.9119    YZZ      -1.2831
       ZZZ      -3.9507
    Hexadecapole Moments (Debye-Ang^3)
      XXXX   -1973.1049   XXXY     -37.3837   XXYY    -550.3213
      XYYY      13.0527   YYYY   -1542.9943   XXXZ     -20.5358
      XXYZ     -15.3485   XYYZ       3.7340   YYYZ     -48.0150
      XXZZ    -415.8538   XYZZ      -7.7171   YYZZ    -326.9796
      XZZZ      -2.4473   YZZZ       1.8990   ZZZZ    -354.7750
 -----------------------------------------------------------------
 Calculating analytic gradient of the SCF energy
 Gradient of SCF Energy
            1           2           3           4           5           6
    1   0.0105824  -0.0047585  -0.0132229  -0.0145618  -0.0080439   0.0193486
    2  -0.0094286   0.0006148   0.0177705  -0.0098726  -0.0439694   0.0387808
    3  -0.0409748  -0.0271339  -0.0065933   0.0069328  -0.0438092   0.0463905
            7           8           9          10          11          12
    1   0.0251284  -0.0101926   0.0105892   0.0172321  -0.0122285  -0.0111337
    2  -0.0315334   0.0398761   0.0145324  -0.0014748  -0.0114503  -0.0268783
    3  -0.0462533   0.0454110   0.0056542   0.0108542   0.0065478  -0.0228126
           13          14          15          16          17          18
    1  -0.0225272  -0.0132804   0.0045446   0.0009547   0.0009502  -0.0038117
    2   0.0054772  -0.0016595  -0.0046165  -0.0044751  -0.0029562   0.0135603
    3  -0.0246370   0.0052221   0.0629161  -0.0049379  -0.0071049   0.0038572
           19          20          21          22          23          24
    1   0.0029927   0.0007724   0.0019036  -0.0026177  -0.0008809   0.0067039
    2   0.0017931  -0.0059840  -0.0021286   0.0055801   0.0031867  -0.0023497
    3   0.0137962   0.0006951  -0.0064503   0.0039902  -0.0052610  -0.0078703
           25          26          27          28          29          30
    1   0.0031110   0.0020007   0.0092035   0.0069460  -0.0095853  -0.0048298
    2   0.0045157  -0.0084361   0.0092190  -0.0070614   0.0139670  -0.0048305
    3   0.0126380  -0.0059197   0.0042661   0.0054435   0.0229604  -0.0035494
           31          32
    1   0.0008812   0.0078296
    2   0.0043954   0.0058359
    3  -0.0032957  -0.0009721
 Max gradient component =       6.292E-02
 RMS gradient           =       1.745E-02
 Gradient time:  CPU 16.75 s  wall 0.71 s
 Geometry Optimization Parameters
   NAtoms,    NIC,     NZ,  NCons,   NDum,   NFix, NCnnct, MaxDiis
       32     251       0       2       0       0       0       0


** CONSTRAINED OPTIMIZATION IN DELOCALIZED INTERNAL COORDINATES **
   Searching for a Minimum

   Optimization Cycle:   1

                       Coordinates (Angstroms)
     ATOM                X               Y               Z
      1  C        -0.1011848019    0.8054220658    0.6072204492
      2  C         0.6620154878   -0.5364971559    0.5955533906
      3  C        -1.4015644380    0.8875516009   -0.1690949129
      4  C        -0.1410572282   -1.7318799813    0.1194146361
      5  O        -2.1190916287    1.9620046977    0.2792423188
      6  O        -1.7586593461    0.1451011244   -1.0692679610
      7  O        -1.2361871469   -1.8724092621    0.9323420513
      8  O         0.1839039632   -2.5367797787   -0.7380435496
      9  C        -2.0705618232   -2.9788079980    0.5833882767
     10  C        -3.3601324547    2.1543130106   -0.4008725103
     11  C         0.8921947687    1.7507805700   -0.0666573788
     12  C         2.1006898551    1.9956119456    0.8359583888
     13  C         2.8581814059    0.6714609442    0.7228580976
     14  C         1.9353848860   -0.1568246325   -0.1989024928
     15  O         1.4677351984    0.8937269451   -1.0780214566
     16  H        -0.3158357451    1.0989107000    1.6422969653
     17  H         0.9675145382   -0.8059543627    1.6169564177
     18  H        -1.5277085504   -3.9211288805    0.7032368423
     19  H        -3.1925366947    2.3218430413   -1.4693196780
     20  H         2.7207990583    2.8058706669    0.4368664437
     21  H         1.8242280680    2.2474343817    1.8632024401
     22  H         3.8327460722    0.8578355890    0.2561866896
     23  H         3.0366664167    0.1979666648    1.6931015044
     24  H        -2.9267737949   -2.9833521908    1.2640838105
     25  H        -2.4439876414   -2.8714877839   -0.4398988433
     26  H        -3.8403685125    3.0440784321    0.0168317195
     27  H        -4.0212059080    1.2961810682   -0.2403095674
     28  H         0.4702491978    2.6594561976   -0.5026946926
     29  C         2.6945415386   -1.2278384490   -0.9542253256
     30  H         3.6222933193   -0.8229488311   -1.3739312116
     31  H         2.9531506788   -2.0694657777   -0.3064647586
     32  H         2.1281180017   -1.5881402477   -1.8179990175
   Point Group: c1    Number of degrees of freedom:    90


   Energy is   -794.551490972

              Constraints and their Current Values
                                        Value     Constraint
   Dihedral:        2   1   3   5      161.506      162.300
   Dihedral:        1   2   4   7      -58.727      -65.000

 Attempting to Generate Delocalized Internal Coordinates

   Using Lagrange Multiplier Algorithm


 92 Hessian modes will be used to form the next step
  Hessian Eigenvalues:
    -0.977753   -0.977753    0.045000    0.045000    0.045000    0.045000
     0.045000    0.045010    0.045298    0.045515    0.048619    0.059359
     0.061550    0.067521    0.068252    0.070602    0.073231    0.073438
     0.076637    0.079785    0.081436    0.082111    0.083599    0.083601
     0.084460    0.085259    0.090062    0.091363    0.091986    0.097105
     0.108323    0.112588    0.113785    0.113804    0.116926    0.116971
     0.122385    0.127205    0.139525    0.143598    0.160000    0.160000
     0.160000    0.160000    0.160000    0.160000    0.160000    0.160000
     0.160000    0.167195    0.181257    0.244222    0.248535    0.249951
     0.250000    0.250000    0.250000    0.250000    0.252783    0.262190
     0.267687    0.287879    0.290216    0.306804    0.306860    0.308963
     0.329030    0.337223    0.340066    0.340731    0.341491    0.341652
     0.341740    0.342327    0.342899    0.343079    0.343239    0.343448
     0.343570    0.343585    0.343737    0.344460    0.344599    0.345095
     0.411320    0.412508    0.507662    0.514426    0.952633    0.953292
     1.022753    1.022753

 Minimum Search - Taking P-RFO Step
 Searching for Lamda that Maximizes Along the Constraint modes Only
 Value Taken    Lamda =   0.00704917
 Searching for Lamda that Minimizes Along All other modes
 Value Taken    Lamda =  -0.07070191
 Calculated Step too Large.  Step scaled by  0.697795
 Step Taken.  Stepsize is  0.300000

                             Maximum     Tolerance    Cnvgd?
         Gradient            0.109482       0.000300      NO
         Displacement        0.091418       0.001200      NO
         Energy change     *********       0.000001      NO


 New Cartesian Coordinates Obtained by Inverse Iteration

 Displacement from previous Coordinates is:  0.742221
 Adding empirical dispersion correction 
 ----------------------------------------------------------------
 Doing -D3(op) with
 s6 =   1.00000
 s8 =   0.78311
 a1 =   0.30000
 a2 =   4.25000
 n  =  10.00000
 -D3 energy without 3body term =     -0.0351524264 hartrees
 ----------------------------------------------------------------
             Standard Nuclear Orientation (Angstroms)
    I     Atom           X                Y                Z
 ----------------------------------------------------------------
    1      C      -0.0856347070     0.8460117887     0.6353000479
    2      C       0.6721969490    -0.5235923824     0.6197522634
    3      C      -1.4164694381     0.8877551997    -0.1587218105
    4      C      -0.1706254937    -1.7206468694     0.0988152165
    5      O      -2.1601271675     1.9934474756     0.2735422192
    6      O      -1.7735816963     0.1040394005    -1.0552445087
    7      O      -1.2489546540    -1.8946067548     0.9815818345
    8      O       0.1158769622    -2.5205634207    -0.8071910330
    9      C      -2.1007908426    -3.0150052987     0.6047122675
   10      C      -3.4210234695     2.1334048182    -0.4436549773
   11      C       0.9462848474     1.7957816103    -0.0603815665
   12      C       2.1684874124     2.0356741628     0.8815443277
   13      C       2.9176631643     0.6732514093     0.7562929339
   14      C       1.9681572752    -0.1401208381    -0.2074361522
   15      O       1.5093448368     0.9323762056    -1.1057094377
   16      H      -0.2982313679     1.1574531598     1.6713240006
   17      H       0.9909897892    -0.8087334152     1.6383129699
   18      H      -1.5534715338    -3.9748500250     0.6490748066
   19      H      -3.2601601346     2.2654146369    -1.5296768317
   20      H       2.7959251973     2.8510366941     0.4940102838
   21      H       1.8818246498     2.2863932027     1.9129251032
   22      H       3.9002352952     0.8339965703     0.2903811641
   23      H       3.0818019307     0.1779766646     1.7244261799
   24      H      -2.9299948458    -3.0488593450     1.3310599994
   25      H      -2.5241848614    -2.8788776941    -0.4075534346
   26      H      -3.9187740142     3.0352589037    -0.0496322583
   27      H      -4.0819263970     1.2630713126    -0.2737859038
   28      H       0.5228044354     2.7112559588    -0.5046211550
   29      C       2.6974023749    -1.2405316847    -0.9965779117
   30      H       3.6339981710    -0.8447570855    -1.4159183301
   31      H       2.9383194850    -2.0972348892    -0.3540682001
   32      H       2.0961945874    -1.5831851576    -1.8498450208
 ----------------------------------------------------------------
 Molecular Point Group                 C1    NOp =  1
 Largest Abelian Subgroup              C1    NOp =  1
 Nuclear Repulsion Energy =  1229.0377866291 hartrees
 There are       61 alpha and       61 beta electrons
 Applying Cartesian multipole field
    Component          Value
    ---------          -----
     (2,0,0)        1.00000E-11
     (0,2,0)        2.00000E-11
     (0,0,2)       -3.00000E-11
 Nucleus-field energy     =     0.0000000349 hartrees
 Requested basis set is STO-3G
 There are 48 shells and 96 basis functions
 A cutoff of  1.0D-12 yielded   1024 shell pairs
 There are      4516 function pairs
 Smallest overlap matrix eigenvalue = 2.08E-01
 Guess MOs from SCF MO coefficient file
 Reading MOs from coefficient file
 Reading MOs from coefficient file
 A restricted hybrid HF-DFT SCF calculation will be
 performed using Pulay DIIS extrapolation
 Exchange:     0.2000 Hartree-Fock + 0.0800 Slater + 0.7200 B88
 Correlation:  0.1900 VWN1RPA + 0.8100 LYP
 Using SG-1 standard quadrature grid
 Dispersion:   Grimme D3
 SCF converges when DIIS error is below 1.0E-08
 Geometry optimization detected.  Setting ReadMinima to 0
 Setting SaveMinima to 0
 -------------------------------------------------------
 OpenMP Integral computing Module                
 Release: version 1.0, May 2013, Q-Chem Inc. Pittsburgh 
 -------------------------------------------------------
 -------------------------------------------------------
 OpenMP BLAS3 based DFT computing Module                
 Release: version 1.0, May 2013, Q-Chem Inc. Pittsburgh 
 -------------------------------------------------------
 ---------------------------------------
  Cycle       Energy         DIIS Error
 ---------------------------------------
    1    -794.4225421780      5.40E-03
    2    -794.5771520333      1.87E-03
    3    -794.5716421851      2.82E-03
    4    -794.5813278234      6.27E-04
    5    -794.5818621142      1.04E-04
    6    -794.5818773495      2.24E-05
    7    -794.5818776511      1.85E-05
    8    -794.5818780804      4.80E-06
    9    -794.5818781135      7.77E-07
   10    -794.5818781142      3.04E-07
   11    -794.5818781144      5.51E-08
   12    -794.5818781144      1.74E-08
   13    -794.5818781144      3.49E-09 Convergence criterion met
 ---------------------------------------
 SCF time:  CPU 59.21 s  wall 2.50 s
 SCF   energy in the final basis set = -794.5818781144
 Total energy in the final basis set = -794.5818781144
 
 --------------------------------------------------------------
 
                    Orbital Energies (a.u.)
 --------------------------------------------------------------
 
 Alpha MOs
 -- Occupied --
-18.941 -18.927 -18.874 -18.871 -18.861 -10.103 -10.096 -10.070
-10.062 -10.060 -10.058 -10.035 -10.031 -10.014 -10.010 -10.005
 -1.024  -1.013  -0.972  -0.942  -0.931  -0.764  -0.731  -0.721
 -0.680  -0.661  -0.638  -0.594  -0.542  -0.529  -0.496  -0.474
 -0.458  -0.443  -0.431  -0.420  -0.417  -0.411  -0.406  -0.382
 -0.378  -0.366  -0.364  -0.353  -0.343  -0.336  -0.312  -0.308
 -0.305  -0.301  -0.289  -0.280  -0.269  -0.251  -0.242  -0.223
 -0.181  -0.169  -0.153  -0.140  -0.136
 -- Virtual --
  0.103   0.119   0.239   0.260   0.280   0.295   0.319   0.338
  0.356   0.360   0.376   0.383   0.394   0.401   0.413   0.423
  0.426   0.431   0.434   0.439   0.440   0.443   0.448   0.451
  0.455   0.472   0.484   0.487   0.492   0.515   0.522   0.556
  0.562   0.666   0.672
 --------------------------------------------------------------
 
          Ground-State Mulliken Net Atomic Charges

     Atom                 Charge (a.u.)
  ----------------------------------------
      1 C                    -0.079343
      2 C                    -0.082011
      3 C                     0.222357
      4 C                     0.224329
      5 O                    -0.178349
      6 O                    -0.217226
      7 O                    -0.184394
      8 O                    -0.218562
      9 C                    -0.125110
     10 C                    -0.124927
     11 C                     0.025580
     12 C                    -0.146314
     13 C                    -0.145195
     14 C                     0.108027
     15 O                    -0.201262
     16 H                     0.087347
     17 H                     0.084299
     18 H                     0.087576
     19 H                     0.091367
     20 H                     0.076634
     21 H                     0.072399
     22 H                     0.075114
     23 H                     0.069097
     24 H                     0.088723
     25 H                     0.093357
     26 H                     0.092481
     27 H                     0.090253
     28 H                     0.083863
     29 C                    -0.227603
     30 H                     0.078457
     31 H                     0.081021
     32 H                     0.098016
  ----------------------------------------
  Sum of atomic charges =    -0.000000

 -----------------------------------------------------------------
                    Cartesian Multipole Moments
 -----------------------------------------------------------------
    Charge (ESU x 10^10)
                 0.0000
    Dipole Moment (Debye)
         X      -0.7778      Y       1.0282      Z       2.1710
       Tot       2.5250
    Quadrupole Moments (Debye-Ang)
        XX     -77.8020     XY      -0.5423     YY     -83.5485
        XZ       2.2484     YZ      -3.4865     ZZ     -89.7873
    Octopole Moments (Debye-Ang^2)
       XXX     -40.8168    XXY       1.4393    XYY     -22.9272
       YYY      -7.3268    XXZ      -2.9169    XYZ       6.5312
       YYZ       2.6416    XZZ      -5.1584    YZZ      -0.8520
       ZZZ      -4.2121
    Hexadecapole Moments (Debye-Ang^3)
      XXXX   -2029.9059   XXXY     -52.3016   XXYY    -564.1532
      XYYY       2.9010   YYYY   -1561.5065   XXXZ     -20.0997
      XXYZ     -17.2613   XYYZ       2.8233   YYYZ     -48.4416
      XXZZ    -428.8181   XYZZ     -12.6084   YYZZ    -335.7581
      XZZZ      -5.5754   YZZZ      -0.6919   ZZZZ    -374.0338
 -----------------------------------------------------------------
 Calculating analytic gradient of the SCF energy
 Gradient of SCF Energy
            1           2           3           4           5           6
    1   0.0064458  -0.0050810  -0.0060793  -0.0138684  -0.0033376   0.0056047
    2  -0.0073755  -0.0001266   0.0152897   0.0043368  -0.0200320   0.0111836
    3  -0.0197612  -0.0058484   0.0037070   0.0086467  -0.0187239   0.0112508
            7           8           9          10          11          12
    1   0.0125889   0.0005635   0.0053988   0.0097469  -0.0077011  -0.0045985
    2  -0.0145066   0.0077166   0.0080403   0.0001223  -0.0025192  -0.0069083
    3  -0.0219359   0.0145275   0.0041566   0.0068994   0.0038539  -0.0070975
           13          14          15          16          17          18
    1  -0.0061079  -0.0082661   0.0041582   0.0003062   0.0030181  -0.0014144
    2   0.0015464  -0.0030873  -0.0010626  -0.0027454  -0.0026876   0.0031555
    3  -0.0108579   0.0019759   0.0211771  -0.0010814  -0.0026974   0.0023671
           19          20          21          22          23          24
    1   0.0004958   0.0007544   0.0019771  -0.0009949   0.0013800   0.0010445
    2   0.0018014  -0.0024278   0.0008828   0.0031991   0.0012957  -0.0016137
    3   0.0035648   0.0007517  -0.0017796   0.0027500  -0.0015269  -0.0029179
           25          26          27          28          29          30
    1  -0.0001158  -0.0006110   0.0016174   0.0036573  -0.0046655  -0.0019035
    2   0.0014411  -0.0023931   0.0030380  -0.0024535   0.0046167  -0.0020216
    3   0.0037383  -0.0024576   0.0018716   0.0009045   0.0117679  -0.0028686
           31          32
    1   0.0009833   0.0050044
    2   0.0014681   0.0028265
    3  -0.0014441  -0.0029123
 Max gradient component =       2.194E-02
 RMS gradient           =       7.122E-03
 Gradient time:  CPU 17.02 s  wall 0.71 s
 Geometry Optimization Parameters
   NAtoms,    NIC,     NZ,  NCons,   NDum,   NFix, NCnnct, MaxDiis
       32     251       0       2       0       0       0       0

 Cartesian Hessian Update
 Hessian Updated using BFGS Update


** CONSTRAINED OPTIMIZATION IN DELOCALIZED INTERNAL COORDINATES **
   Searching for a Minimum

   Optimization Cycle:   2

                       Coordinates (Angstroms)
     ATOM                X               Y               Z
      1  C        -0.0856347070    0.8460117887    0.6353000479
      2  C         0.6721969490   -0.5235923824    0.6197522634
      3  C        -1.4164694381    0.8877551997   -0.1587218105
      4  C        -0.1706254937   -1.7206468694    0.0988152165
      5  O        -2.1601271675    1.9934474756    0.2735422192
      6  O        -1.7735816963    0.1040394005   -1.0552445087
      7  O        -1.2489546540   -1.8946067548    0.9815818345
      8  O         0.1158769622   -2.5205634207   -0.8071910330
      9  C        -2.1007908426   -3.0150052987    0.6047122675
     10  C        -3.4210234695    2.1334048182   -0.4436549773
     11  C         0.9462848474    1.7957816103   -0.0603815665
     12  C         2.1684874124    2.0356741628    0.8815443277
     13  C         2.9176631643    0.6732514093    0.7562929339
     14  C         1.9681572752   -0.1401208381   -0.2074361522
     15  O         1.5093448368    0.9323762056   -1.1057094377
     16  H        -0.2982313679    1.1574531598    1.6713240006
     17  H         0.9909897892   -0.8087334152    1.6383129699
     18  H        -1.5534715338   -3.9748500250    0.6490748066
     19  H        -3.2601601346    2.2654146369   -1.5296768317
     20  H         2.7959251973    2.8510366941    0.4940102838
     21  H         1.8818246498    2.2863932027    1.9129251032
     22  H         3.9002352952    0.8339965703    0.2903811641
     23  H         3.0818019307    0.1779766646    1.7244261799
     24  H        -2.9299948458   -3.0488593450    1.3310599994
     25  H        -2.5241848614   -2.8788776941   -0.4075534346
     26  H        -3.9187740142    3.0352589037   -0.0496322583
     27  H        -4.0819263970    1.2630713126   -0.2737859038
     28  H         0.5228044354    2.7112559588   -0.5046211550
     29  C         2.6974023749   -1.2405316847   -0.9965779117
     30  H         3.6339981710   -0.8447570855   -1.4159183301
     31  H         2.9383194850   -2.0972348892   -0.3540682001
     32  H         2.0961945874   -1.5831851576   -1.8498450208
   Point Group: c1    Number of degrees of freedom:    90


   Energy is   -794.581878114

              Constraints and their Current Values
                                        Value     Constraint
   Dihedral:        2   1   3   5      162.036      162.300
   Dihedral:        1   2   4   7      -62.958      -65.000
 Hessian Updated using BFGS Update

   Using Lagrange Multiplier Algorithm


 80 Hessian modes will be used to form the next step
  Hessian Eigenvalues:
    -0.977942   -0.977752    0.044942    0.045002    0.045009    0.045122
     0.045510    0.048616    0.059340    0.061248    0.067472    0.068246
     0.070587    0.073227    0.073433    0.076506    0.079806    0.081322
     0.082169    0.083326    0.083606    0.084444    0.085317    0.090056
     0.091304    0.091949    0.097016    0.107864    0.112578    0.113727
     0.113796    0.116926    0.116971    0.122360    0.128125    0.139389
     0.143338    0.158838    0.161611    0.166722    0.181506    0.242429
     0.245134    0.248693    0.249951    0.250120    0.253148    0.262489
     0.268945    0.289216    0.295205    0.306759    0.308575    0.318629
     0.329051    0.337221    0.340078    0.340677    0.341488    0.341725
     0.342171    0.342693    0.342996    0.343221    0.343337    0.343534
     0.343583    0.343706    0.344434    0.344584    0.345025    0.375845
     0.411904    0.417427    0.497543    0.513180    0.952892    0.975504
     1.022748    1.022805

 Minimum Search - Taking P-RFO Step
 Searching for Lamda that Maximizes Along the Constraint modes Only
 Value Taken    Lamda =   0.00045600
 Searching for Lamda that Minimizes Along All other modes
 Value Taken    Lamda =  -0.01415962
 Step Taken.  Stepsize is  0.291271

                             Maximum     Tolerance    Cnvgd?
         Gradient            0.035645       0.000300      NO
         Displacement        0.108724       0.001200      NO
         Energy change     -0.030387       0.000001      NO


 New Cartesian Coordinates Obtained by Inverse Iteration

 Displacement from previous Coordinates is:  1.162012
 Adding empirical dispersion correction 
 ----------------------------------------------------------------
 Doing -D3(op) with
 s6 =   1.00000
 s8 =   0.78311
 a1 =   0.30000
 a2 =   4.25000
 n  =  10.00000
 -D3 energy without 3body term =     -0.0354476575 hartrees
 ----------------------------------------------------------------
             Standard Nuclear Orientation (Angstroms)
    I     Atom           X                Y                Z
 ----------------------------------------------------------------
    1      C      -0.0476270089     0.8982604753     0.6804159275
    2      C       0.7000731139    -0.4853514787     0.6569754927
    3      C      -1.3975524235     0.8599865397    -0.1066609448
    4      C      -0.1863015336    -1.6560048848     0.0965887109
    5      O      -2.1879435145     1.9739202012     0.2961087120
    6      O      -1.7471240453     0.0124968015    -0.9599060517
    7      O      -1.2646633192    -1.8311119901     1.0196576205
    8      O       0.0302644603    -2.4165870738    -0.8719275876
    9      C      -2.1473375820    -2.9144147304     0.5494270758
   10      C      -3.4600664756     1.9776427610    -0.4533242360
   11      C       0.9985275602     1.8301407638    -0.0587999352
   12      C       2.2339860691     2.0583246363     0.8923992585
   13      C       2.9667313392     0.6707539061     0.7707839021
   14      C       1.9965032723    -0.1248724829    -0.2045608330
   15      O       1.5335026378     0.9493709399    -1.1203278374
   16      H      -0.2498174234     1.2415052627     1.7112087779
   17      H       1.0218064173    -0.7726287675     1.6746495504
   18      H      -1.6158688506    -3.8877707470     0.5055835193
   19      H      -3.2921277053     2.0440931029    -1.5481741555
   20      H       2.8656664817     2.8734058991     0.5038408376
   21      H       1.9374642978     2.3078638100     1.9240379805
   22      H       3.9538881340     0.7913400542     0.2959536311
   23      H       3.1091983113     0.1659603308     1.7399586880
   24      H      -2.9709243256    -2.9780567543     1.2851179520
   25      H      -2.5645011470    -2.6947680630    -0.4549646046
   26      H      -4.0135107691     2.8714362312    -0.1098072547
   27      H      -4.0603886261     1.0682480710    -0.2436437782
   28      H       0.5642173055     2.7442949678    -0.5094789020
   29      C       2.6724071821    -1.2654028174    -1.0064778271
   30      H       3.6154606009    -0.9002734018    -1.4430867470
   31      H       2.8903111904    -2.1209299703    -0.3498334343
   32      H       2.0093031155    -1.5988372780    -1.8186964219
 ----------------------------------------------------------------
 Molecular Point Group                 C1    NOp =  1
 Largest Abelian Subgroup              C1    NOp =  1
 Nuclear Repulsion Energy =  1228.5944135630 hartrees
 There are       61 alpha and       61 beta electrons
 Applying Cartesian multipole field
    Component          Value
    ---------          -----
     (2,0,0)        1.00000E-11
     (0,2,0)        2.00000E-11
     (0,0,2)       -3.00000E-11
 Nucleus-field energy     =     0.0000000339 hartrees
 Requested basis set is STO-3G
 There are 48 shells and 96 basis functions
 A cutoff of  1.0D-12 yielded   1023 shell pairs
 There are      4512 function pairs
 Smallest overlap matrix eigenvalue = 2.13E-01
 Guess MOs from SCF MO coefficient file
 Reading MOs from coefficient file
 Reading MOs from coefficient file
 A restricted hybrid HF-DFT SCF calculation will be
 performed using Pulay DIIS extrapolation
 Exchange:     0.2000 Hartree-Fock + 0.0800 Slater + 0.7200 B88
 Correlation:  0.1900 VWN1RPA + 0.8100 LYP
 Using SG-1 standard quadrature grid
 Dispersion:   Grimme D3
 SCF converges when DIIS error is below 1.0E-08
 Geometry optimization detected.  Setting ReadMinima to 0
 Setting SaveMinima to 0
 -------------------------------------------------------
 OpenMP Integral computing Module                
 Release: version 1.0, May 2013, Q-Chem Inc. Pittsburgh 
 -------------------------------------------------------
 -------------------------------------------------------
 OpenMP BLAS3 based DFT computing Module                
 Release: version 1.0, May 2013, Q-Chem Inc. Pittsburgh 
 -------------------------------------------------------
 ---------------------------------------
  Cycle       Energy         DIIS Error
 ---------------------------------------
    1    -794.4853922177      5.32E-03
    2    -794.5868767657      1.26E-03
    3    -794.5826087994      2.25E-03
    4    -794.5888925830      4.21E-04
    5    -794.5891278471      1.07E-04
    6    -794.5891434150      2.45E-05
    7    -794.5891437498      2.06E-05
    8    -794.5891442959      4.83E-06
    9    -794.5891443295      7.43E-07
   10    -794.5891443302      3.31E-07
   11    -794.5891443304      5.51E-08
   12    -794.5891443304      2.24E-08
   13    -794.5891443305      4.20E-09 Convergence criterion met
 ---------------------------------------
 SCF time:  CPU 57.32 s  wall 2.41 s
 SCF   energy in the final basis set = -794.5891443305
 Total energy in the final basis set = -794.5891443305
 
 --------------------------------------------------------------
 
                    Orbital Energies (a.u.)
 --------------------------------------------------------------
 
 Alpha MOs
 -- Occupied --
-18.941 -18.920 -18.879 -18.877 -18.861 -10.102 -10.090 -10.068
-10.058 -10.058 -10.055 -10.036 -10.029 -10.017 -10.012 -10.004
 -1.018  -1.000  -0.965  -0.940  -0.924  -0.761  -0.726  -0.717
 -0.673  -0.654  -0.635  -0.590  -0.541  -0.525  -0.492  -0.470
 -0.453  -0.439  -0.429  -0.416  -0.414  -0.404  -0.401  -0.380
 -0.376  -0.366  -0.357  -0.350  -0.340  -0.334  -0.311  -0.306
 -0.306  -0.295  -0.289  -0.276  -0.267  -0.255  -0.244  -0.227
 -0.182  -0.165  -0.156  -0.139  -0.138
 -- Virtual --
  0.095   0.119   0.238   0.254   0.275   0.288   0.309   0.327
  0.344   0.346   0.360   0.373   0.387   0.394   0.406   0.419
  0.423   0.424   0.427   0.430   0.433   0.436   0.439   0.441
  0.450   0.464   0.476   0.480   0.491   0.505   0.514   0.548
  0.554   0.646   0.659
 --------------------------------------------------------------
 
          Ground-State Mulliken Net Atomic Charges

     Atom                 Charge (a.u.)
  ----------------------------------------
      1 C                    -0.078425
      2 C                    -0.082119
      3 C                     0.216479
      4 C                     0.216819
      5 O                    -0.168970
      6 O                    -0.209620
      7 O                    -0.180052
      8 O                    -0.215538
      9 C                    -0.127544
     10 C                    -0.127241
     11 C                     0.024806
     12 C                    -0.144559
     13 C                    -0.144550
     14 C                     0.105173
     15 O                    -0.195537
     16 H                     0.086954
     17 H                     0.082808
     18 H                     0.085670
     19 H                     0.090806
     20 H                     0.076888
     21 H                     0.072790
     22 H                     0.074349
     23 H                     0.069929
     24 H                     0.085336
     25 H                     0.092005
     26 H                     0.091013
     27 H                     0.089810
     28 H                     0.082188
     29 C                    -0.227382
     30 H                     0.077999
     31 H                     0.079458
     32 H                     0.100258
  ----------------------------------------
  Sum of atomic charges =    -0.000000

 -----------------------------------------------------------------
                    Cartesian Multipole Moments
 -----------------------------------------------------------------
    Charge (ESU x 10^10)
                -0.0000
    Dipole Moment (Debye)
         X      -0.6613      Y       1.1047      Z       2.0340
       Tot       2.4073
    Quadrupole Moments (Debye-Ang)
        XX     -77.7662     XY      -0.6274     YY     -84.2888
        XZ       2.7504     YZ      -3.0238     ZZ     -89.7084
    Octopole Moments (Debye-Ang^2)
       XXX     -42.0711    XXY       0.0326    XYY     -19.1386
       YYY     -10.4072    XXZ      -4.4206    XYZ       6.4325
       YYZ       1.2375    XZZ      -5.8342    YZZ      -0.6033
       ZZZ      -6.2890
    Hexadecapole Moments (Debye-Ang^3)
      XXXX   -2072.0911   XXXY     -71.0108   XXYY    -568.5470
      XYYY     -17.5667   YYYY   -1496.3822   XXXZ     -20.2320
      XXYZ     -21.1299   XYYZ       1.8958   YYYZ     -53.5616
      XXZZ    -436.1282   XYZZ     -20.1657   YYZZ    -326.9171
      XZZZ      -5.8893   YZZZ     -12.9529   ZZZZ    -377.9193
 -----------------------------------------------------------------
 Calculating analytic gradient of the SCF energy
 Gradient of SCF Energy
            1           2           3           4           5           6
    1   0.0033029  -0.0047875  -0.0032727  -0.0070347  -0.0005489   0.0007609
    2  -0.0023467   0.0016738   0.0032832   0.0038360  -0.0013824  -0.0014503
    3  -0.0055871   0.0024401  -0.0001723   0.0037688  -0.0003106   0.0001129
            7           8           9          10          11          12
    1   0.0026441   0.0018693   0.0031023   0.0043674  -0.0019344  -0.0024962
    2  -0.0002927  -0.0025697   0.0024120  -0.0017570   0.0009486  -0.0006273
    3  -0.0035054  -0.0003021  -0.0004376   0.0014336   0.0041975  -0.0000386
           13          14          15          16          17          18
    1  -0.0014624  -0.0029096   0.0030023  -0.0001537   0.0030648   0.0001636
    2  -0.0011744  -0.0020660   0.0001801  -0.0009632   0.0001242  -0.0002232
    3  -0.0010291  -0.0001602   0.0006417   0.0008471  -0.0006537   0.0003012
           19          20          21          22          23          24
    1  -0.0000351   0.0004307   0.0007700   0.0002345   0.0013953  -0.0001045
    2   0.0001542  -0.0001637   0.0010908   0.0004143  -0.0000303   0.0002959
    3  -0.0003311  -0.0003284   0.0001078  -0.0000046   0.0002267   0.0002709
           25          26          27          28          29          30
    1  -0.0003411   0.0000696  -0.0002672   0.0001786  -0.0015148   0.0002155
    2  -0.0002948   0.0002756  -0.0000493  -0.0004410  -0.0005475   0.0003003
    3  -0.0000515   0.0002089   0.0001880  -0.0016775   0.0023846  -0.0005873
           31          32
    1   0.0000232   0.0012677
    2  -0.0000694   0.0014598
    3  -0.0000458  -0.0019069
 Max gradient component =       7.035E-03
 RMS gradient           =       1.896E-03
 Gradient time:  CPU 15.98 s  wall 0.67 s
 Geometry Optimization Parameters
   NAtoms,    NIC,     NZ,  NCons,   NDum,   NFix, NCnnct, MaxDiis
       32     251       0       2       0       0       0       0

 Cartesian Hessian Update
 Hessian Updated using BFGS Update


** CONSTRAINED OPTIMIZATION IN DELOCALIZED INTERNAL COORDINATES **
   Searching for a Minimum

   Optimization Cycle:   3

                       Coordinates (Angstroms)
     ATOM                X               Y               Z
      1  C        -0.0476270089    0.8982604753    0.6804159275
      2  C         0.7000731139   -0.4853514787    0.6569754927
      3  C        -1.3975524235    0.8599865397   -0.1066609448
      4  C        -0.1863015336   -1.6560048848    0.0965887109
      5  O        -2.1879435145    1.9739202012    0.2961087120
      6  O        -1.7471240453    0.0124968015   -0.9599060517
      7  O        -1.2646633192   -1.8311119901    1.0196576205
      8  O         0.0302644603   -2.4165870738   -0.8719275876
      9  C        -2.1473375820   -2.9144147304    0.5494270758
     10  C        -3.4600664756    1.9776427610   -0.4533242360
     11  C         0.9985275602    1.8301407638   -0.0587999352
     12  C         2.2339860691    2.0583246363    0.8923992585
     13  C         2.9667313392    0.6707539061    0.7707839021
     14  C         1.9965032723   -0.1248724829   -0.2045608330
     15  O         1.5335026378    0.9493709399   -1.1203278374
     16  H        -0.2498174234    1.2415052627    1.7112087779
     17  H         1.0218064173   -0.7726287675    1.6746495504
     18  H        -1.6158688506   -3.8877707470    0.5055835193
     19  H        -3.2921277053    2.0440931029   -1.5481741555
     20  H         2.8656664817    2.8734058991    0.5038408376
     21  H         1.9374642978    2.3078638100    1.9240379805
     22  H         3.9538881340    0.7913400542    0.2959536311
     23  H         3.1091983113    0.1659603308    1.7399586880
     24  H        -2.9709243256   -2.9780567543    1.2851179520
     25  H        -2.5645011470   -2.6947680630   -0.4549646046
     26  H        -4.0135107691    2.8714362312   -0.1098072547
     27  H        -4.0603886261    1.0682480710   -0.2436437782
     28  H         0.5642173055    2.7442949678   -0.5094789020
     29  C         2.6724071821   -1.2654028174   -1.0064778271
     30  H         3.6154606009   -0.9002734018   -1.4430867470
     31  H         2.8903111904   -2.1209299703   -0.3498334343
     32  H         2.0093031155   -1.5988372780   -1.8186964219
   Point Group: c1    Number of degrees of freedom:    90


   Energy is   -794.589144330

              Constraints and their Current Values
                                        Value     Constraint
   Dihedral:        2   1   3   5      162.298      162.300
   Dihedral:        1   2   4   7      -64.983      -65.000
 Hessian Updated using BFGS Update

   Using Lagrange Multiplier Algorithm


 83 Hessian modes will be used to form the next step
  Hessian Eigenvalues:
    -0.977757   -0.975720    0.043226    0.045000    0.045003    0.045035
     0.045375    0.045524    0.048586    0.059453    0.060251    0.066673
     0.068341    0.070825    0.073030    0.073542    0.075993    0.079585
     0.080850    0.082118    0.083043    0.083712    0.084465    0.085708
     0.090128    0.091255    0.092204    0.096856    0.107700    0.113178
     0.113694    0.113796    0.116927    0.116976    0.123688    0.128526
     0.140293    0.143604    0.159107    0.160448    0.161644    0.174583
     0.181662    0.242767    0.245916    0.248977    0.249982    0.250106
     0.251574    0.262372    0.267000    0.273146    0.289778    0.295477
     0.306409    0.308688    0.316930    0.329083    0.336962    0.339873
     0.340634    0.340960    0.341658    0.341807    0.342511    0.342968
     0.343209    0.343322    0.343525    0.343583    0.343701    0.344429
     0.344599    0.345143    0.376857    0.395970    0.412120    0.478761
     0.513514    0.952624    0.981395    1.022754    1.034219

 Minimum Search - Taking P-RFO Step
 Searching for Lamda that Maximizes Along the Constraint modes Only
 Value Taken    Lamda =   0.00004152
 Searching for Lamda that Minimizes Along All other modes
 Value Taken    Lamda =  -0.00136188
 Step Taken.  Stepsize is  0.129623

                             Maximum     Tolerance    Cnvgd?
         Gradient            0.009290       0.000300      NO
         Displacement        0.055571       0.001200      NO
         Energy change     -0.007266       0.000001      NO


 New Cartesian Coordinates Obtained by Inverse Iteration

 Displacement from previous Coordinates is:  0.232348
 Adding empirical dispersion correction 
 ----------------------------------------------------------------
 Doing -D3(op) with
 s6 =   1.00000
 s8 =   0.78311
 a1 =   0.30000
 a2 =   4.25000
 n  =  10.00000
 -D3 energy without 3body term =     -0.0354435091 hartrees
 ----------------------------------------------------------------
             Standard Nuclear Orientation (Angstroms)
    I     Atom           X                Y                Z
 ----------------------------------------------------------------
    1      C      -0.0437594823     0.9004806043     0.6916282739
    2      C       0.7140485071    -0.4894312924     0.6642523518
    3      C      -1.3961173976     0.8624712009    -0.0984235386
    4      C      -0.1668832318    -1.6704124649     0.1005146078
    5      O      -2.1997012566     1.9750626086     0.3041401548
    6      O      -1.7473623392     0.0201558048    -0.9564964520
    7      O      -1.2522232656    -1.8580870842     1.0283124158
    8      O       0.0349679852    -2.4088934820    -0.8871806994
    9      C      -2.1572049967    -2.9224167873     0.5384952856
   10      C      -3.4766815183     1.9857000110    -0.4523059183
   11      C       1.0012999730     1.8287506572    -0.0637823076
   12      C       2.2425438820     2.0667322214     0.8816139427
   13      C       2.9798017169     0.6832243550     0.7648615380
   14      C       2.0082897695    -0.1222832167    -0.2033037247
   15      O       1.5242282529     0.9406102048    -1.1262922840
   16      H      -0.2433104316     1.2508023565     1.7197612198
   17      H       1.0248235667    -0.7738991679     1.6855798704
   18      H      -1.6386520451    -3.9003635630     0.4610982968
   19      H      -3.3035104813     2.0593382024    -1.5455078747
   20      H       2.8667072135     2.8866607964     0.4916712984
   21      H       1.9411590225     2.3117331783     1.9128241100
   22      H       3.9664121058     0.7999087689     0.2883804652
   23      H       3.1166841723     0.1821577734     1.7361318346
   24      H      -2.9763788662    -2.9962697840     1.2777913308
   25      H      -2.5753348393    -2.6677956724    -0.4571451781
   26      H      -4.0334682309     2.8751553110    -0.1039639797
   27      H      -4.0742129962     1.0721450089    -0.2540081655
   28      H       0.5582668322     2.7421976577    -0.5073881031
   29      C       2.6798299650    -1.2748615017    -0.9957352193
   30      H       3.6176952302    -0.9198391534    -1.4495142906
   31      H       2.9047086982    -2.1153964280    -0.3220553250
   32      H       1.9968912260    -1.6313028099    -1.7809168501
 ----------------------------------------------------------------
 Molecular Point Group                 C1    NOp =  1
 Largest Abelian Subgroup              C1    NOp =  1
 Nuclear Repulsion Energy =  1225.5100441865 hartrees
 There are       61 alpha and       61 beta electrons
 Applying Cartesian multipole field
    Component          Value
    ---------          -----
     (2,0,0)        1.00000E-11
     (0,2,0)        2.00000E-11
     (0,0,2)       -3.00000E-11
 Nucleus-field energy     =     0.0000000341 hartrees
 Requested basis set is STO-3G
 There are 48 shells and 96 basis functions
 A cutoff of  1.0D-12 yielded   1022 shell pairs
 There are      4508 function pairs
 Smallest overlap matrix eigenvalue = 2.14E-01
 Guess MOs from SCF MO coefficient file
 Reading MOs from coefficient file
 Reading MOs from coefficient file
 A restricted hybrid HF-DFT SCF calculation will be
 performed using Pulay DIIS extrapolation
 Exchange:     0.2000 Hartree-Fock + 0.0800 Slater + 0.7200 B88
 Correlation:  0.1900 VWN1RPA + 0.8100 LYP
 Using SG-1 standard quadrature grid
 Dispersion:   Grimme D3
 SCF converges when DIIS error is below 1.0E-08
 Geometry optimization detected.  Setting ReadMinima to 0
 Setting SaveMinima to 0
 -------------------------------------------------------
 OpenMP Integral computing Module                
 Release: version 1.0, May 2013, Q-Chem Inc. Pittsburgh 
 -------------------------------------------------------
 -------------------------------------------------------
 OpenMP BLAS3 based DFT computing Module                
 Release: version 1.0, May 2013, Q-Chem Inc. Pittsburgh 
 -------------------------------------------------------
 ---------------------------------------
  Cycle       Energy         DIIS Error
 ---------------------------------------
    1    -794.5727207785      1.47E-03
    2    -794.5896846491      3.74E-04
    3    -794.5890614219      7.91E-04
    4    -794.5898731570      6.74E-05
    5    -794.5898790966      2.27E-05
    6    -794.5898796416      1.09E-05
    7    -794.5898797577      5.50E-06
    8    -794.5898797986      9.96E-07
    9    -794.5898798001      1.47E-07
   10    -794.5898798001      7.67E-08
   11    -794.5898798001      1.22E-08
   12    -794.5898798001      4.56E-09 Convergence criterion met
 ---------------------------------------
 SCF time:  CPU 52.87 s  wall 2.23 s
 SCF   energy in the final basis set = -794.5898798001
 Total energy in the final basis set = -794.5898798001
 
 --------------------------------------------------------------
 
                    Orbital Energies (a.u.)
 --------------------------------------------------------------
 
 Alpha MOs
 -- Occupied --
-18.938 -18.918 -18.879 -18.878 -18.864 -10.100 -10.090 -10.066
-10.059 -10.058 -10.054 -10.036 -10.030 -10.018 -10.013 -10.004
 -1.013  -0.997  -0.964  -0.937  -0.924  -0.760  -0.725  -0.717
 -0.672  -0.653  -0.635  -0.591  -0.540  -0.524  -0.490  -0.469
 -0.452  -0.438  -0.429  -0.413  -0.413  -0.403  -0.400  -0.380
 -0.376  -0.366  -0.357  -0.349  -0.339  -0.334  -0.311  -0.307
 -0.306  -0.295  -0.289  -0.275  -0.267  -0.254  -0.244  -0.227
 -0.180  -0.165  -0.155  -0.141  -0.139
 -- Virtual --
  0.095   0.117   0.234   0.250   0.270   0.286   0.307   0.326
  0.341   0.343   0.356   0.373   0.384   0.392   0.404   0.419
  0.422   0.423   0.427   0.429   0.432   0.434   0.439   0.441
  0.450   0.463   0.474   0.479   0.492   0.502   0.512   0.546
  0.553   0.645   0.657
 --------------------------------------------------------------
 
          Ground-State Mulliken Net Atomic Charges

     Atom                 Charge (a.u.)
  ----------------------------------------
      1 C                    -0.077838
      2 C                    -0.081359
      3 C                     0.213983
      4 C                     0.215267
      5 O                    -0.169219
      6 O                    -0.209905
      7 O                    -0.178666
      8 O                    -0.213212
      9 C                    -0.128968
     10 C                    -0.128367
     11 C                     0.024728
     12 C                    -0.144545
     13 C                    -0.144816
     14 C                     0.104871
     15 O                    -0.194082
     16 H                     0.087034
     17 H                     0.082613
     18 H                     0.085616
     19 H                     0.090586
     20 H                     0.077161
     21 H                     0.073038
     22 H                     0.074859
     23 H                     0.070621
     24 H                     0.085766
     25 H                     0.091902
     26 H                     0.091148
     27 H                     0.089634
     28 H                     0.082086
     29 C                    -0.228567
     30 H                     0.078310
     31 H                     0.078834
     32 H                     0.101485
  ----------------------------------------
  Sum of atomic charges =    -0.000000

 -----------------------------------------------------------------
                    Cartesian Multipole Moments
 -----------------------------------------------------------------
    Charge (ESU x 10^10)
                -0.0000
    Dipole Moment (Debye)
         X      -0.5938      Y       1.0758      Z       2.0354
       Tot       2.3776
    Quadrupole Moments (Debye-Ang)
        XX     -77.6535     XY      -0.5386     YY     -84.1365
        XZ       2.8006     YZ      -2.9451     ZZ     -89.8107
    Octopole Moments (Debye-Ang^2)
       XXX     -42.8918    XXY       0.1362    XYY     -19.3877
       YYY     -10.6131    XXZ      -4.5861    XYZ       6.3990
       YYZ       0.8567    XZZ      -6.0267    YZZ      -0.3007
       ZZZ      -6.1995
    Hexadecapole Moments (Debye-Ang^3)
      XXXX   -2081.9833   XXXY     -70.2605   XXYY    -571.2190
      XYYY     -15.9511   YYYY   -1503.2190   XXXZ     -20.5976
      XXYZ     -21.8406   XYYZ       1.8114   YYYZ     -53.0487
      XXZZ    -438.3321   XYZZ     -19.8462   YYZZ    -328.8606
      XZZZ      -5.9995   YZZZ     -13.4382   ZZZZ    -377.8107
 -----------------------------------------------------------------
 Calculating analytic gradient of the SCF energy
 Gradient of SCF Energy
            1           2           3           4           5           6
    1   0.0013704  -0.0005812   0.0014476   0.0001090  -0.0000012  -0.0006273
    2   0.0005950  -0.0001970   0.0019895   0.0012072  -0.0009557  -0.0011564
    3  -0.0004300   0.0020890   0.0003437   0.0005651   0.0004466  -0.0007582
            7           8           9          10          11          12
    1  -0.0005070   0.0009981  -0.0010833  -0.0013825  -0.0006715  -0.0004978
    2   0.0003014  -0.0018353  -0.0004961   0.0010230   0.0014574  -0.0001423
    3  -0.0002174  -0.0005506   0.0007019  -0.0000271   0.0021342   0.0007094
           13          14          15          16          17          18
    1   0.0000617  -0.0008630   0.0009922  -0.0004626   0.0014777   0.0000065
    2  -0.0001540  -0.0010548   0.0000927  -0.0004772   0.0002125  -0.0001315
    3   0.0004365  -0.0001626  -0.0020848   0.0000897  -0.0007134  -0.0001113
           19          20          21          22          23          24
    1  -0.0001459   0.0002774   0.0002368   0.0000443   0.0005873  -0.0003312
    2  -0.0001920  -0.0001362   0.0004693   0.0002368   0.0000821  -0.0001696
    3  -0.0001308  -0.0003333   0.0000706  -0.0002263   0.0000146   0.0000154
           25          26          27          28          29          30
    1   0.0001382  -0.0004156  -0.0001366  -0.0002672  -0.0000790   0.0004057
    2  -0.0001690   0.0001060  -0.0001103  -0.0002276  -0.0008665   0.0000650
    3  -0.0001609  -0.0002067  -0.0001631  -0.0006987  -0.0000751   0.0004175
           31          32
    1  -0.0005799   0.0004796
    2  -0.0002375   0.0008709
    3  -0.0002033  -0.0007804
 Max gradient component =       2.134E-03
 RMS gradient           =       7.381E-04
 Gradient time:  CPU 16.16 s  wall 0.68 s
 Geometry Optimization Parameters
   NAtoms,    NIC,     NZ,  NCons,   NDum,   NFix, NCnnct, MaxDiis
       32     251       0       2       0       0       0       0

 Cartesian Hessian Update
 Hessian Updated using BFGS Update


** CONSTRAINED OPTIMIZATION IN DELOCALIZED INTERNAL COORDINATES **
   Searching for a Minimum

   Optimization Cycle:   4

                       Coordinates (Angstroms)
     ATOM                X               Y               Z
      1  C        -0.0437594823    0.9004806043    0.6916282739
      2  C         0.7140485071   -0.4894312924    0.6642523518
      3  C        -1.3961173976    0.8624712009   -0.0984235386
      4  C        -0.1668832318   -1.6704124649    0.1005146078
      5  O        -2.1997012566    1.9750626086    0.3041401548
      6  O        -1.7473623392    0.0201558048   -0.9564964520
      7  O        -1.2522232656   -1.8580870842    1.0283124158
      8  O         0.0349679852   -2.4088934820   -0.8871806994
      9  C        -2.1572049967   -2.9224167873    0.5384952856
     10  C        -3.4766815183    1.9857000110   -0.4523059183
     11  C         1.0012999730    1.8287506572   -0.0637823076
     12  C         2.2425438820    2.0667322214    0.8816139427
     13  C         2.9798017169    0.6832243550    0.7648615380
     14  C         2.0082897695   -0.1222832167   -0.2033037247
     15  O         1.5242282529    0.9406102048   -1.1262922840
     16  H        -0.2433104316    1.2508023565    1.7197612198
     17  H         1.0248235667   -0.7738991679    1.6855798704
     18  H        -1.6386520451   -3.9003635630    0.4610982968
     19  H        -3.3035104813    2.0593382024   -1.5455078747
     20  H         2.8667072135    2.8866607964    0.4916712984
     21  H         1.9411590225    2.3117331783    1.9128241100
     22  H         3.9664121058    0.7999087689    0.2883804652
     23  H         3.1166841723    0.1821577734    1.7361318346
     24  H        -2.9763788662   -2.9962697840    1.2777913308
     25  H        -2.5753348393   -2.6677956724   -0.4571451781
     26  H        -4.0334682309    2.8751553110   -0.1039639797
     27  H        -4.0742129962    1.0721450089   -0.2540081655
     28  H         0.5582668322    2.7421976577   -0.5073881031
     29  C         2.6798299650   -1.2748615017   -0.9957352193
     30  H         3.6176952302   -0.9198391534   -1.4495142906
     31  H         2.9047086982   -2.1153964280   -0.3220553250
     32  H         1.9968912260   -1.6313028099   -1.7809168501
   Point Group: c1    Number of degrees of freedom:    90


   Energy is   -794.589879800

              Constraints and their Current Values
                                        Value     Constraint
   Dihedral:        2   1   3   5      162.300      162.300
   Dihedral:        1   2   4   7      -65.000      -65.000
 Hessian Updated using BFGS Update

   Using Lagrange Multiplier Algorithm


 84 Hessian modes will be used to form the next step
  Hessian Eigenvalues:
    -0.975915    0.028463    0.045000    0.045002    0.045019    0.045141
     0.045490    0.045793    0.048523    0.057766    0.059476    0.065852
     0.068339    0.070941    0.072663    0.073505    0.075318    0.079699
     0.080902    0.082088    0.082999    0.083712    0.084478    0.085823
     0.090136    0.091240    0.092206    0.096919    0.107600    0.113557
     0.113796    0.114513    0.116927    0.116980    0.123600    0.128694
     0.140685    0.143814    0.159178    0.160134    0.160811    0.161696
     0.173622    0.181532    0.241972    0.245449    0.248963    0.249999
     0.250028    0.250197    0.251487    0.262444    0.267716    0.286809
     0.292592    0.299313    0.307181    0.309546    0.321719    0.328542
     0.337607    0.340276    0.340745    0.341523    0.341756    0.342445
     0.342952    0.343176    0.343321    0.343515    0.343565    0.343696
     0.344371    0.344519    0.344969    0.348367    0.380050    0.412106
     0.449654    0.513446    0.533753    0.952707    0.977780    1.035566

 Minimum Search - Taking P-RFO Step
 Searching for Lamda that Maximizes Along the Constraint modes Only
 Value Taken    Lamda =   0.00000005
 Searching for Lamda that Minimizes Along All other modes
 Value Taken    Lamda =  -0.00038312
 Step Taken.  Stepsize is  0.101076

                             Maximum     Tolerance    Cnvgd?
         Gradient            0.003585       0.000300      NO
         Displacement        0.034826       0.001200      NO
         Energy change     -0.000735       0.000001      NO


 New Cartesian Coordinates Obtained by Inverse Iteration

 Displacement from previous Coordinates is:  0.243355
 Adding empirical dispersion correction 
 ----------------------------------------------------------------
 Doing -D3(op) with
 s6 =   1.00000
 s8 =   0.78311
 a1 =   0.30000
 a2 =   4.25000
 n  =  10.00000
 -D3 energy without 3body term =     -0.0355360723 hartrees
 ----------------------------------------------------------------
             Standard Nuclear Orientation (Angstroms)
    I     Atom           X                Y                Z
 ----------------------------------------------------------------
    1      C      -0.0410842913     0.8960438978     0.6983051378
    2      C       0.7214182133    -0.4922957431     0.6687701402
    3      C      -1.3942571036     0.8517802390    -0.0885113337
    4      C      -0.1614057812    -1.6702724494     0.1023168959
    5      O      -2.1991643017     1.9630651424     0.3181473814
    6      O      -1.7452226457     0.0121491368    -0.9486083002
    7      O      -1.2460715775    -1.8574401162     1.0330952600
    8      O       0.0220851004    -2.3909423812    -0.9008332894
    9      C      -2.1650108183    -2.8990154881     0.5204414873
   10      C      -3.4723137645     1.9665897900    -0.4441769650
   11      C       0.9986835660     1.8230232703    -0.0696675830
   12      C       2.2426002429     2.0726664925     0.8699406295
   13      C       2.9847208515     0.6925818708     0.7589708566
   14      C       2.0135196912    -0.1219589813    -0.2010851951
   15      O       1.5147657803     0.9299718075    -1.1288501864
   16      H      -0.2365547057     1.2517135149     1.7252194712
   17      H       1.0235388941    -0.7760307861     1.6934483594
   18      H      -1.6589547030    -3.8810611749     0.4172422114
   19      H      -3.2940912782     2.0449879216    -1.5362088838
   20      H       2.8595262381     2.8969045154     0.4784028127
   21      H       1.9382908946     2.3159380011     1.9005811562
   22      H       3.9712524384     0.8067227143     0.2824551810
   23      H       3.1184193441     0.1959896155     1.7327954364
   24      H      -2.9808734038    -2.9796165196     1.2621695335
   25      H      -2.5841051829    -2.6135617695    -0.4664716137
   26      H      -4.0334885154     2.8520602059    -0.0937983799
   27      H      -4.0645267352     1.0487429609    -0.2500833416
   28      H       0.5498676982     2.7351506077    -0.5096891851
   29      C       2.6844424139    -1.2816802117    -0.9834176197
   30      H       3.6137894337    -0.9310101617    -1.4564970224
   31      H       2.9240763241    -2.1063464618    -0.2950037517
   32      H       1.9896844229    -1.6628151458    -1.7463622140
 ----------------------------------------------------------------
 Molecular Point Group                 C1    NOp =  1
 Largest Abelian Subgroup              C1    NOp =  1
 Nuclear Repulsion Energy =  1226.9673139582 hartrees
 There are       61 alpha and       61 beta electrons
 Applying Cartesian multipole field
    Component          Value
    ---------          -----
     (2,0,0)        1.00000E-11
     (0,2,0)        2.00000E-11
     (0,0,2)       -3.00000E-11
 Nucleus-field energy     =     0.0000000340 hartrees
 Requested basis set is STO-3G
 There are 48 shells and 96 basis functions
 A cutoff of  1.0D-12 yielded   1022 shell pairs
 There are      4508 function pairs
 Smallest overlap matrix eigenvalue = 2.13E-01
 Guess MOs from SCF MO coefficient file
 Reading MOs from coefficient file
 Reading MOs from coefficient file
 A restricted hybrid HF-DFT SCF calculation will be
 performed using Pulay DIIS extrapolation
 Exchange:     0.2000 Hartree-Fock + 0.0800 Slater + 0.7200 B88
 Correlation:  0.1900 VWN1RPA + 0.8100 LYP
 Using SG-1 standard quadrature grid
 Dispersion:   Grimme D3
 SCF converges when DIIS error is below 1.0E-08
 Geometry optimization detected.  Setting ReadMinima to 0
 Setting SaveMinima to 0
 -------------------------------------------------------
 OpenMP Integral computing Module                
 Release: version 1.0, May 2013, Q-Chem Inc. Pittsburgh 
 -------------------------------------------------------
 -------------------------------------------------------
 OpenMP BLAS3 based DFT computing Module                
 Release: version 1.0, May 2013, Q-Chem Inc. Pittsburgh 
 -------------------------------------------------------
 ---------------------------------------
  Cycle       Energy         DIIS Error
 ---------------------------------------
    1    -794.5889691811      1.10E-03
    2    -794.5901049942      1.06E-04
    3    -794.5900751748      2.00E-04
    4    -794.5901256310      3.66E-05
    5    -794.5901272183      1.33E-05
    6    -794.5901274498      4.44E-06
    7    -794.5901274730      1.83E-06
    8    -794.5901274770      6.10E-07
    9    -794.5901274775      8.02E-08
   10    -794.5901274776      3.92E-08
   11    -794.5901274775      8.72E-09 Convergence criterion met
 ---------------------------------------
 SCF time:  CPU 49.31 s  wall 2.08 s
 SCF   energy in the final basis set = -794.5901274775
 Total energy in the final basis set = -794.5901274775
 
 --------------------------------------------------------------
 
                    Orbital Energies (a.u.)
 --------------------------------------------------------------
 
 Alpha MOs
 -- Occupied --
-18.937 -18.918 -18.879 -18.878 -18.865 -10.100 -10.091 -10.066
-10.059 -10.058 -10.054 -10.036 -10.030 -10.018 -10.013 -10.004
 -1.014  -0.997  -0.965  -0.937  -0.924  -0.760  -0.725  -0.717
 -0.671  -0.653  -0.634  -0.591  -0.540  -0.524  -0.490  -0.469
 -0.452  -0.438  -0.429  -0.414  -0.413  -0.403  -0.401  -0.381
 -0.376  -0.366  -0.357  -0.349  -0.339  -0.335  -0.312  -0.307
 -0.306  -0.294  -0.289  -0.275  -0.267  -0.254  -0.245  -0.228
 -0.180  -0.165  -0.155  -0.141  -0.139
 -- Virtual --
  0.095   0.117   0.235   0.250   0.271   0.287   0.307   0.326
  0.341   0.344   0.355   0.373   0.384   0.392   0.403   0.419
  0.422   0.423   0.427   0.429   0.432   0.434   0.439   0.441
  0.450   0.463   0.474   0.478   0.493   0.502   0.512   0.545
  0.553   0.645   0.659
 --------------------------------------------------------------
 
          Ground-State Mulliken Net Atomic Charges

     Atom                 Charge (a.u.)
  ----------------------------------------
      1 C                    -0.078010
      2 C                    -0.081381
      3 C                     0.213969
      4 C                     0.215539
      5 O                    -0.168988
      6 O                    -0.210085
      7 O                    -0.178426
      8 O                    -0.212700
      9 C                    -0.129362
     10 C                    -0.128619
     11 C                     0.025040
     12 C                    -0.144611
     13 C                    -0.144980
     14 C                     0.105062
     15 O                    -0.193924
     16 H                     0.086926
     17 H                     0.082248
     18 H                     0.085741
     19 H                     0.090550
     20 H                     0.077271
     21 H                     0.073094
     22 H                     0.075199
     23 H                     0.070944
     24 H                     0.085528
     25 H                     0.092121
     26 H                     0.090920
     27 H                     0.089618
     28 H                     0.081921
     29 C                    -0.229463
     30 H                     0.078485
     31 H                     0.078249
     32 H                     0.102124
  ----------------------------------------
  Sum of atomic charges =     0.000000

 -----------------------------------------------------------------
                    Cartesian Multipole Moments
 -----------------------------------------------------------------
    Charge (ESU x 10^10)
                -0.0000
    Dipole Moment (Debye)
         X      -0.5644      Y       1.0739      Z       2.0341
       Tot       2.3684
    Quadrupole Moments (Debye-Ang)
        XX     -77.6845     XY      -0.5155     YY     -84.1616
        XZ       2.8013     YZ      -2.8974     ZZ     -89.9112
    Octopole Moments (Debye-Ang^2)
       XXX     -42.6391    XXY       0.0383    XYY     -18.8764
       YYY     -10.3762    XXZ      -4.6745    XYZ       6.2518
       YYZ       0.5202    XZZ      -6.0108    YZZ      -0.0429
       ZZZ      -6.2324
    Hexadecapole Moments (Debye-Ang^3)
      XXXX   -2084.4435   XXXY     -70.6043   XXYY    -570.7641
      XYYY     -17.8360   YYYY   -1491.0380   XXXZ     -20.7185
      XXYZ     -22.3152   XYYZ       1.7791   YYYZ     -53.7661
      XXZZ    -438.2773   XYZZ     -20.4718   YYZZ    -326.8789
      XZZZ      -5.4568   YZZZ     -15.6791   ZZZZ    -376.0781
 -----------------------------------------------------------------
 Calculating analytic gradient of the SCF energy
 Gradient of SCF Energy
            1           2           3           4           5           6
    1   0.0002395  -0.0002990   0.0009536   0.0015797  -0.0000561  -0.0004046
    2   0.0010442  -0.0003222   0.0003685  -0.0014277   0.0004895  -0.0011396
    3   0.0012346   0.0001561  -0.0009974  -0.0001759   0.0015217  -0.0004226
            7           8           9          10          11          12
    1  -0.0015995  -0.0001089  -0.0006070  -0.0010257   0.0002470   0.0004190
    2   0.0013128  -0.0003309  -0.0005563   0.0000418   0.0005264   0.0002522
    3   0.0010827   0.0000099  -0.0001461  -0.0006505   0.0005488   0.0004409
           13          14          15          16          17          18
    1   0.0006610   0.0000464  -0.0004106  -0.0004752   0.0005343   0.0000385
    2   0.0003188   0.0000576  -0.0001053  -0.0002305   0.0003325  -0.0001799
    3   0.0002991  -0.0001400  -0.0015119   0.0000126  -0.0000077  -0.0000636
           19          20          21          22          23          24
    1   0.0000265   0.0000427  -0.0000655  -0.0001325   0.0000818   0.0000557
    2  -0.0001472  -0.0000840   0.0000839   0.0001114   0.0000252   0.0001045
    3  -0.0001518  -0.0001279  -0.0000054  -0.0001513  -0.0000475   0.0000145
           25          26          27          28          29          30
    1   0.0000763   0.0001823  -0.0000390  -0.0002001   0.0003447   0.0004446
    2  -0.0000118   0.0000065  -0.0001822  -0.0000402  -0.0001219  -0.0001867
    3  -0.0002125   0.0000672  -0.0000285   0.0000677  -0.0008593   0.0008176
           31          32
    1  -0.0008746   0.0003245
    2  -0.0003973   0.0003882
    3  -0.0002285  -0.0003450
 Max gradient component =       1.599E-03
 RMS gradient           =       5.572E-04
 Gradient time:  CPU 16.00 s  wall 0.67 s
 Geometry Optimization Parameters
   NAtoms,    NIC,     NZ,  NCons,   NDum,   NFix, NCnnct, MaxDiis
       32     251       0       2       0       0       0       0

 Cartesian Hessian Update
 Hessian Updated using BFGS Update


** CONSTRAINED OPTIMIZATION IN DELOCALIZED INTERNAL COORDINATES **
   Searching for a Minimum

   Optimization Cycle:   5

                       Coordinates (Angstroms)
     ATOM                X               Y               Z
[...]
 TransDip   0.135  0.218  0.162   -0.141  0.407  0.416   -0.128  0.039  0.039

 Mode:                76                     77                     78
 Frequency:      3048.69                3049.77                3055.06
 Force Cnst:      5.6372                 5.6423                 5.8749
 Red. Mass:       1.0294                 1.0296                 1.0683
 IR Active:          YES                    YES                    YES
 IR Intens:       33.980                 37.117                 12.688
 Raman Active:       YES                    YES                    YES
               X      Y      Z        X      Y      Z        X      Y      Z
 C          0.000 -0.000 -0.001   -0.000  0.000  0.001   -0.001  0.002  0.007
 C          0.001 -0.001  0.005   -0.000  0.000 -0.001   -0.013  0.012 -0.048
 C         -0.000  0.000  0.000    0.001 -0.002 -0.001    0.000 -0.000  0.000
 C          0.002 -0.000 -0.002    0.000 -0.000 -0.000    0.000 -0.000 -0.002
 O          0.000 -0.000  0.000   -0.002  0.001 -0.001   -0.000  0.000 -0.000
 O         -0.000 -0.000 -0.000    0.000  0.001  0.001   -0.000 -0.000 -0.000
 O         -0.002 -0.001  0.000   -0.000 -0.000  0.000   -0.000 -0.000  0.000
 O         -0.000  0.001  0.001   -0.000  0.000  0.000   -0.000  0.000  0.000
 C         -0.023 -0.032 -0.019   -0.003 -0.004 -0.002   -0.001 -0.002 -0.001
 C          0.004  0.000  0.003   -0.034 -0.002 -0.028    0.000  0.000  0.000
 C          0.000 -0.000  0.000   -0.000  0.000 -0.000   -0.001  0.002 -0.001
 C          0.000  0.000  0.000   -0.000 -0.001 -0.000   -0.008 -0.025 -0.019
 C         -0.002  0.001 -0.001   -0.000  0.000 -0.000    0.032 -0.017  0.023
 C          0.000  0.000 -0.000    0.000  0.000  0.000   -0.001 -0.000 -0.000
 O         -0.000 -0.000  0.000   -0.000  0.000  0.000    0.000  0.000  0.000
 H         -0.001  0.002  0.007    0.002 -0.003 -0.009    0.016 -0.028 -0.086
 H         -0.015  0.013 -0.054    0.002 -0.001  0.006    0.159 -0.137  0.579
 H         -0.250  0.579 -0.015   -0.029  0.067 -0.002   -0.014  0.033 -0.001
 H          0.016  0.015 -0.069   -0.135 -0.133  0.594    0.002  0.002 -0.008
 H         -0.002 -0.002  0.001    0.004  0.005 -0.002    0.188  0.223 -0.111
 H          0.001 -0.001 -0.004   -0.002  0.001  0.005   -0.103  0.068  0.330
 H          0.016  0.002 -0.008    0.005  0.000 -0.003   -0.328 -0.037  0.168
 H          0.002 -0.011  0.021    0.000 -0.002  0.004   -0.037  0.233 -0.430
 H          0.323 -0.047 -0.313    0.037 -0.005 -0.036    0.019 -0.003 -0.018
 H          0.218 -0.134  0.558    0.026 -0.016  0.066    0.013 -0.007  0.032
 H         -0.021  0.041  0.024    0.180 -0.348 -0.202   -0.002  0.004  0.002
 H         -0.044 -0.059  0.005    0.377  0.507 -0.040   -0.005 -0.006  0.000
 H         -0.001  0.002 -0.001    0.001 -0.002  0.001    0.008 -0.023  0.009
 C          0.001 -0.001 -0.000    0.001 -0.001 -0.000    0.003 -0.002 -0.001
 H         -0.017 -0.008  0.009   -0.009 -0.004  0.005   -0.034 -0.016  0.018
 H         -0.006  0.017 -0.013   -0.003  0.009 -0.007   -0.009  0.030 -0.023
 H          0.007  0.003  0.007    0.004  0.002  0.004    0.011  0.007  0.014
 TransDip  -0.119 -0.144  0.014   -0.179  0.046 -0.061    0.066 -0.086 -0.036

 Mode:                79                     80                     81
 Frequency:      3059.83                3067.33                3093.89
 Force Cnst:      5.9083                 5.8874                 6.2453
 Red. Mass:       1.0711                 1.0621                 1.1074
 IR Active:          YES                    YES                    YES
 IR Intens:       22.698                 37.885                  0.618
 Raman Active:       YES                    YES                    YES
               X      Y      Z        X      Y      Z        X      Y      Z
 C         -0.001  0.001  0.004   -0.001  0.002  0.007   -0.002  0.003  0.009
 C         -0.015  0.014 -0.055   -0.005  0.005 -0.022    0.002 -0.002  0.007
 C          0.000 -0.000  0.000    0.000  0.000  0.000   -0.000  0.000  0.000
 C          0.000 -0.000 -0.002    0.000  0.000 -0.000   -0.000  0.000  0.000
 O         -0.000  0.000 -0.000   -0.000  0.000 -0.000    0.000 -0.000 -0.000
 O         -0.000 -0.000 -0.000   -0.000 -0.000 -0.000    0.000 -0.000 -0.000
 O         -0.000 -0.000  0.000   -0.000 -0.000  0.000   -0.000 -0.000 -0.000
 O         -0.000  0.000  0.000   -0.000  0.000  0.000    0.000 -0.000 -0.000
 C         -0.001 -0.001 -0.001    0.000 -0.000  0.000    0.000  0.000 -0.000
 C          0.000 -0.000  0.000    0.000  0.000  0.000    0.000 -0.000 -0.000
 C          0.001 -0.003  0.001   -0.001  0.004 -0.002    0.003 -0.006  0.002
 C          0.011  0.036  0.025   -0.008 -0.032 -0.024    0.038  0.025 -0.052
 C         -0.016  0.003 -0.002   -0.044  0.018 -0.019   -0.032 -0.021  0.049
 C         -0.001 -0.000 -0.000   -0.000  0.001  0.000   -0.001 -0.000  0.000
 O          0.000 -0.000  0.000    0.000 -0.000  0.000   -0.000  0.000  0.000
 H          0.009 -0.013 -0.043    0.014 -0.026 -0.078    0.018 -0.036 -0.105
 H          0.181 -0.157  0.661    0.072 -0.063  0.263   -0.021  0.020 -0.083
 H         -0.009  0.021 -0.001   -0.000  0.001 -0.000    0.001 -0.001  0.000
 H          0.001  0.001 -0.002    0.002  0.002 -0.008   -0.000 -0.000  0.000
 H         -0.271 -0.321  0.159    0.228  0.271 -0.135   -0.327 -0.396  0.175
 H          0.141 -0.093 -0.449   -0.130  0.087  0.414   -0.130  0.105  0.447
 H          0.180  0.018 -0.086    0.471  0.050 -0.235    0.422  0.038 -0.195
 H          0.008 -0.057  0.110    0.038 -0.252  0.463   -0.046  0.210 -0.387
 H          0.011 -0.002 -0.011    0.000 -0.000 -0.000   -0.001  0.000  0.001
 H          0.008 -0.004  0.020   -0.000  0.000 -0.001   -0.000 -0.000 -0.000
 H         -0.001  0.001  0.001   -0.002  0.004  0.002   -0.000  0.000  0.000
 H         -0.001 -0.002  0.000   -0.004 -0.006  0.000   -0.000 -0.000  0.000
 H         -0.011  0.031 -0.012    0.020 -0.053  0.023   -0.029  0.069 -0.033
 C         -0.004  0.003  0.001   -0.004  0.003  0.001    0.005  0.011 -0.009
 H          0.050  0.023 -0.027    0.049  0.022 -0.026   -0.090 -0.040  0.045
 H          0.014 -0.044  0.033    0.014 -0.043  0.032    0.035 -0.096  0.074
 H         -0.020 -0.011 -0.022   -0.020 -0.012 -0.023   -0.004 -0.000 -0.010
 TransDip  -0.027  0.150  0.013   -0.158 -0.008 -0.118    0.024  0.009  0.001

 Mode:                82                     83                     84
 Frequency:      3102.61                3110.17                3116.43
 Force Cnst:      6.2498                 6.2461                 6.2737
 Red. Mass:       1.1020                 1.0959                 1.0964
 IR Active:          YES                    YES                    YES
 IR Intens:       12.576                 16.943                 38.095
 Raman Active:       YES                    YES                    YES
               X      Y      Z        X      Y      Z        X      Y      Z
 C         -0.001  0.002  0.007    0.010 -0.019 -0.056    0.010 -0.018 -0.053
 C          0.001 -0.000  0.000   -0.001  0.001 -0.002   -0.003  0.003 -0.009
 C         -0.000  0.000  0.000    0.001 -0.001 -0.001    0.001 -0.001 -0.001
 C          0.000 -0.000 -0.000    0.000  0.000 -0.000    0.000  0.000 -0.000
 O         -0.000 -0.000 -0.000   -0.000  0.000  0.000   -0.000  0.000  0.000
 O         -0.000 -0.000 -0.000    0.000  0.000  0.000    0.000  0.000  0.000
 O         -0.000 -0.000  0.000   -0.000 -0.000  0.000   -0.000 -0.000  0.000
 O         -0.000  0.000  0.000   -0.000 -0.000 -0.000   -0.000  0.000  0.000
 C         -0.000  0.000  0.000   -0.000  0.000  0.000    0.000 -0.000  0.000
 C          0.000  0.000 -0.000   -0.000  0.000  0.000   -0.001 -0.001  0.001
 C          0.001 -0.002  0.001   -0.004  0.008 -0.004    0.001 -0.002 -0.001
 C          0.013  0.008 -0.018   -0.019 -0.013  0.023    0.027  0.015 -0.040
 C          0.003  0.002 -0.004   -0.029 -0.018  0.043    0.023  0.016 -0.036
 C         -0.001 -0.001  0.001   -0.001 -0.001  0.001    0.000  0.001 -0.001
 O         -0.000  0.000 -0.000   -0.000  0.000  0.000   -0.000  0.000  0.001
 H          0.016 -0.029 -0.088   -0.121  0.219  0.658   -0.119  0.210  0.634
 H         -0.002  0.002 -0.010    0.011 -0.008  0.029    0.030 -0.030  0.112
 H          0.001 -0.003 -0.000    0.001 -0.002  0.000   -0.002  0.004  0.000
 H         -0.000 -0.000  0.001   -0.000 -0.001  0.003    0.002  0.001 -0.005
 H         -0.110 -0.134  0.059    0.165  0.204 -0.090   -0.215 -0.263  0.116
 H         -0.044  0.036  0.149    0.056 -0.047 -0.188   -0.106  0.086  0.360
 H         -0.034 -0.002  0.018    0.389  0.034 -0.180   -0.316 -0.026  0.147
 H          0.004 -0.016  0.026   -0.040  0.180 -0.329    0.035 -0.159  0.288
 H          0.001 -0.000 -0.001    0.001 -0.000 -0.001    0.001 -0.000 -0.001
 H          0.000 -0.000  0.000   -0.000  0.000 -0.000   -0.001  0.001 -0.003
 H         -0.000  0.000  0.000    0.001 -0.003 -0.002    0.001 -0.003 -0.002
 H         -0.001 -0.002  0.000    0.002  0.003 -0.000    0.008  0.011 -0.001
 H         -0.013  0.030 -0.015    0.043 -0.102  0.049   -0.004  0.013 -0.006
 C         -0.028 -0.063  0.056   -0.005 -0.012  0.012    0.003  0.006 -0.006
 H          0.540  0.235 -0.275    0.111  0.047 -0.057   -0.054 -0.023  0.028
 H         -0.195  0.538 -0.411   -0.038  0.103 -0.078    0.018 -0.049  0.037
 H         -0.008 -0.016  0.013   -0.008 -0.007 -0.006    0.004  0.003  0.004
 TransDip  -0.047 -0.073  0.073   -0.088 -0.082  0.054    0.103  0.024 -0.167

 Mode:                85                     86                     87
 Frequency:      3122.45                3123.63                3128.31
 Force Cnst:      6.3592                 6.3654                 6.2855
 Red. Mass:       1.1070                 1.1073                 1.0901
 IR Active:          YES                    YES                    YES
 IR Intens:       19.181                 15.254                 23.701
 Raman Active:       YES                    YES                    YES
               X      Y      Z        X      Y      Z        X      Y      Z
 C          0.000 -0.000 -0.001   -0.000  0.000  0.000    0.001 -0.002 -0.007
 C         -0.000  0.000 -0.000    0.000 -0.000  0.000   -0.000  0.001 -0.002
 C         -0.000 -0.000  0.000    0.000  0.000  0.000    0.000 -0.001  0.000
 C          0.000  0.000 -0.000   -0.000 -0.000 -0.000    0.000  0.000  0.000
 O         -0.000 -0.000  0.000   -0.000 -0.000  0.000   -0.000  0.000 -0.000
 O         -0.000 -0.000  0.000   -0.000 -0.000 -0.000   -0.000  0.000 -0.000
 O         -0.000 -0.000  0.000   -0.000  0.000 -0.000   -0.000 -0.000  0.000
 O         -0.000 -0.000  0.000   -0.000  0.000 -0.000   -0.000 -0.000 -0.000
 C         -0.003  0.004 -0.003    0.046 -0.066  0.051    0.000 -0.000  0.000
 C          0.046  0.059 -0.058    0.003  0.004 -0.004   -0.001 -0.001  0.001
 C          0.001 -0.001  0.001   -0.000  0.000 -0.000    0.030 -0.072  0.035
 C          0.000  0.000 -0.000   -0.000 -0.000  0.000   -0.008 -0.008  0.005
 C          0.000  0.000 -0.000   -0.000 -0.000  0.000   -0.003  0.000  0.001
 C         -0.000  0.000 -0.000    0.000 -0.000  0.000   -0.001  0.001 -0.000
 O          0.000 -0.000  0.000   -0.000  0.000 -0.000    0.000 -0.000 -0.000
 H         -0.002  0.004  0.011    0.000 -0.001 -0.003   -0.015  0.024  0.077
 H          0.001 -0.001  0.003   -0.000  0.001 -0.001    0.005 -0.004  0.017
 H          0.019 -0.043  0.000   -0.282  0.647 -0.002   -0.000  0.000  0.000
 H         -0.148 -0.132  0.674   -0.010 -0.009  0.045    0.002  0.002 -0.011
 H         -0.001 -0.001  0.001    0.000  0.001 -0.000    0.085  0.101 -0.043
 H         -0.001  0.001  0.004    0.000 -0.000 -0.001    0.007 -0.006 -0.019
 H         -0.003 -0.000  0.001    0.002  0.000 -0.001    0.033  0.003 -0.015
 H          0.001 -0.002  0.004   -0.000  0.001 -0.003   -0.000  0.001 -0.000
 H          0.003  0.000 -0.004   -0.022 -0.008  0.039    0.001 -0.000 -0.001
 H          0.015 -0.009  0.040   -0.236  0.138 -0.642   -0.001  0.001 -0.003
 H          0.016 -0.001 -0.019    0.000  0.001 -0.000    0.001 -0.002 -0.001
 H         -0.412 -0.566  0.028   -0.027 -0.036  0.002    0.009  0.011 -0.001
 H         -0.006  0.015 -0.008    0.001 -0.001  0.001   -0.342  0.826 -0.407
 C          0.000  0.000 -0.000   -0.000 -0.000  0.000   -0.000 -0.000  0.000
 H         -0.002 -0.001  0.001    0.002  0.001 -0.001    0.003  0.001 -0.002
 H          0.001 -0.002  0.001   -0.001  0.002 -0.002   -0.000  0.001 -0.001
 H          0.000  0.000 -0.000   -0.000 -0.000  0.000   -0.002 -0.001 -0.002
 TransDip   0.064  0.090 -0.086    0.056 -0.095  0.060    0.033 -0.148  0.037

 Mode:                88                     89                     90
 Frequency:      3152.57                3157.13                3164.36
 Force Cnst:      6.4787                 6.4972                 6.4729
 Red. Mass:       1.1064                 1.1063                 1.0972
 IR Active:          YES                    YES                    YES
 IR Intens:       14.479                 14.495                  2.840
 Raman Active:       YES                    YES                    YES
               X      Y      Z        X      Y      Z        X      Y      Z
 C         -0.000  0.000  0.000    0.000  0.000 -0.000    0.000 -0.000 -0.000
 C          0.000 -0.000 -0.000   -0.000  0.000 -0.000    0.000 -0.000 -0.000
 C         -0.000  0.000  0.000   -0.001 -0.000 -0.001   -0.000 -0.000 -0.000
 C          0.000  0.001  0.001   -0.000  0.000 -0.000    0.000 -0.000 -0.000
 O          0.000 -0.000 -0.000   -0.000  0.000  0.000   -0.000  0.000 -0.000
 O          0.000 -0.000 -0.000    0.000  0.000  0.000    0.000  0.000  0.000
 O          0.000 -0.000 -0.000    0.000 -0.000  0.000   -0.000  0.000  0.000
 O         -0.000 -0.000 -0.000    0.000 -0.000  0.000   -0.001 -0.000  0.000
 C         -0.052  0.023  0.076    0.000  0.000 -0.000    0.000 -0.000 -0.000
 C         -0.000 -0.000 -0.000    0.022 -0.072 -0.057    0.000 -0.000 -0.000
 C         -0.000  0.000 -0.000    0.000 -0.000  0.000    0.000 -0.000  0.000
 C          0.000  0.000  0.000   -0.000 -0.000 -0.000   -0.000  0.000 -0.000
 C          0.000 -0.000  0.000   -0.000  0.000 -0.000   -0.001  0.000  0.001
 C          0.000  0.000  0.000   -0.000  0.000  0.000   -0.001  0.000 -0.001
 O          0.000 -0.000 -0.000    0.000  0.000  0.000    0.000 -0.000  0.000
 H          0.000 -0.001 -0.002    0.000  0.000  0.002   -0.000  0.000  0.001
 H         -0.000 -0.000 -0.001    0.000 -0.000  0.000    0.000 -0.001  0.003
 H          0.109 -0.264  0.023    0.000 -0.001 -0.000   -0.001  0.001 -0.000
 H          0.000  0.000 -0.001   -0.069 -0.081  0.296   -0.000 -0.000  0.000
 H         -0.000 -0.000  0.000    0.000  0.000 -0.000    0.001  0.000 -0.000
 H          0.000 -0.000 -0.001   -0.000  0.000  0.001    0.000  0.000  0.001
 H         -0.000 -0.000  0.000    0.000  0.000 -0.000    0.011  0.002 -0.004
 H          0.000  0.000 -0.000    0.000 -0.000  0.000   -0.001  0.002 -0.005
 H          0.634 -0.092 -0.618   -0.002  0.000  0.002   -0.003  0.000  0.003
 H         -0.132  0.082 -0.305    0.001 -0.000  0.002    0.001 -0.000  0.001
 H         -0.001  0.002  0.001   -0.366  0.707  0.413   -0.001  0.001  0.001
 H          0.002  0.003 -0.000    0.182  0.230 -0.031    0.000  0.000 -0.000
 H          0.001 -0.002  0.001   -0.000  0.001 -0.000   -0.001  0.001 -0.001
 C         -0.000  0.000 -0.000    0.000  0.000  0.000   -0.067 -0.021 -0.056
 H         -0.000 -0.000  0.000   -0.000 -0.000  0.000    0.180  0.085 -0.106
 H          0.001 -0.002  0.001   -0.000  0.000 -0.000    0.043 -0.165  0.115
 H          0.003  0.002  0.003   -0.001 -0.001 -0.001    0.591  0.332  0.663
 TransDip  -0.083  0.016  0.088    0.047 -0.096 -0.059   -0.034 -0.007 -0.041

 STANDARD THERMODYNAMIC QUANTITIES AT   298.15 K  AND     1.00 ATM

   This Molecule has  0 Imaginary Frequencies
   Zero point vibrational energy:      166.295 kcal/mol

   Atom    1 Element C  Has Mass   12.00000
   Atom    2 Element C  Has Mass   12.00000
   Atom    3 Element C  Has Mass   12.00000
   Atom    4 Element C  Has Mass   12.00000
   Atom    5 Element O  Has Mass   15.99491
   Atom    6 Element O  Has Mass   15.99491
   Atom    7 Element O  Has Mass   15.99491
   Atom    8 Element O  Has Mass   15.99491
   Atom    9 Element C  Has Mass   12.00000
   Atom   10 Element C  Has Mass   12.00000
   Atom   11 Element C  Has Mass   12.00000
   Atom   12 Element C  Has Mass   12.00000
   Atom   13 Element C  Has Mass   12.00000
   Atom   14 Element C  Has Mass   12.00000
   Atom   15 Element O  Has Mass   15.99491
   Atom   16 Element H  Has Mass    1.00783
   Atom   17 Element H  Has Mass    1.00783
   Atom   18 Element H  Has Mass    1.00783
   Atom   19 Element H  Has Mass    1.00783
   Atom   20 Element H  Has Mass    1.00783
   Atom   21 Element H  Has Mass    1.00783
   Atom   22 Element H  Has Mass    1.00783
   Atom   23 Element H  Has Mass    1.00783
   Atom   24 Element H  Has Mass    1.00783
   Atom   25 Element H  Has Mass    1.00783
   Atom   26 Element H  Has Mass    1.00783
   Atom   27 Element H  Has Mass    1.00783
   Atom   28 Element H  Has Mass    1.00783
   Atom   29 Element C  Has Mass   12.00000
   Atom   30 Element H  Has Mass    1.00783
   Atom   31 Element H  Has Mass    1.00783
   Atom   32 Element H  Has Mass    1.00783
   Molecular Mass:   228.099830 amu
   Principal axes and moments of inertia in amu*Bohr^2:
                             1           2           3
    Eigenvalues --     2655.53510  3417.80715  5126.67951
          X               0.99998    -0.00319     0.00561
          Y               0.00318     0.99999     0.00238
          Z              -0.00562    -0.00236     0.99998
   Rotational Symmetry Number is   1
   The Molecule is an Asymmetric Top
   Translational Enthalpy:        0.889 kcal/mol
   Rotational Enthalpy:           0.889 kcal/mol
   Vibrational Enthalpy:        174.468 kcal/mol
   gas constant (RT):             0.592 kcal/mol
   Translational Entropy:        42.176  cal/mol.K
   Rotational Entropy:           32.209  cal/mol.K
   Vibrational Entropy:          53.824  cal/mol.K

   Total Enthalpy:              176.838 kcal/mol
   Total Entropy:               128.209  cal/mol.K
Archival summary:
1\1\nid04485\FREQ\ProcedureUnspecified\BasisUnspecified\51116\junteng\WedOct421:00:512017WedOct421:00:512017\0\\#,FREQ,ProcedureUnspecified,BasisUnspecified,\\0,1\O\C,1,1.4242\H,2,1.08824,1,110.147\C,1,1.44671,2,98.2307,3,179.875,0\C,4,1.51226,1,110.452,2,-177.383,0\H,5,1.0867,4,111.255,1,-57.9946,0\H,5,1.09267,4,108.991,1,63.0223,0\H,5,1.09299,4,110.39,1,-177.925,0\C,2,1.54396,1,103.663,3,-124.358,0\H,9,1.09097,2,110.249,1,85.4286,0\H,9,1.09183,2,112.468,1,-153.873,0\C,9,1.55428,2,100.773,1,-32.4452,0\H,12,1.09105,9,111.198,2,114.867,0\H,12,1.09176,9,113.534,2,-123.063,0\C,2,1.56013,1,102.257,3,121.957,0\H,15,1.08898,2,111.425,1,157.567,0\C,15,1.5133,2,108.669,1,-83.4078,0\O,17,1.20494,15,126.688,2,88.2114,0\O,17,1.35322,15,109.952,2,-88.8458,0\C,19,1.44028,17,115.803,15,176.641,0\H,20,1.08777,19,105.47,17,179.848,0\H,20,1.09103,19,110.503,17,-60.4796,0\H,20,1.09104,19,110.372,17,60.3517,0\C,15,1.56436,2,100.316,1,38.2613,0\H,24,1.09363,15,107.999,2,110.233,0\C,24,1.52143,15,114.432,2,-134.428,0\O,26,1.20197,24,128.075,15,126.216,0\O,26,1.35641,24,108.559,15,-57.9305,0\C,28,1.43894,26,115.698,24,175.178,0\H,29,1.08806,28,105.479,26,-178.814,0\H,29,1.09101,28,109.787,26,-59.4763,0\H,29,1.09103,28,110.693,26,61.5442,0\\\@

 Total job time:  10250.14s(wall), 58480.56s(cpu) 
 Wed Oct  4 21:00:51 2017

        *************************************************************
        *                                                           *
        *  Thank you very much for using Q-Chem.  Have a nice day.  *
        *                                                           *
        *************************************************************


