nid04477 10.128.17
Q-Chem Developer Version! Running on 10.128.17.*
                  Welcome to Q-Chem
     A Quantum Leap Into The Future Of Chemistry


 Q-Chem 5.0, Q-Chem, Inc., Pleasanton, CA (2017)

 Yihan Shao,  Zhengting Gan,  E. Epifanovsky,  A. T. B. Gilbert,  M. Wormit,  
 J. Kussmann,  A. W. Lange,  A. Behn,  Jia Deng,  Xintian Feng,  D. Ghosh,  
 M. Goldey,  P. R. Horn,  L. D. Jacobson,  I. Kaliman,  T. Kus,  A. Landau,  
 Jie Liu,  E. I. Proynov,  R. M. Richard,  R. P. Steele,  E. J. Sundstrom,  
 H. L. Woodcock III,  P. M. Zimmerman,  D. Zuev,  B. Albrecht,  E. Alguire,  
 S. A. Baeppler,  Z. Benda,  Y. A. Bernard,  E. J. Berquist,  K. B. Bravaya,  
 D. Casanova,  Chun-Min Chang,  Yunqing Chen,  A. Chien,  K. D. Closser,  
 M. P. Coons,  S. Dasgupta,  M. Diedenhofen,  Hainam Do,  R. G. Edgar,  
 Po-Tung Fang,  S. Fatehi,  Qingguo Feng,  Qinghui Ge,  A. Ghysels,  
 J. Gomes,  J. Gonthier,  A. Gunina,  M. W. D. Hanson-Heine,  
 P. H. P. Harbach,  A. W. Hauser,  J. E. Herr,  E. G. Hohenstein,  
 Z. C. Holden,  Kerwin Hui,  T.-C. Jagau,  Hyunjun Ji,  B. Kaduk,  
 K. Khistyaev,  Jaehoon Kim,  P. Klunzinger,  K. Koh,  D. Kosenkov,  
 T. Kowalczyk,  C. M. Krauter,  A. Kunitsa,  Ka Un Lao,  A. Laurent,  
 K. V. Lawler,  Joonho Lee,  D. Lefrancois,  S. Lehtola,  D. S. Levine,  
 Yi-Pei Li,  You-Sheng Lin,  Fenglai Liu,  E. Livshits,  A. Luenser,  
 P. Manohar,  E. Mansoor,  S. F. Manzer,  Shan-Ping Mao,  Yuezhi Mao,  
 N. Mardirossian,  A. V. Marenich,  L. A. Martinez-Martinez,  S. A. Maurer,  
 N. J. Mayhall,  S. C. McKenzie,  J.-M. Mewes,  A. F. Morrison,  K. Nanda,  
 T. S. Nguyen-Beck,  R. Olivares-Amaya,  J. A. Parkhill,  T. M. Perrine,  
 F. Plasser,  S. Prager,  A. Prociuk,  D. R. Rehn,  F. Rob,  M. Schneider,  
 N. Sergueev,  S. M. Sharada,  S. Sharma,  D. W. Small,  T. Stauch,  
 T. Stein,  Yu-Chuan Su,  A. J. W. Thom,  T. Tsuchimochi,  L. Vogt,  
 O. Vydrov,  M. A. Watson,  J. Wenzel,  M. de Wergifosse,  T. A. Wesolowski,  
 A. White,  J. Witte,  A. Yamada,  Jun Yang,  K. Yao,  S. Yeganeh,  
 S. R. Yost,  Zhi-Qiang You,  A. Zech,  Igor Ying Zhang,  Xing Zhang,  
 Yan Zhao,  Ying Zhu,  B. R. Brooks,  G. K. L. Chan,  C. J. Cramer,  
 M. S. Gordon,  W. J. Hehre,  A. Klamt,  M. W. Schmidt,  C. D. Sherrill,  
 D. G. Truhlar,  A. Aspuru-Guzik,  R. Baer,  A. T. Bell,  N. A. Besley,  
 Jeng-Da Chai,  A. Dreuw,  B. D. Dunietz,  T. R. Furlani,  Chao-Ping Hsu,  
 Yousung Jung,  Jing Kong,  D. S. Lambrecht,  WanZhen Liang,  C. Ochsenfeld,  
 V. A. Rassolov,  L. V. Slipchenko,  J. E. Subotnik,  T. Van Voorhis,  
 J. M. Herbert,  A. I. Krylov,  P. M. W. Gill,  M. Head-Gordon

 Contributors to earlier versions of Q-Chem not listed above: 
 R. D. Adamson,  B. Austin,  J. Baker,  G. J. O. Beran,  K. Brandhorst,  
 S. T. Brown,  E. F. C. Byrd,  A. K. Chakraborty,  C.-L. Cheng,  
 Siu Hung Chien,  D. M. Chipman,  D. L. Crittenden,  H. Dachsel,  
 R. A. DiStasio Jr.,  R. J. Doerksen,  A. D. Dutoi,  L. Fusti-Molnar,  
 W. A. Goddard III,  A. Golubeva-Zadorozhnaya,  S. R. Gwaltney,  G. Hawkins,  
 A. Heyden,  S. Hirata,  G. Kedziora,  F. J. Keil,  C. Kelley,  Jihan Kim,  
 R. A. King,  R. Z. Khaliullin,  P. P. Korambath,  W. Kurlancheek,  
 A. M. Lee,  M. S. Lee,  S. V. Levchenko,  Ching Yeh Lin,  D. Liotard,  
 R. C. Lochan,  I. Lotan,  P. E. Maslen,  N. Nair,  D. P. O'Neill,  
 D. Neuhauser,  E. Neuscamman,  C. M. Oana,  R. Olson,  B. Peters,  
 R. Peverati,  P. A. Pieniazek,  Y. M. Rhee,  J. Ritchie,  M. A. Rohrdanz,  
 E. Rosta,  N. J. Russ,  H. F. Schaefer III,  N. E. Schultz,  N. Shenvi,  
 A. C. Simmonett,  A. Sodt,  D. Stuck,  K. S. Thanthiriwatte,  V. Vanovschi,  
 Tao Wang,  A. Warshel,  C. F. Williams,  Q. Wu,  X. Xu,  W. Zhang

 Please cite Q-Chem as follows:
 Y. Shao et al., Mol. Phys. 113, 184-215 (2015)
 DOI: 10.1080/00268976.2014.952696

 Q-Chem 5.0.0 for Intel X86 EM64T Linux

 Parts of Q-Chem use Armadillo 5.200.1 (Boston Tea Smuggler).
 http://arma.sourceforge.net/

 Q-Chem begins on Tue Oct  3 18:13:39 2017  

Host: nid04477
0

     Scratch files written to /global/cscratch1/sd/junteng/scratch/16/opt_10n01.save//

Checking the input file for inconsistencies... 	...done.

--------------------------------------------------------------
User input:
--------------------------------------------------------------
$molecule
0  1
C    0.355  -2.424   0.293
C   -0.264  -2.685   1.524
C    0.749  -1.045  -0.086
C   -0.385  -1.681   2.598
O    1.805  -1.090  -0.938
O    0.175  -0.038   0.291
O    0.833  -1.128   2.820
O   -1.397  -1.517   3.259
C    0.836  -0.152   3.862
C    2.258   0.195  -1.365
C    0.489  -3.469  -0.639
C    0.011  -4.748  -0.345
C   -0.620  -4.996   0.872
C   -0.760  -3.969   1.804
H    0.142   0.662   3.629
H    1.480   0.699  -1.947
H   -1.003  -5.990   1.096
H    0.581  -0.616   4.820
H    1.845   0.263   3.935
H    3.132   0.050  -2.006
H    2.557   0.804  -0.506
H    0.116  -5.548  -1.075
H   -1.248  -4.169   2.757
H    0.945  -3.290  -1.611
$end


$opt
CONSTRAINT
tors    2    1    3    5    155.0
tors    1    2    4    7    -50.0
ENDCONSTRAINT
$end

$rem
JOBTYPE                   OPT
METHOD                    B3LYP
DFT_D                     D3_OP
BASIS                     6-311++G(d,p)
GEOM_OPT_MAX_CYCLES       500
GEOM_OPT_TOL_DISPLACEMENT 1
SYMMETRY                  False
THRESH                    12
SCF_CONVERGENCE           8
MAX_SUB_FILE_NUM          128
MEM_STATIC                400
MEM_TOTAL                 4000
$end

--------------------------------------------------------------
 Adding empirical dispersion correction 
 ----------------------------------------------------------------
 Doing -D3(op) with
 s6 =   1.00000
 s8 =   0.78311
 a1 =   0.30000
 a2 =   4.25000
 n  =  10.00000
 -D3 energy without 3body term =     -0.0235264244 hartrees
 ----------------------------------------------------------------
             Standard Nuclear Orientation (Angstroms)
    I     Atom           X                Y                Z
 ----------------------------------------------------------------
    1      C       0.0048685472    -0.8715632622    -0.0674007052
    2      C      -1.0919198482     0.0016590604    -0.1017662538
    3      C       1.3789608532    -0.3820370773    -0.3371273238
    4      C      -0.9567219841     1.4673235547    -0.2001640574
    5      O       2.2778658221    -1.1635542316     0.3142295632
    6      O       1.6428666882     0.5580963624    -1.0666181229
    7      O      -0.0793961891     1.8906553810     0.7430785488
    8      O      -1.6538448556     2.1636006328    -0.9193155941
    9      C       0.1112497942     3.3055484230     0.7520668044
   10      C       3.6362803702    -0.7724170820     0.1130215962
   11      C      -0.2239907215    -2.2487533468     0.1045757645
   12      C      -1.5242777058    -2.7411486134     0.2370961776
   13      C      -2.6105318253    -1.8705883996     0.1829583704
   14      C      -2.3975725218    -0.5036921638     0.0120899544
   15      H       0.4798571535     3.6504889134    -0.2193577541
   16      H       3.9131930930    -0.8856432273    -0.9398426800
   17      H      -3.6244084650    -2.2560700247     0.2743863539
   18      H      -0.8213882332     3.8144524380     1.0152929683
   19      H       0.8618027747     3.5417630810     1.5113479505
   20      H       4.2706392529    -1.4319291517     0.7116990033
   21      H       3.7952127220     0.2573747806     0.4483307479
   22      H      -1.6901414468    -3.8088449794     0.3653096299
   23      H      -3.2494252071     0.1741533752    -0.0229161569
   24      H       0.6066568830    -2.9521169215     0.1126528134
 ----------------------------------------------------------------
 Molecular Point Group                 C1    NOp =  1
 Largest Abelian Subgroup              C1    NOp =  1
 Nuclear Repulsion Energy =   889.7605996999 hartrees
 There are       51 alpha and       51 beta electrons
 Requested basis set is 6-311++G(d,p)
 There are 134 shells and 378 basis functions

 Total QAlloc Memory Limit   4000 MB
 Mega-Array Size       392 MB
 MEM_STATIC part       400 MB
 A cutoff of  1.0D-12 yielded   7404 shell pairs
 There are     61046 function pairs (     65450 Cartesian)
 
 -------------------------------------------------------
 OpenMP Integral Computing Module                       
 Release: version 1.0, May 2013, Q-Chem Inc. Pittsburgh 
 -------------------------------------------------------
 Integral Job Info:
 Integral job number is                      11
 Integral operator is                         1
 short-range coefficients                     0
 long-range coefficients              100000000
 Omega coefficients                           0
 if combine SR and LR in K                    0
 Integral screening is                        0
 Integral computing path is                   2
 max size of driver memory is            800000
 size of driver memory is                593474
 size of scratch memory is              2260544
 max col of scratch BK array               1296
 max len of scratch array in speh3          155
 max len of scratch index in speh4           18
 max int batch size is                      520
 min int batch size is                       52
 fixed nKL is                                52
 max L of basis functions is                  2
 order of int derivative is                   0
 number of shells is                        134
 number of basis is                         392
 number of cartesian basis is               392
 number of contracted shell pairs          7404
 number of primitive shell pairs          17628
 maxK2 (contraction) of shell pair           36
 max number of K2 of shell pair               1
 max number of CS2 of shell pair           1294
 max number of PS2 of shell pair           3102
 mem total for path MDJ                  124792
 -------------------------------------------------------
 Smallest overlap matrix eigenvalue = 4.43E-07
 Linear dependence detected in AO basis
 Number of orthogonalized atomic orbitals = 377
 Maximum deviation from orthogonality = 3.231E-10

 Scale SEOQF with 1.000000e-01/1.000000e-01/1.000000e-01

 Standard Electronic Orientation quadrupole field applied
 Nucleus-field energy     =     0.0000000333 hartrees
 Guess from superposition of atomic densities
 Warning:  Energy on first SCF cycle will be non-variational
 A restricted hybrid HF-DFT SCF calculation will be
 performed using Pulay DIIS extrapolation
 Exchange:     0.2000 Hartree-Fock + 0.0800 Slater + 0.7200 B88
 Correlation:  0.1900 VWN1RPA + 0.8100 LYP
 Using SG-1 standard quadrature grid
 Dispersion:   Grimme D3
 SCF converges when DIIS error is below 1.0E-08
 -------------------------------------------------------
 OpenMP Integral computing Module                
 Release: version 1.0, May 2013, Q-Chem Inc. Pittsburgh 
 -------------------------------------------------------
 -------------------------------------------------------
 OpenMP BLAS3 based DFT computing Module                
 Release: version 1.0, May 2013, Q-Chem Inc. Pittsburgh 
 -------------------------------------------------------
 ---------------------------------------
  Cycle       Energy         DIIS Error
 ---------------------------------------
    1    -691.1248141655      3.34E-02
    2    -687.9475850640      4.24E-03
    3    -687.4336145883      7.62E-03
    4    -688.1668735051      1.71E-03
    5    -688.2084532829      4.77E-04
    6    -688.2110192100      1.77E-04
    7    -688.2114396335      4.75E-05
    8    -688.2114711071      1.70E-05
    9    -688.2114759787      4.62E-06
   10    -688.2114763232      1.61E-06
   11    -688.2114763592      7.97E-07
   12    -688.2114763671      2.01E-07
   13    -688.2114763676      4.25E-08
   14    -688.2114763676      1.99E-08
   15    -688.2114763676      7.98E-09 Convergence criterion met
 ---------------------------------------
 SCF time:  CPU 935.52 s  wall 46.05 s
 SCF   energy in the final basis set = -688.2114763676
 Total energy in the final basis set = -688.2114763676
 
 --------------------------------------------------------------
 
                    Orbital Energies (a.u.)
 --------------------------------------------------------------
 
 Alpha MOs
 -- Occupied --
-19.184 -19.176 -19.125 -19.119 -10.317 -10.311 -10.234 -10.225
-10.212 -10.210 -10.201 -10.199 -10.198 -10.197  -1.121  -1.112
 -1.035  -1.028  -0.886  -0.798  -0.787  -0.739  -0.727  -0.656
 -0.639  -0.595  -0.575  -0.553  -0.522  -0.506  -0.495  -0.491
 -0.485  -0.484  -0.464  -0.456  -0.433  -0.429  -0.417  -0.401
 -0.387  -0.380  -0.375  -0.372  -0.364  -0.325  -0.311  -0.299
 -0.294  -0.276  -0.271
 -- Virtual --
 -0.069  -0.045  -0.012  -0.004   0.002   0.007   0.014   0.022
  0.025   0.028   0.031   0.039   0.045   0.050   0.055   0.058
  0.064   0.069   0.082   0.089   0.094   0.097   0.102   0.105
  0.111   0.114   0.117   0.119   0.124   0.127   0.127   0.131
  0.134   0.140   0.145   0.146   0.150   0.155   0.157   0.164
  0.166   0.171   0.176   0.179   0.186   0.191   0.197   0.203
  0.208   0.212   0.214   0.216   0.225   0.226   0.234   0.243
  0.248   0.259   0.260   0.263   0.274   0.277   0.278   0.284
  0.287   0.294   0.300   0.303   0.305   0.312   0.314   0.325
  0.331   0.335   0.340   0.347   0.349   0.358   0.361   0.364
  0.370   0.383   0.389   0.395   0.401   0.406   0.413   0.418
  0.431   0.459   0.467   0.490   0.494   0.501   0.509   0.525
  0.536   0.547   0.556   0.560   0.577   0.579   0.589   0.593
  0.599   0.612   0.625   0.633   0.646   0.649   0.653   0.654
  0.664   0.670   0.675   0.692   0.702   0.710   0.718   0.722
  0.729   0.736   0.744   0.759   0.766   0.775   0.800   0.816
  0.838   0.842   0.848   0.856   0.868   0.897   0.909   0.915
  0.936   0.940   0.981   0.997   1.013   1.018   1.029   1.048
  1.056   1.066   1.078   1.106   1.109   1.122   1.139   1.156
  1.175   1.186   1.210   1.218   1.230   1.238   1.266   1.278
  1.290   1.312   1.342   1.349   1.357   1.381   1.383   1.432
  1.441   1.451   1.460   1.480   1.501   1.508   1.522   1.531
  1.536   1.554   1.559   1.563   1.572   1.590   1.608   1.628
  1.641   1.656   1.665   1.694   1.696   1.701   1.711   1.727
  1.732   1.741   1.753   1.764   1.782   1.789   1.822   1.830
  1.832   1.877   1.898   1.916   1.932   1.950   1.955   1.977
  1.981   1.993   2.015   2.042   2.048   2.072   2.086   2.104
  2.119   2.134   2.142   2.187   2.210   2.275   2.286   2.351
  2.391   2.411   2.430   2.440   2.454   2.482   2.484   2.492
  2.521   2.540   2.556   2.573   2.589   2.608   2.647   2.657
  2.662   2.695   2.702   2.717   2.729   2.749   2.770   2.783
  2.805   2.807   2.823   2.832   2.844   2.853   2.880   2.892
  2.900   2.909   2.938   2.963   3.005   3.020   3.052   3.062
  3.084   3.103   3.108   3.162   3.170   3.208   3.222   3.248
  3.281   3.319   3.351   3.360   3.392   3.403   3.511   3.532
  3.539   3.573   3.609   3.617   3.698   3.782   3.788   3.802
  3.824   3.851   4.017   4.031   4.034   4.043   4.112   4.131
  4.185   4.271   4.355   4.829   5.025   5.042   5.092   5.139
  5.214   5.243   5.378   5.407   5.631   5.641   5.831   5.852
 23.576  23.836  23.857  23.918  23.921  23.926  23.949  24.046
 24.056  24.155  49.879  49.892  49.990  50.022
 --------------------------------------------------------------
 
          Ground-State Mulliken Net Atomic Charges

     Atom                 Charge (a.u.)
  ----------------------------------------
      1 C                     0.572260
      2 C                     0.518768
      3 C                    -0.473492
      4 C                    -0.618815
      5 O                    -0.043210
      6 O                    -0.194587
      7 O                     0.006277
      8 O                    -0.212366
      9 C                    -0.255194
     10 C                    -0.239655
     11 C                    -0.141965
     12 C                    -0.216398
     13 C                    -0.202002
     14 C                    -0.243886
     15 H                     0.191658
     16 H                     0.187493
     17 H                     0.173225
     18 H                     0.172706
     19 H                     0.152468
     20 H                     0.161927
     21 H                     0.170936
     22 H                     0.172940
     23 H                     0.178909
     24 H                     0.182004
  ----------------------------------------
  Sum of atomic charges =     0.000000

 -----------------------------------------------------------------
                    Cartesian Multipole Moments
 -----------------------------------------------------------------
    Charge (ESU x 10^10)
                 0.0000
    Dipole Moment (Debye)
         X       1.3136      Y      -2.2099      Z       2.4532
       Tot       3.5535
    Quadrupole Moments (Debye-Ang)
        XX     -69.6763     XY       4.2863     YY     -72.5990
        XZ      -1.3813     YZ       6.4991     ZZ     -87.5642
    Octopole Moments (Debye-Ang^2)
       XXX      38.1529    XXY     -21.6946    XYY      10.5467
       YYY      15.0436    XXZ      12.3459    XYZ      -0.8771
       YYZ      17.9687    XZZ      10.7127    YZZ       5.9758
       ZZZ       0.9195
    Hexadecapole Moments (Debye-Ang^3)
      XXXX   -1492.9672   XXXY     -18.1043   XXYY    -557.7923
      XYYY      44.0414   YYYY   -1497.8933   XXXZ       1.4435
      XXYZ      16.2749   XYYZ     -20.2576   YYYZ      34.0452
      XXZZ    -347.2084   XYZZ      -9.8061   YYZZ    -328.6498
      XZZZ       3.5842   YZZZ       9.5331   ZZZZ    -232.2493
 -----------------------------------------------------------------
 Calculating analytic gradient of the SCF energy
 Gradient of SCF Energy
            1           2           3           4           5           6
    1   0.0064618   0.0096687   0.0024920   0.0130343  -0.0009853  -0.0032394
    2   0.0098773   0.0117996  -0.0059844  -0.0076200  -0.0108838   0.0167824
    3   0.0004197   0.0028298   0.0061112   0.0009989   0.0058888  -0.0135444
            7           8           9          10          11          12
    1   0.0071978  -0.0192186  -0.0061446  -0.0144372   0.0025771  -0.0025546
    2  -0.0080750   0.0058181  -0.0131955   0.0010809   0.0017910   0.0007753
    3   0.0106804  -0.0150449  -0.0040017  -0.0006320  -0.0005277   0.0010744
           13          14          15          16          17          18
    1   0.0015860  -0.0012331   0.0034752   0.0007924  -0.0026395  -0.0009966
    2  -0.0008337   0.0013057   0.0008805  -0.0035306  -0.0013755   0.0005558
    3  -0.0006356   0.0005291  -0.0011609  -0.0014730   0.0002144   0.0034032
           19          20          21          22          23          24
    1   0.0015101   0.0059575   0.0011739  -0.0010952  -0.0050360   0.0016531
    2   0.0056926   0.0010511   0.0011715  -0.0025634   0.0007375  -0.0052574
    3   0.0006910  -0.0001443   0.0037742   0.0003183   0.0003549  -0.0001237
 Max gradient component =       1.922E-02
 RMS gradient           =       6.288E-03
 Gradient time:  CPU 275.57 s  wall 17.50 s
 Geometry Optimization Parameters
   NAtoms,    NIC,     NZ,  NCons,   NDum,   NFix, NCnnct, MaxDiis
       24     152       0       2       0       0       0       0


** CONSTRAINED OPTIMIZATION IN DELOCALIZED INTERNAL COORDINATES **
   Searching for a Minimum

   Optimization Cycle:   1

                       Coordinates (Angstroms)
     ATOM                X               Y               Z
      1  C         0.0048685472   -0.8715632622   -0.0674007052
      2  C        -1.0919198482    0.0016590604   -0.1017662538
      3  C         1.3789608532   -0.3820370773   -0.3371273238
      4  C        -0.9567219841    1.4673235547   -0.2001640574
      5  O         2.2778658221   -1.1635542316    0.3142295632
      6  O         1.6428666882    0.5580963624   -1.0666181229
      7  O        -0.0793961891    1.8906553810    0.7430785488
      8  O        -1.6538448556    2.1636006328   -0.9193155941
      9  C         0.1112497942    3.3055484230    0.7520668044
     10  C         3.6362803702   -0.7724170820    0.1130215962
     11  C        -0.2239907215   -2.2487533468    0.1045757645
     12  C        -1.5242777058   -2.7411486134    0.2370961776
     13  C        -2.6105318253   -1.8705883996    0.1829583704
     14  C        -2.3975725218   -0.5036921638    0.0120899544
     15  H         0.4798571535    3.6504889134   -0.2193577541
     16  H         3.9131930930   -0.8856432273   -0.9398426800
     17  H        -3.6244084650   -2.2560700247    0.2743863539
     18  H        -0.8213882332    3.8144524380    1.0152929683
     19  H         0.8618027747    3.5417630810    1.5113479505
     20  H         4.2706392529   -1.4319291517    0.7116990033
     21  H         3.7952127220    0.2573747806    0.4483307479
     22  H        -1.6901414468   -3.8088449794    0.3653096299
     23  H        -3.2494252071    0.1741533752   -0.0229161569
     24  H         0.6066568830   -2.9521169215    0.1126528134
   Point Group: c1    Number of degrees of freedom:    66


   Energy is   -688.211476368

              Constraints and their Current Values
                                        Value     Constraint
   Dihedral:        2   1   3   5      152.312      155.000
   Dihedral:        1   2   4   7      -50.252      -50.000

 Attempting to Generate Delocalized Internal Coordinates

   Using Lagrange Multiplier Algorithm


 68 Hessian modes will be used to form the next step
  Hessian Eigenvalues:
    -0.977753   -0.977753    0.045000    0.045000    0.045000    0.045000
     0.045000    0.045000    0.045001    0.045001    0.045002    0.045005
     0.045013    0.045027    0.045031    0.045181    0.045530    0.113864
     0.113915    0.116869    0.116916    0.159954    0.159981    0.159993
     0.160000    0.160000    0.160000    0.160000    0.160000    0.160000
     0.160000    0.219995    0.224790    0.244310    0.248434    0.248766
     0.249810    0.249910    0.250000    0.250000    0.250000    0.250000
     0.341816    0.342672    0.342857    0.342897    0.342929    0.344092
     0.344169    0.349054    0.349829    0.349904    0.350351    0.351283
     0.412994    0.413052    0.413205    0.417941    0.448645    0.456536
     0.460014    0.465920    0.534366    0.537734    0.954630    0.958839
     1.022753    1.022753

 Minimum Search - Taking P-RFO Step
 Searching for Lamda that Maximizes Along the Constraint modes Only
 Value Taken    Lamda =   0.00114033
 Searching for Lamda that Minimizes Along All other modes
 Value Taken    Lamda =  -0.01006482
 Step Taken.  Stepsize is  0.207736

                             Maximum     Tolerance    Cnvgd?
         Gradient            0.046907       0.000300      NO
         Displacement        0.079184       0.000001      NO
         Energy change     *********       0.000001      NO


 New Cartesian Coordinates Obtained by Inverse Iteration

 Displacement from previous Coordinates is:  0.577759
 Adding empirical dispersion correction 
 ----------------------------------------------------------------
 Doing -D3(op) with
 s6 =   1.00000
 s8 =   0.78311
 a1 =   0.30000
 a2 =   4.25000
 n  =  10.00000
 -D3 energy without 3body term =     -0.0233060198 hartrees
 ----------------------------------------------------------------
             Standard Nuclear Orientation (Angstroms)
    I     Atom           X                Y                Z
 ----------------------------------------------------------------
    1      C      -0.0108282149    -0.8920800049    -0.0193353137
    2      C      -1.1104923492    -0.0159272953    -0.0657883924
    3      C       1.3759961220    -0.3967125805    -0.2773900269
    4      C      -0.9817361048     1.4742802235    -0.1492875634
    5      O       2.3157600467    -1.1720256536     0.3104699539
    6      O       1.6554486111     0.5392645153    -0.9877001835
    7      O      -0.1346824405     1.9646740916     0.7813466060
    8      O      -1.6151476055     2.1758069974    -0.9001275540
    9      C       0.0911415403     3.3819064260     0.7440401190
   10      C       3.6813173591    -0.7961821934     0.0738245104
   11      C      -0.2390973088    -2.2657004622     0.1295687051
   12      C      -1.5341996768    -2.7652822187     0.2262416203
   13      C      -2.6211456343    -1.8969842364     0.1590002184
   14      C      -2.4075954677    -0.5301830238     0.0077702183
   15      H       0.4943301644     3.6788427201    -0.2253309954
   16      H       3.9311869936    -0.8814485867    -0.9853471570
   17      H      -3.6326292194    -2.2822223430     0.2216464879
   18      H      -0.8330335430     3.9270104237     0.9453881511
   19      H       0.8203039943     3.5867114268     1.5270058682
   20      H       4.2836825592    -1.4946225351     0.6536086297
   21      H       3.8656687596     0.2236329569     0.4147134977
   22      H      -1.6931255488    -3.8319227503     0.3370569089
   23      H      -3.2461319464     0.1529316374    -0.0423886125
   24      H       0.6008438603    -2.9470100133     0.1446419026
 ----------------------------------------------------------------
 Molecular Point Group                 C1    NOp =  1
 Largest Abelian Subgroup              C1    NOp =  1
 Nuclear Repulsion Energy =   885.8543181976 hartrees
 There are       51 alpha and       51 beta electrons
 Applying Cartesian multipole field
    Component          Value
    ---------          -----
     (2,0,0)        1.00000E-11
     (0,2,0)        2.00000E-11
     (0,0,2)       -3.00000E-11
 Nucleus-field energy     =     0.0000000344 hartrees
 Requested basis set is 6-311++G(d,p)
 There are 134 shells and 378 basis functions
 A cutoff of  1.0D-12 yielded   7368 shell pairs
 There are     60680 function pairs (     65063 Cartesian)
 Smallest overlap matrix eigenvalue = 4.51E-07
 Linear dependence detected in AO basis
 Number of orthogonalized atomic orbitals = 377
 Maximum deviation from orthogonality = 1.771E-10
 Guess MOs from SCF MO coefficient file
 Reading MOs from coefficient file
 Reading MOs from coefficient file
 A restricted hybrid HF-DFT SCF calculation will be
 performed using Pulay DIIS extrapolation
 Exchange:     0.2000 Hartree-Fock + 0.0800 Slater + 0.7200 B88
 Correlation:  0.1900 VWN1RPA + 0.8100 LYP
 Using SG-1 standard quadrature grid
 Dispersion:   Grimme D3
 SCF converges when DIIS error is below 1.0E-08
 Geometry optimization detected.  Setting ReadMinima to 0
 Setting SaveMinima to 0
 -------------------------------------------------------
 OpenMP Integral computing Module                
 Release: version 1.0, May 2013, Q-Chem Inc. Pittsburgh 
 -------------------------------------------------------
 -------------------------------------------------------
 OpenMP BLAS3 based DFT computing Module                
 Release: version 1.0, May 2013, Q-Chem Inc. Pittsburgh 
 -------------------------------------------------------
 ---------------------------------------
  Cycle       Energy         DIIS Error
 ---------------------------------------
    1    -688.2314301953      1.27E-03
    2    -688.2146470032      2.40E-04
    3    -688.2132131502      4.15E-04
    4    -688.2155095062      7.87E-05
    5    -688.2155775762      3.31E-05
    6    -688.2155915896      6.98E-06
    7    -688.2155922039      2.39E-06
    8    -688.2155922831      8.41E-07
    9    -688.2155922923      3.65E-07
   10    -688.2155922940      1.12E-07
   11    -688.2155922941      3.08E-08
   12    -688.2155922942      1.43E-08
   13    -688.2155922941      4.75E-09 Convergence criterion met
 ---------------------------------------
 SCF time:  CPU 818.12 s  wall 40.39 s
 SCF   energy in the final basis set = -688.2155922941
 Total energy in the final basis set = -688.2155922941
 
 --------------------------------------------------------------
 
                    Orbital Energies (a.u.)
 --------------------------------------------------------------
 
 Alpha MOs
 -- Occupied --
-19.179 -19.170 -19.121 -19.115 -10.315 -10.309 -10.233 -10.225
-10.214 -10.213 -10.200 -10.199 -10.199 -10.198  -1.121  -1.112
 -1.032  -1.026  -0.888  -0.796  -0.788  -0.740  -0.729  -0.657
 -0.640  -0.594  -0.573  -0.553  -0.524  -0.503  -0.492  -0.489
 -0.486  -0.480  -0.464  -0.457  -0.435  -0.431  -0.418  -0.403
 -0.391  -0.382  -0.376  -0.371  -0.361  -0.322  -0.309  -0.298
 -0.293  -0.278  -0.272
 -- Virtual --
 -0.069  -0.043  -0.012  -0.004   0.003   0.010   0.015   0.022
  0.026   0.029   0.031   0.039   0.045   0.051   0.055   0.057
  0.063   0.069   0.081   0.090   0.095   0.098   0.102   0.106
  0.111   0.114   0.116   0.118   0.124   0.127   0.127   0.132
  0.133   0.140   0.145   0.145   0.150   0.154   0.158   0.163
  0.167   0.170   0.175   0.178   0.186   0.191   0.197   0.201
  0.206   0.209   0.213   0.216   0.223   0.226   0.235   0.244
  0.248   0.258   0.260   0.264   0.273   0.277   0.281   0.284
  0.289   0.293   0.297   0.304   0.307   0.313   0.315   0.324
  0.331   0.334   0.341   0.348   0.353   0.359   0.360   0.367
  0.374   0.383   0.387   0.392   0.397   0.405   0.415   0.420
  0.430   0.462   0.468   0.492   0.496   0.506   0.511   0.529
  0.536   0.546   0.554   0.559   0.576   0.579   0.588   0.594
  0.598   0.611   0.624   0.631   0.642   0.647   0.654   0.657
  0.661   0.669   0.677   0.691   0.706   0.710   0.719   0.727
  0.732   0.738   0.746   0.761   0.762   0.774   0.801   0.821
  0.838   0.842   0.849   0.856   0.870   0.899   0.908   0.914
  0.935   0.939   0.985   0.996   1.006   1.018   1.032   1.045
  1.055   1.059   1.073   1.100   1.104   1.121   1.146   1.166
  1.179   1.191   1.211   1.218   1.231   1.242   1.266   1.280
  1.291   1.317   1.341   1.347   1.358   1.377   1.381   1.430
  1.435   1.451   1.452   1.481   1.499   1.507   1.523   1.530
  1.535   1.554   1.557   1.564   1.569   1.582   1.610   1.632
  1.638   1.655   1.666   1.699   1.700   1.706   1.714   1.726
  1.731   1.743   1.749   1.764   1.785   1.791   1.815   1.826
  1.829   1.872   1.899   1.913   1.927   1.947   1.955   1.974
  1.980   1.987   2.010   2.037   2.045   2.075   2.093   2.112
  2.116   2.127   2.140   2.185   2.212   2.269   2.294   2.350
  2.396   2.418   2.439   2.449   2.459   2.490   2.493   2.500
  2.522   2.541   2.556   2.575   2.589   2.605   2.639   2.648
  2.660   2.693   2.701   2.716   2.727   2.746   2.772   2.780
  2.804   2.807   2.825   2.836   2.843   2.853   2.875   2.892
  2.896   2.905   2.932   2.960   3.009   3.030   3.047   3.054
  3.083   3.101   3.110   3.160   3.167   3.214   3.220   3.246
  3.263   3.303   3.348   3.360   3.396   3.410   3.518   3.543
  3.561   3.605   3.619   3.641   3.705   3.774   3.786   3.801
  3.837   3.855   4.022   4.041   4.051   4.052   4.107   4.123
  4.185   4.268   4.345   4.832   5.029   5.046   5.094   5.133
  5.225   5.251   5.363   5.391   5.618   5.635   5.855   5.871
 23.574  23.834  23.854  23.922  23.930  23.935  23.947  24.048
 24.074  24.168  49.884  49.894  50.004  50.032
 --------------------------------------------------------------
 
          Ground-State Mulliken Net Atomic Charges

     Atom                 Charge (a.u.)
  ----------------------------------------
      1 C                     0.721534
      2 C                     0.366184
      3 C                    -0.454038
      4 C                    -0.617644
      5 O                    -0.063076
      6 O                    -0.201543
      7 O                    -0.015606
      8 O                    -0.213852
      9 C                    -0.253092
     10 C                    -0.242952
     11 C                    -0.059345
     12 C                    -0.208838
     13 C                    -0.221859
     14 C                    -0.277719
     15 H                     0.190262
     16 H                     0.186920
     17 H                     0.173567
     18 H                     0.171385
     19 H                     0.152433
     20 H                     0.159115
     21 H                     0.173113
     22 H                     0.173575
     23 H                     0.176759
     24 H                     0.184717
  ----------------------------------------
  Sum of atomic charges =     0.000000

 -----------------------------------------------------------------
                    Cartesian Multipole Moments
 -----------------------------------------------------------------
    Charge (ESU x 10^10)
                 0.0000
    Dipole Moment (Debye)
         X       1.1740      Y      -2.2478      Z       2.2600
       Tot       3.3969
    Quadrupole Moments (Debye-Ang)
        XX     -69.1429     XY       4.3124     YY     -72.0306
        XZ      -1.5077     YZ       6.3354     ZZ     -87.4604
    Octopole Moments (Debye-Ang^2)
       XXX      39.1995    XXY     -21.1742    XYY       9.6314
       YYY      17.4973    XXZ       9.1444    XYZ      -1.1539
       YYZ      16.2263    XZZ      11.4304    YZZ       6.0425
       ZZZ      -3.7011
    Hexadecapole Moments (Debye-Ang^3)
      XXXX   -1505.0631   XXXY     -16.4409   XXYY    -565.8918
      XYYY      44.7616   YYYY   -1527.0802   XXXZ       1.0968
      XXYZ      14.8942   XYYZ     -18.4413   YYYZ      29.8124
      XXZZ    -348.8795   XYZZ      -8.3034   YYZZ    -335.8281
      XZZZ       3.9281   YZZZ       3.7146   ZZZZ    -223.0747
 -----------------------------------------------------------------
 Calculating analytic gradient of the SCF energy
 Gradient of SCF Energy
            1           2           3           4           5           6
    1  -0.0004813  -0.0000633  -0.0044584  -0.0024060   0.0039792   0.0027765
    2   0.0008475  -0.0006018   0.0020297  -0.0073943   0.0002260  -0.0022717
    3   0.0000264  -0.0010718   0.0035347  -0.0016573  -0.0024549  -0.0011294
            7           8           9          10          11          12
    1   0.0009426   0.0012874  -0.0017513  -0.0034405  -0.0001607   0.0006723
    2   0.0057066   0.0030692  -0.0026044   0.0011946  -0.0004355   0.0000541
    3   0.0007599   0.0009686  -0.0011657  -0.0006989  -0.0000581   0.0005127
           13          14          15          16          17          18
    1   0.0001402  -0.0011106   0.0010625   0.0010776  -0.0000419   0.0002668
    2   0.0006878  -0.0004260   0.0006031  -0.0010601  -0.0001342   0.0005494
    3   0.0000193  -0.0002391   0.0004840   0.0001458   0.0000053   0.0012332
           19          20          21          22          23          24
    1   0.0005336   0.0014294   0.0008030  -0.0000369  -0.0000381  -0.0009821
    2   0.0015074   0.0001534  -0.0003161  -0.0000968  -0.0004895  -0.0007984
    3   0.0001226   0.0000231   0.0010356  -0.0000909   0.0001324  -0.0004375
 Max gradient component =       7.394E-03
 RMS gradient           =       1.774E-03
 Gradient time:  CPU 275.06 s  wall 17.59 s
 Geometry Optimization Parameters
   NAtoms,    NIC,     NZ,  NCons,   NDum,   NFix, NCnnct, MaxDiis
       24     152       0       2       0       0       0       0

 Cartesian Hessian Update
 Hessian Updated using BFGS Update


** CONSTRAINED OPTIMIZATION IN DELOCALIZED INTERNAL COORDINATES **
   Searching for a Minimum

   Optimization Cycle:   2

                       Coordinates (Angstroms)
     ATOM                X               Y               Z
      1  C        -0.0108282149   -0.8920800049   -0.0193353137
      2  C        -1.1104923492   -0.0159272953   -0.0657883924
      3  C         1.3759961220   -0.3967125805   -0.2773900269
      4  C        -0.9817361048    1.4742802235   -0.1492875634
      5  O         2.3157600467   -1.1720256536    0.3104699539
      6  O         1.6554486111    0.5392645153   -0.9877001835
      7  O        -0.1346824405    1.9646740916    0.7813466060
      8  O        -1.6151476055    2.1758069974   -0.9001275540
      9  C         0.0911415403    3.3819064260    0.7440401190
     10  C         3.6813173591   -0.7961821934    0.0738245104
     11  C        -0.2390973088   -2.2657004622    0.1295687051
     12  C        -1.5341996768   -2.7652822187    0.2262416203
     13  C        -2.6211456343   -1.8969842364    0.1590002184
     14  C        -2.4075954677   -0.5301830238    0.0077702183
     15  H         0.4943301644    3.6788427201   -0.2253309954
     16  H         3.9311869936   -0.8814485867   -0.9853471570
     17  H        -3.6326292194   -2.2822223430    0.2216464879
     18  H        -0.8330335430    3.9270104237    0.9453881511
     19  H         0.8203039943    3.5867114268    1.5270058682
     20  H         4.2836825592   -1.4946225351    0.6536086297
     21  H         3.8656687596    0.2236329569    0.4147134977
     22  H        -1.6931255488   -3.8319227503    0.3370569089
     23  H        -3.2461319464    0.1529316374   -0.0423886125
     24  H         0.6008438603   -2.9470100133    0.1446419026
   Point Group: c1    Number of degrees of freedom:    66


   Energy is   -688.215592294

              Constraints and their Current Values
                                        Value     Constraint
   Dihedral:        2   1   3   5      154.986      155.000
   Dihedral:        1   2   4   7      -50.002      -50.000
 Hessian Updated using BFGS Update

   Using Lagrange Multiplier Algorithm


 60 Hessian modes will be used to form the next step
  Hessian Eigenvalues:
    -0.977829   -0.977623    0.043670    0.045000    0.045000    0.045000
     0.045001    0.045001    0.045004    0.045007    0.045013    0.045030
     0.045119    0.045185    0.046499    0.112131    0.113894    0.116860
     0.116919    0.150038    0.159962    0.159982    0.159993    0.160000
     0.160615    0.219994    0.224885    0.243705    0.247066    0.248792
     0.249285    0.249867    0.249958    0.307100    0.341626    0.342728
     0.342873    0.342917    0.343500    0.344131    0.344304    0.349167
     0.349780    0.349991    0.350309    0.365133    0.411049    0.413056
     0.413162    0.421983    0.447064    0.456421    0.459901    0.466527
     0.531901    0.536895    0.944681    0.958522    1.022702    1.022959

 Minimum Search - Taking P-RFO Step
 Searching for Lamda that Maximizes Along the Constraint modes Only
 Value Taken    Lamda =   0.00000043
 Searching for Lamda that Minimizes Along All other modes
 Value Taken    Lamda =  -0.00071808
 Step Taken.  Stepsize is  0.078258

                             Maximum     Tolerance    Cnvgd?
         Gradient            0.005387       0.000300      NO
         Displacement        0.022621       0.000001      NO
         Energy change     -0.004116       0.000001      NO


 New Cartesian Coordinates Obtained by Inverse Iteration

 Displacement from previous Coordinates is:  0.291075
 Adding empirical dispersion correction 
 ----------------------------------------------------------------
 Doing -D3(op) with
 s6 =   1.00000
 s8 =   0.78311
 a1 =   0.30000
 a2 =   4.25000
 n  =  10.00000
 -D3 energy without 3body term =     -0.0234488578 hartrees
 ----------------------------------------------------------------
             Standard Nuclear Orientation (Angstroms)
    I     Atom           X                Y                Z
 ----------------------------------------------------------------
    1      C      -0.0187836187    -0.8893606094    -0.0160613090
    2      C      -1.1199651931    -0.0173398436    -0.0580567663
    3      C       1.3612662609    -0.3807914656    -0.2739930822
    4      C      -0.9871136174     1.4720022791    -0.1450636830
    5      O       2.3000794105    -1.1559678420     0.3111914637
    6      O       1.6231941212     0.5792329257    -0.9574820433
    7      O      -0.1336179955     1.9456060343     0.7829518242
    8      O      -1.6164088663     2.1672228232    -0.9033894826
    9      C       0.1270156053     3.3569833675     0.7339026553
   10      C       3.6655571284    -0.7735684952     0.0796093036
   11      C      -0.2379118028    -2.2628579543     0.1273858490
   12      C      -1.5312295268    -2.7689570809     0.2201077128
   13      C      -2.6219310182    -1.9042589418     0.1575283450
   14      C      -2.4137003648    -0.5351253839     0.0136317213
   15      H       0.5386548817     3.6287814071    -0.2387952345
   16      H       3.9095138722    -0.8449156190    -0.9814890866
   17      H      -3.6317818275    -2.2928934957     0.2181489191
   18      H      -0.7874120444     3.9234473137     0.9167868329
   19      H       0.8545003233     3.5411330534     1.5217181035
   20      H       4.2617409881    -1.4776703962     0.6565245539
   21      H       3.8401004642     0.2466550184     0.4229023326
   22      H      -1.6850725001    -3.8362688668     0.3276689402
   23      H      -3.2522341181     0.1479510245    -0.0357447446
   24      H       0.6113743885    -2.9322817311     0.1436444736
 ----------------------------------------------------------------
 Molecular Point Group                 C1    NOp =  1
 Largest Abelian Subgroup              C1    NOp =  1
 Nuclear Repulsion Energy =   888.2581538286 hartrees
 There are       51 alpha and       51 beta electrons
 Applying Cartesian multipole field
    Component          Value
    ---------          -----
     (2,0,0)        1.00000E-11
     (0,2,0)        2.00000E-11
     (0,0,2)       -3.00000E-11
 Nucleus-field energy     =     0.0000000342 hartrees
 Requested basis set is 6-311++G(d,p)
 There are 134 shells and 378 basis functions
 A cutoff of  1.0D-12 yielded   7383 shell pairs
 There are     60759 function pairs (     65144 Cartesian)
 Smallest overlap matrix eigenvalue = 4.46E-07
 Linear dependence detected in AO basis
 Number of orthogonalized atomic orbitals = 377
 Maximum deviation from orthogonality = 2.909E-10
 Guess MOs from SCF MO coefficient file
 Reading MOs from coefficient file
 Reading MOs from coefficient file
 A restricted hybrid HF-DFT SCF calculation will be
 performed using Pulay DIIS extrapolation
 Exchange:     0.2000 Hartree-Fock + 0.0800 Slater + 0.7200 B88
 Correlation:  0.1900 VWN1RPA + 0.8100 LYP
 Using SG-1 standard quadrature grid
 Dispersion:   Grimme D3
 SCF converges when DIIS error is below 1.0E-08
 Geometry optimization detected.  Setting ReadMinima to 0
 Setting SaveMinima to 0
 -------------------------------------------------------
 OpenMP Integral computing Module                
 Release: version 1.0, May 2013, Q-Chem Inc. Pittsburgh 
 -------------------------------------------------------
 -------------------------------------------------------
 OpenMP BLAS3 based DFT computing Module                
 Release: version 1.0, May 2013, Q-Chem Inc. Pittsburgh 
 -------------------------------------------------------
 ---------------------------------------
  Cycle       Energy         DIIS Error
 ---------------------------------------
    1    -688.2245249205      5.00E-04
    2    -688.2158371273      8.39E-05
    3    -688.2155409904      1.57E-04
    4    -688.2159702757      2.24E-05
    5    -688.2159750763      1.17E-05
    6    -688.2159768966      2.92E-06
    7    -688.2159770190      1.14E-06
    8    -688.2159770379      3.24E-07
    9    -688.2159770391      1.47E-07
   10    -688.2159770393      5.16E-08
   11    -688.2159770394      1.42E-08
   12    -688.2159770394      6.29E-09 Convergence criterion met
 ---------------------------------------
 SCF time:  CPU 754.85 s  wall 37.81 s
 SCF   energy in the final basis set = -688.2159770394
 Total energy in the final basis set = -688.2159770394
 
 --------------------------------------------------------------
 
                    Orbital Energies (a.u.)
 --------------------------------------------------------------
 
 Alpha MOs
 -- Occupied --
-19.180 -19.170 -19.121 -19.115 -10.314 -10.308 -10.234 -10.224
-10.212 -10.211 -10.199 -10.199 -10.198 -10.197  -1.121  -1.113
 -1.034  -1.027  -0.887  -0.796  -0.787  -0.741  -0.729  -0.656
 -0.639  -0.594  -0.574  -0.553  -0.523  -0.503  -0.493  -0.489
 -0.486  -0.480  -0.463  -0.457  -0.435  -0.431  -0.418  -0.402
 -0.390  -0.382  -0.376  -0.372  -0.361  -0.323  -0.309  -0.297
 -0.293  -0.277  -0.271
 -- Virtual --
 -0.068  -0.042  -0.012  -0.004   0.003   0.011   0.015   0.022
  0.027   0.029   0.031   0.039   0.045   0.051   0.056   0.057
  0.064   0.069   0.081   0.089   0.095   0.098   0.102   0.106
  0.111   0.114   0.116   0.119   0.124   0.127   0.128   0.133
  0.134   0.141   0.145   0.145   0.150   0.154   0.158   0.163
  0.167   0.170   0.175   0.178   0.186   0.191   0.197   0.202
  0.206   0.210   0.214   0.217   0.224   0.227   0.236   0.245
  0.249   0.258   0.260   0.265   0.273   0.278   0.281   0.285
  0.289   0.293   0.299   0.304   0.307   0.313   0.316   0.325
  0.332   0.335   0.342   0.348   0.353   0.359   0.360   0.367
  0.374   0.382   0.387   0.392   0.397   0.405   0.417   0.421
  0.431   0.462   0.469   0.493   0.496   0.507   0.512   0.529
  0.537   0.547   0.556   0.559   0.577   0.579   0.588   0.594
  0.598   0.611   0.624   0.632   0.642   0.648   0.654   0.659
  0.661   0.670   0.678   0.691   0.705   0.709   0.719   0.728
  0.732   0.740   0.747   0.763   0.763   0.775   0.803   0.821
  0.839   0.842   0.850   0.857   0.871   0.900   0.909   0.915
  0.938   0.941   0.987   0.996   1.007   1.018   1.032   1.046
  1.056   1.059   1.073   1.101   1.106   1.121   1.145   1.164
  1.177   1.191   1.211   1.220   1.231   1.241   1.266   1.280
  1.297   1.320   1.347   1.348   1.359   1.382   1.386   1.428
  1.435   1.451   1.454   1.482   1.498   1.509   1.526   1.529
  1.535   1.554   1.558   1.563   1.569   1.583   1.609   1.634
  1.638   1.657   1.666   1.699   1.702   1.707   1.716   1.727
  1.732   1.744   1.750   1.765   1.788   1.793   1.816   1.826
  1.834   1.874   1.903   1.914   1.928   1.949   1.957   1.973
  1.978   1.989   2.007   2.034   2.047   2.076   2.093   2.111
  2.117   2.125   2.140   2.187   2.217   2.270   2.295   2.352
  2.398   2.420   2.441   2.451   2.461   2.492   2.497   2.504
  2.523   2.543   2.557   2.577   2.591   2.606   2.642   2.649
  2.661   2.692   2.701   2.717   2.727   2.748   2.775   2.782
  2.805   2.809   2.827   2.837   2.844   2.855   2.875   2.893
  2.895   2.905   2.933   2.962   3.012   3.031   3.047   3.054
  3.085   3.104   3.110   3.166   3.170   3.219   3.222   3.250
  3.268   3.309   3.354   3.362   3.396   3.412   3.519   3.546
  3.562   3.604   3.624   3.641   3.707   3.771   3.785   3.802
  3.845   3.862   4.023   4.043   4.050   4.054   4.108   4.124
  4.188   4.269   4.349   4.834   5.027   5.042   5.095   5.140
  5.225   5.258   5.365   5.395   5.625   5.640   5.855   5.875
 23.576  23.838  23.860  23.923  23.931  23.939  23.950  24.054
 24.077  24.169  49.884  49.896  50.005  50.036
 --------------------------------------------------------------
 
          Ground-State Mulliken Net Atomic Charges

     Atom                 Charge (a.u.)
  ----------------------------------------
      1 C                     0.674499
      2 C                     0.390402
      3 C                    -0.405893
      4 C                    -0.617251
      5 O                    -0.061974
      6 O                    -0.206768
      7 O                    -0.008471
      8 O                    -0.215710
      9 C                    -0.249416
     10 C                    -0.239571
     11 C                    -0.073015
     12 C                    -0.213283
     13 C                    -0.216730
     14 C                    -0.294146
     15 H                     0.189867
     16 H                     0.187651
     17 H                     0.173165
     18 H                     0.170412
     19 H                     0.151972
     20 H                     0.159203
     21 H                     0.172409
     22 H                     0.173459
     23 H                     0.176014
     24 H                     0.183174
  ----------------------------------------
  Sum of atomic charges =     0.000000

 -----------------------------------------------------------------
                    Cartesian Multipole Moments
 -----------------------------------------------------------------
    Charge (ESU x 10^10)
                -0.0000
    Dipole Moment (Debye)
         X       1.2977      Y      -2.2378      Z       2.2253
       Tot       3.4123
    Quadrupole Moments (Debye-Ang)
        XX     -69.1131     XY       4.3312     YY     -72.3024
        XZ      -1.5416     YZ       6.2971     ZZ     -87.3199
    Octopole Moments (Debye-Ang^2)
       XXX      40.0743    XXY     -20.9426    XYY      10.1753
       YYY      16.5068    XXZ       8.7955    XYZ      -1.2224
       YYZ      15.8489    XZZ      12.2098    YZZ       5.8738
       ZZZ      -4.4159
    Hexadecapole Moments (Debye-Ang^3)
      XXXX   -1499.1471   XXXY     -23.1051   XXYY    -562.2760
      XYYY      36.5371   YYYY   -1520.7196   XXXZ      -1.3071
      XXYZ      14.9209   XYYZ     -18.2021   YYYZ      29.9389
      XXZZ    -346.0341   XYZZ     -10.7601   YYZZ    -333.9907
      XZZZ       1.3776   YZZZ       5.0611   ZZZZ    -219.9494
 -----------------------------------------------------------------
 Calculating analytic gradient of the SCF energy
 Gradient of SCF Energy
            1           2           3           4           5           6
    1  -0.0004744   0.0004409  -0.0010537  -0.0022591   0.0019901  -0.0005818
    2   0.0002088  -0.0005281   0.0010907  -0.0014552  -0.0003927  -0.0006182
    3   0.0011076  -0.0004017  -0.0003085  -0.0012840  -0.0003784   0.0005837
            7           8           9          10          11          12
    1   0.0021444   0.0011032  -0.0009389  -0.0013497   0.0002200   0.0004541
    2   0.0021979  -0.0000598  -0.0010384   0.0006328   0.0001483  -0.0000828
    3   0.0003690   0.0005284  -0.0005990  -0.0002437  -0.0002220   0.0001268
           13          14          15          16          17          18
    1  -0.0002378  -0.0003582   0.0000199   0.0001777   0.0001796   0.0001356
    2   0.0003804   0.0000415   0.0001339  -0.0002554   0.0001059   0.0000126
    3   0.0000482  -0.0002071   0.0002374   0.0002032  -0.0000018   0.0003125
           19          20          21          22          23          24
    1   0.0001580  -0.0000753   0.0000950   0.0001409   0.0003838  -0.0003143
    2  -0.0002317  -0.0001569  -0.0002227   0.0001657  -0.0001384   0.0000619
    3   0.0000971   0.0002048   0.0001408  -0.0000379   0.0000043  -0.0002797
 Max gradient component =       2.259E-03
 RMS gradient           =       7.082E-04
 Gradient time:  CPU 278.80 s  wall 17.57 s
 Geometry Optimization Parameters
   NAtoms,    NIC,     NZ,  NCons,   NDum,   NFix, NCnnct, MaxDiis
       24     152       0       2       0       0       0       0

 Cartesian Hessian Update
 Hessian Updated using BFGS Update


** CONSTRAINED OPTIMIZATION IN DELOCALIZED INTERNAL COORDINATES **
   Searching for a Minimum

   Optimization Cycle:   3

                       Coordinates (Angstroms)
     ATOM                X               Y               Z
      1  C        -0.0187836187   -0.8893606094   -0.0160613090
      2  C        -1.1199651931   -0.0173398436   -0.0580567663
      3  C         1.3612662609   -0.3807914656   -0.2739930822
      4  C        -0.9871136174    1.4720022791   -0.1450636830
      5  O         2.3000794105   -1.1559678420    0.3111914637
      6  O         1.6231941212    0.5792329257   -0.9574820433
      7  O        -0.1336179955    1.9456060343    0.7829518242
      8  O        -1.6164088663    2.1672228232   -0.9033894826
      9  C         0.1270156053    3.3569833675    0.7339026553
     10  C         3.6655571284   -0.7735684952    0.0796093036
     11  C        -0.2379118028   -2.2628579543    0.1273858490
     12  C        -1.5312295268   -2.7689570809    0.2201077128
     13  C        -2.6219310182   -1.9042589418    0.1575283450
     14  C        -2.4137003648   -0.5351253839    0.0136317213
     15  H         0.5386548817    3.6287814071   -0.2387952345
     16  H         3.9095138722   -0.8449156190   -0.9814890866
     17  H        -3.6317818275   -2.2928934957    0.2181489191
     18  H        -0.7874120444    3.9234473137    0.9167868329
     19  H         0.8545003233    3.5411330534    1.5217181035
     20  H         4.2617409881   -1.4776703962    0.6565245539
     21  H         3.8401004642    0.2466550184    0.4229023326
     22  H        -1.6850725001   -3.8362688668    0.3276689402
     23  H        -3.2522341181    0.1479510245   -0.0357447446
     24  H         0.6113743885   -2.9322817311    0.1436444736
   Point Group: c1    Number of degrees of freedom:    66


   Energy is   -688.215977039

              Constraints and their Current Values
                                        Value     Constraint
   Dihedral:        2   1   3   5      155.000      155.000
   Dihedral:        1   2   4   7      -50.000      -50.000
 Hessian Updated using BFGS Update

 56 Hessian modes will be used to form the next step
  Hessian Eigenvalues:
     0.037703    0.045000    0.045001    0.045001    0.045004    0.045006
     0.045008    0.045013    0.045033    0.045183    0.046130    0.050438
     0.106572    0.113895    0.116853    0.116916    0.153198    0.159967
     0.159988    0.159993    0.160139    0.160741    0.219988    0.225096
     0.242789    0.245386    0.249097    0.249787    0.249862    0.249993
     0.250354    0.298276    0.341909    0.342708    0.342869    0.342919
     0.343222    0.344131    0.346073    0.349032    0.349754    0.349891
     0.350304    0.366422    0.409655    0.413080    0.413205    0.445763
     0.452340    0.456638    0.465698    0.478971    0.519342    0.535275
     0.946579    0.957778

 Minimum Search - Taking Simple RFO Step
 Searching for Lamda that Minimizes Along All modes
 Value Taken    Lamda =  -0.00012144
 Step Taken.  Stepsize is  0.041181

                             Maximum     Tolerance    Cnvgd?
         Gradient           0.001980      0.000300      NO
         Displacement       0.016851      0.000001      NO
         Energy change     -0.000385      0.000001      NO


 New Cartesian Coordinates Obtained by Inverse Iteration

 Displacement from previous Coordinates is:  0.119902
 Adding empirical dispersion correction 
 ----------------------------------------------------------------
 Doing -D3(op) with
 s6 =   1.00000
 s8 =   0.78311
 a1 =   0.30000
 a2 =   4.25000
 n  =  10.00000
 -D3 energy without 3body term =     -0.0234354498 hartrees
 ----------------------------------------------------------------
             Standard Nuclear Orientation (Angstroms)
    I     Atom           X                Y                Z
 ----------------------------------------------------------------
    1      C      -0.0159930422    -0.8825218062    -0.0161070052
    2      C      -1.1202477723    -0.0121341892    -0.0598930476
    3      C       1.3664706066    -0.3773060811    -0.2731151567
    4      C      -0.9949572531     1.4787995756    -0.1404794992
    5      O       2.2983454042    -1.1558380149     0.3161006264
    6      O       1.6342517663     0.5797821928    -0.9592279071
    7      O      -0.1490225906     1.9488091519     0.7929728409
    8      O      -1.6282740736     2.1708028921    -0.8989442285
    9      C       0.1215954144     3.3598328993     0.7385785423
   10      C       3.6674837306    -0.7862887998     0.0751033480
   11      C      -0.2332720077    -2.2562286570     0.1320160022
   12      C      -1.5257852002    -2.7662673074     0.2207813199
   13      C      -2.6179920725    -1.9046130418     0.1530263921
   14      C      -2.4123632288    -0.5345892090     0.0098044974
   15      H       0.5471302704     3.6187162313    -0.2318815577
   16      H       3.9013026787    -0.8643075985    -0.9879626105
   17      H      -3.6272715379    -2.2957060244     0.2116800999
   18      H      -0.7934975011     3.9317719436     0.8997851848
   19      H       0.8378990259     3.5473159650     1.5351973456
   20      H       4.2625435788    -1.4902427988     0.6524437514
   21      H       3.8492846802     0.2363658748     0.4077436890
   22      H      -1.6777687492    -3.8337921432     0.3310993676
   23      H      -3.2534354178     0.1462019728    -0.0405658178
   24      H       0.6194082416    -2.9218055065     0.1554714212
 ----------------------------------------------------------------
 Molecular Point Group                 C1    NOp =  1
 Largest Abelian Subgroup              C1    NOp =  1
 Nuclear Repulsion Energy =   887.7818306823 hartrees
 There are       51 alpha and       51 beta electrons
 Applying Cartesian multipole field
    Component          Value
    ---------          -----
     (2,0,0)        1.00000E-11
     (0,2,0)        2.00000E-11
     (0,0,2)       -3.00000E-11
 Nucleus-field energy     =     0.0000000342 hartrees
 Requested basis set is 6-311++G(d,p)
 There are 134 shells and 378 basis functions
 A cutoff of  1.0D-12 yielded   7382 shell pairs
 There are     60763 function pairs (     65152 Cartesian)
 Smallest overlap matrix eigenvalue = 4.46E-07
 Linear dependence detected in AO basis
 Number of orthogonalized atomic orbitals = 377
 Maximum deviation from orthogonality = 1.423E-10
 Guess MOs from SCF MO coefficient file
 Reading MOs from coefficient file
 Reading MOs from coefficient file
 A restricted hybrid HF-DFT SCF calculation will be
 performed using Pulay DIIS extrapolation
 Exchange:     0.2000 Hartree-Fock + 0.0800 Slater + 0.7200 B88
 Correlation:  0.1900 VWN1RPA + 0.8100 LYP
 Using SG-1 standard quadrature grid
 Dispersion:   Grimme D3
 SCF converges when DIIS error is below 1.0E-08
 Geometry optimization detected.  Setting ReadMinima to 0
 Setting SaveMinima to 0
 -------------------------------------------------------
 OpenMP Integral computing Module                
 Release: version 1.0, May 2013, Q-Chem Inc. Pittsburgh 
 -------------------------------------------------------
 -------------------------------------------------------
 OpenMP BLAS3 based DFT computing Module                
 Release: version 1.0, May 2013, Q-Chem Inc. Pittsburgh 
 -------------------------------------------------------
 ---------------------------------------
  Cycle       Energy         DIIS Error
 ---------------------------------------
    1    -688.2098286049      2.35E-04
    2    -688.2159690052      4.77E-05
    3    -688.2159103784      7.87E-05
    4    -688.2160113608      1.45E-05
    5    -688.2160142734      4.61E-06
    6    -688.2160144816      2.39E-06
    7    -688.2160145616      5.86E-07
    8    -688.2160145665      2.34E-07
    9    -688.2160145673      5.31E-08
   10    -688.2160145673      2.34E-08
   11    -688.2160145674      6.16E-09 Convergence criterion met
 ---------------------------------------
 SCF time:  CPU 690.20 s  wall 34.43 s
 SCF   energy in the final basis set = -688.2160145674
 Total energy in the final basis set = -688.2160145674
 
 --------------------------------------------------------------
 
                    Orbital Energies (a.u.)
 --------------------------------------------------------------
 
 Alpha MOs
 -- Occupied --
-19.180 -19.171 -19.121 -19.115 -10.314 -10.308 -10.234 -10.225
-10.212 -10.211 -10.199 -10.198 -10.197 -10.197  -1.121  -1.113
 -1.034  -1.027  -0.887  -0.796  -0.787  -0.741  -0.729  -0.655
 -0.639  -0.594  -0.574  -0.553  -0.523  -0.503  -0.493  -0.489
 -0.486  -0.481  -0.463  -0.457  -0.435  -0.431  -0.418  -0.402
 -0.390  -0.382  -0.376  -0.372  -0.362  -0.323  -0.309  -0.298
 -0.293  -0.277  -0.271
 -- Virtual --
 -0.068  -0.042  -0.012  -0.004   0.003   0.011   0.015   0.022
  0.027   0.029   0.031   0.039   0.045   0.051   0.056   0.057
  0.063   0.069   0.081   0.089   0.095   0.098   0.103   0.106
  0.111   0.114   0.116   0.119   0.124   0.127   0.128   0.133
  0.134   0.141   0.145   0.146   0.150   0.154   0.158   0.163
  0.168   0.169   0.175   0.178   0.186   0.191   0.197   0.202
  0.206   0.210   0.213   0.217   0.224   0.227   0.236   0.245
  0.249   0.258   0.260   0.265   0.274   0.278   0.281   0.285
  0.289   0.293   0.298   0.304   0.307   0.313   0.316   0.324
  0.332   0.335   0.342   0.348   0.354   0.359   0.360   0.367
  0.373   0.382   0.387   0.392   0.396   0.405   0.417   0.422
  0.430   0.463   0.469   0.492   0.496   0.507   0.512   0.529
  0.537   0.547   0.556   0.559   0.577   0.579   0.588   0.594
  0.598   0.612   0.624   0.632   0.641   0.647   0.654   0.659
  0.661   0.670   0.678   0.690   0.705   0.709   0.719   0.727
  0.732   0.740   0.747   0.762   0.763   0.775   0.803   0.822
  0.839   0.842   0.850   0.857   0.871   0.900   0.909   0.915
  0.937   0.940   0.986   0.996   1.007   1.018   1.032   1.046
  1.056   1.058   1.073   1.101   1.106   1.121   1.146   1.165
  1.178   1.191   1.212   1.218   1.230   1.240   1.265   1.279
  1.294   1.318   1.347   1.348   1.358   1.381   1.384   1.428
  1.436   1.451   1.454   1.482   1.498   1.509   1.525   1.527
  1.534   1.554   1.558   1.562   1.569   1.582   1.608   1.634
  1.639   1.657   1.667   1.697   1.701   1.706   1.715   1.727
  1.732   1.744   1.749   1.765   1.788   1.794   1.816   1.827
  1.835   1.874   1.903   1.913   1.928   1.949   1.957   1.973
  1.977   1.989   2.006   2.032   2.047   2.076   2.093   2.110
  2.116   2.124   2.139   2.187   2.216   2.269   2.294   2.352
  2.398   2.419   2.441   2.451   2.460   2.492   2.497   2.504
  2.523   2.543   2.557   2.577   2.590   2.605   2.642   2.650
  2.661   2.692   2.701   2.716   2.727   2.748   2.774   2.782
  2.805   2.809   2.827   2.835   2.843   2.853   2.874   2.893
  2.894   2.904   2.933   2.961   3.012   3.031   3.045   3.052
  3.084   3.105   3.109   3.166   3.170   3.219   3.221   3.250
  3.269   3.309   3.354   3.362   3.396   3.412   3.519   3.546
  3.561   3.602   3.624   3.639   3.707   3.769   3.784   3.802
  3.845   3.863   4.023   4.041   4.048   4.052   4.108   4.124
  4.187   4.269   4.349   4.834   5.028   5.043   5.095   5.138
  5.224   5.255   5.366   5.394   5.625   5.638   5.854   5.873
 23.576  23.838  23.859  23.922  23.930  23.939  23.948  24.052
 24.076  24.169  49.884  49.895  50.005  50.034
 --------------------------------------------------------------
 
          Ground-State Mulliken Net Atomic Charges

     Atom                 Charge (a.u.)
  ----------------------------------------
      1 C                     0.668673
      2 C                     0.380416
      3 C                    -0.407295
      4 C                    -0.604905
      5 O                    -0.060392
      6 O                    -0.208895
      7 O                    -0.008163
      8 O                    -0.216121
      9 C                    -0.248881
     10 C                    -0.240460
     11 C                    -0.074025
     12 C                    -0.219037
     13 C                    -0.221744
     14 C                    -0.278584
     15 H                     0.189976
     16 H                     0.188070
     17 H                     0.172813
     18 H                     0.170517
     19 H                     0.152644
     20 H                     0.159005
     21 H                     0.172999
     22 H                     0.173563
     23 H                     0.176561
     24 H                     0.183265
  ----------------------------------------
  Sum of atomic charges =     0.000000

 -----------------------------------------------------------------
                    Cartesian Multipole Moments
 -----------------------------------------------------------------
    Charge (ESU x 10^10)
                 0.0000
    Dipole Moment (Debye)
         X       1.3341      Y      -2.2247      Z       2.2276
       Tot       3.4193
    Quadrupole Moments (Debye-Ang)
        XX     -69.1666     XY       4.2753     YY     -72.2371
        XZ      -1.5202     YZ       6.3044     ZZ     -87.3394
    Octopole Moments (Debye-Ang^2)
       XXX      40.5542    XXY     -21.5233    XYY      10.4831
       YYY      16.5467    XXZ       8.6911    XYZ      -1.2153
       YYZ      15.9739    XZZ      12.2273    YZZ       5.7630
       ZZZ      -4.6176
    Hexadecapole Moments (Debye-Ang^3)
      XXXX   -1501.2325   XXXY     -20.6962   XXYY    -562.6575
      XYYY      39.6922   YYYY   -1521.2249   XXXZ      -0.8473
      XXYZ      14.8445   XYYZ     -17.9430   YYYZ      29.4636
      XXZZ    -346.7212   XYZZ      -9.5454   YYZZ    -334.0487
      XZZZ       1.7837   YZZZ       4.5109   ZZZZ    -220.4555
 -----------------------------------------------------------------
 Calculating analytic gradient of the SCF energy
 Gradient of SCF Energy
            1           2           3           4           5           6
    1   0.0002707   0.0000874   0.0004118  -0.0008648   0.0001080  -0.0001286
    2  -0.0002293   0.0002905   0.0007100   0.0008551  -0.0004529  -0.0004488
    3   0.0009186  -0.0004859  -0.0003250  -0.0002692  -0.0002994   0.0000263
            7           8           9          10          11          12
    1   0.0005510   0.0001615  -0.0000970  -0.0003064   0.0000577   0.0000287
    2   0.0003851  -0.0006238  -0.0006577  -0.0000550   0.0001357  -0.0000383
    3   0.0003740   0.0000525   0.0000246   0.0002323   0.0000234  -0.0000108
           13          14          15          16          17          18
    1  -0.0000581  -0.0000250  -0.0002429  -0.0000734   0.0000476  -0.0000267
    2   0.0000371  -0.0000039   0.0000108   0.0000143  -0.0000000  -0.0000202
    3  -0.0000153  -0.0000767  -0.0000457   0.0000313   0.0000450   0.0000264
           19          20          21          22          23          24
    1   0.0000549  -0.0000451  -0.0001122   0.0000095   0.0000623   0.0001290
    2  -0.0001147   0.0000101   0.0000325   0.0000285   0.0000668   0.0000680
    3  -0.0000225   0.0000546  -0.0001102  -0.0000059  -0.0000158  -0.0001266
 Max gradient component =       9.186E-04
 RMS gradient           =       2.877E-04
 Gradient time:  CPU 275.62 s  wall 17.18 s
 Geometry Optimization Parameters
   NAtoms,    NIC,     NZ,  NCons,   NDum,   NFix, NCnnct, MaxDiis
       24     152       0       2       0       0       0       0

 Cartesian Hessian Update
 Hessian Updated using BFGS Update


** CONSTRAINED OPTIMIZATION IN DELOCALIZED INTERNAL COORDINATES **
   Searching for a Minimum

   Optimization Cycle:   4

                       Coordinates (Angstroms)
     ATOM                X               Y               Z
      1  C        -0.0159930422   -0.8825218062   -0.0161070052
      2  C        -1.1202477723   -0.0121341892   -0.0598930476
      3  C         1.3664706066   -0.3773060811   -0.2731151567
      4  C        -0.9949572531    1.4787995756   -0.1404794992
      5  O         2.2983454042   -1.1558380149    0.3161006264
      6  O         1.6342517663    0.5797821928   -0.9592279071
      7  O        -0.1490225906    1.9488091519    0.7929728409
      8  O        -1.6282740736    2.1708028921   -0.8989442285
      9  C         0.1215954144    3.3598328993    0.7385785423
     10  C         3.6674837306   -0.7862887998    0.0751033480
     11  C        -0.2332720077   -2.2562286570    0.1320160022
     12  C        -1.5257852002   -2.7662673074    0.2207813199
     13  C        -2.6179920725   -1.9046130418    0.1530263921
     14  C        -2.4123632288   -0.5345892090    0.0098044974
     15  H         0.5471302704    3.6187162313   -0.2318815577
     16  H         3.9013026787   -0.8643075985   -0.9879626105
     17  H        -3.6272715379   -2.2957060244    0.2116800999
     18  H        -0.7934975011    3.9317719436    0.8997851848
     19  H         0.8378990259    3.5473159650    1.5351973456
     20  H         4.2625435788   -1.4902427988    0.6524437514
     21  H         3.8492846802    0.2363658748    0.4077436890
     22  H        -1.6777687492   -3.8337921432    0.3310993676
     23  H        -3.2534354178    0.1462019728   -0.0405658178
     24  H         0.6194082416   -2.9218055065    0.1554714212
   Point Group: c1    Number of degrees of freedom:    66


   Energy is   -688.216014567

              Constraints and their Current Values
                                        Value     Constraint
   Dihedral:        2   1   3   5      155.000      155.000
   Dihedral:        1   2   4   7      -50.000      -50.000
 Hessian Updated using BFGS Update

 61 Hessian modes will be used to form the next step
  Hessian Eigenvalues:
     0.027289    0.045000    0.045000    0.045000    0.045000    0.045001
     0.045001    0.045003    0.045006    0.045012    0.045027    0.045120
     0.045194    0.046109    0.052311    0.109788    0.113898    0.116838
     0.116915    0.153389    0.159232    0.159970    0.159989    0.159998
     0.160174    0.160669    0.219985    0.225189    0.243941    0.246557
     0.249111    0.249318    0.249839    0.249972    0.249997    0.296611
     0.332032    0.342094    0.342548    0.342826    0.342904    0.343143
     0.344132    0.347045    0.349361    0.349730    0.350275    0.353612
     0.366548    0.403035    0.412994    0.413537    0.440200    0.452199
     0.456992    0.465788    0.487011    0.518538    0.536128    0.936595
     0.957329

 Minimum Search - Taking Simple RFO Step
 Searching for Lamda that Minimizes Along All modes
 Value Taken    Lamda =  -0.00002953
 Step Taken.  Stepsize is  0.023661

                             Maximum     Tolerance    Cnvgd?
         Gradient           0.001187      0.000300      NO
         Displacement       0.008753      0.000001      NO
         Energy change     -0.000038      0.000001      NO


 New Cartesian Coordinates Obtained by Inverse Iteration

 Displacement from previous Coordinates is:  0.089218
 Adding empirical dispersion correction 
 ----------------------------------------------------------------
 Doing -D3(op) with
 s6 =   1.00000
 s8 =   0.78311
 a1 =   0.30000
 a2 =   4.25000
 n  =  10.00000
 -D3 energy without 3body term =     -0.0234571427 hartrees
 ----------------------------------------------------------------
             Standard Nuclear Orientation (Angstroms)
    I     Atom           X                Y                Z
 ----------------------------------------------------------------
    1      C      -0.0191001422    -0.8836814964    -0.0149435465
    2      C      -1.1238688242    -0.0141411138    -0.0582877972
    3      C       1.3629740950    -0.3742547152    -0.2682399714
    4      C      -0.9966455110     1.4771863447    -0.1367138436
    5      O       2.2976868191    -1.1505151875     0.3189083783
    6      O       1.6284972766     0.5869840037    -0.9499724265
    7      O      -0.1516285590     1.9456450144     0.7970822577
    8      O      -1.6284664787     2.1713502053    -0.8949712770
    9      C       0.1313234366     3.3554622943     0.7359748188
   10      C       3.6665950601    -0.7783090770     0.0740042013
   11      C      -0.2356906800    -2.2579518664     0.1324717145
   12      C      -1.5281041751    -2.7690294943     0.2189040238
   13      C      -2.6206791526    -1.9080850993     0.1505973262
   14      C      -2.4157747924    -0.5375478382     0.0098780471
   15      H       0.5689579220     3.6032252957    -0.2321417372
   16      H       3.8965556222    -0.8534227023    -0.9902241936
   17      H      -3.6299046971    -2.2999020585     0.2074605401
   18      H      -0.7808111906     3.9358328541     0.8830147754
   19      H       0.8409028219     3.5436845472     1.5382375351
   20      H       4.2649430389    -1.4824080014     0.6474930760
   21      H       3.8482075173     0.2441029621     0.4077342792
   22      H      -1.6796690496    -3.8367670868     0.3287075214
   23      H      -3.2578097159     0.1423040011    -0.0402011514
   24      H       0.6173443094    -2.9230042642     0.1588550477
 ----------------------------------------------------------------
 Molecular Point Group                 C1    NOp =  1
 Largest Abelian Subgroup              C1    NOp =  1
 Nuclear Repulsion Energy =   887.9026715045 hartrees
 There are       51 alpha and       51 beta electrons
 Applying Cartesian multipole field
    Component          Value
    ---------          -----
     (2,0,0)        1.00000E-11
     (0,2,0)        2.00000E-11
     (0,0,2)       -3.00000E-11
 Nucleus-field energy     =     0.0000000342 hartrees
 Requested basis set is 6-311++G(d,p)
 There are 134 shells and 378 basis functions
 A cutoff of  1.0D-12 yielded   7381 shell pairs
 There are     60748 function pairs (     65134 Cartesian)
 Smallest overlap matrix eigenvalue = 4.45E-07
 Linear dependence detected in AO basis
 Number of orthogonalized atomic orbitals = 377
 Maximum deviation from orthogonality = 1.175E-10
 Guess MOs from SCF MO coefficient file
 Reading MOs from coefficient file
 Reading MOs from coefficient file
 A restricted hybrid HF-DFT SCF calculation will be
 performed using Pulay DIIS extrapolation
 Exchange:     0.2000 Hartree-Fock + 0.0800 Slater + 0.7200 B88
 Correlation:  0.1900 VWN1RPA + 0.8100 LYP
 Using SG-1 standard quadrature grid
 Dispersion:   Grimme D3
 SCF converges when DIIS error is below 1.0E-08
 Geometry optimization detected.  Setting ReadMinima to 0
 Setting SaveMinima to 0
 -------------------------------------------------------
 OpenMP Integral computing Module                
 Release: version 1.0, May 2013, Q-Chem Inc. Pittsburgh 
 -------------------------------------------------------
 -------------------------------------------------------
 OpenMP BLAS3 based DFT computing Module                
 Release: version 1.0, May 2013, Q-Chem Inc. Pittsburgh 
 -------------------------------------------------------
 ---------------------------------------
  Cycle       Energy         DIIS Error
 ---------------------------------------
    1    -688.2136301809      1.29E-04
    2    -688.2160328500      2.24E-05
    3    -688.2160104528      4.48E-05
    4    -688.2160418124      5.39E-06
    5    -688.2160420893      2.76E-06
    6    -688.2160421981      7.97E-07
    7    -688.2160422080      3.13E-07
    8    -688.2160422094      8.73E-08
    9    -688.2160422096      3.05E-08
   10    -688.2160422096      1.30E-08
   11    -688.2160422096      3.46E-09 Convergence criterion met
 ---------------------------------------
 SCF time:  CPU 683.00 s  wall 34.16 s
 SCF   energy in the final basis set = -688.2160422096
 Total energy in the final basis set = -688.2160422096
 
 --------------------------------------------------------------
 
                    Orbital Energies (a.u.)
 --------------------------------------------------------------
 
 Alpha MOs
 -- Occupied --
-19.180 -19.171 -19.121 -19.115 -10.314 -10.308 -10.234 -10.225
-10.212 -10.211 -10.199 -10.198 -10.197 -10.197  -1.121  -1.113
 -1.033  -1.027  -0.887  -0.796  -0.787  -0.741  -0.729  -0.655
 -0.639  -0.594  -0.574  -0.553  -0.523  -0.503  -0.493  -0.489
 -0.486  -0.480  -0.463  -0.456  -0.435  -0.431  -0.418  -0.402
 -0.391  -0.382  -0.375  -0.372  -0.361  -0.323  -0.309  -0.298
 -0.293  -0.277  -0.271
 -- Virtual --
 -0.068  -0.042  -0.012  -0.004   0.003   0.011   0.015   0.022
  0.027   0.029   0.031   0.039   0.045   0.051   0.056   0.057
  0.063   0.069   0.081   0.089   0.095   0.098   0.103   0.106
  0.111   0.114   0.116   0.119   0.124   0.127   0.128   0.133
  0.134   0.141   0.145   0.146   0.150   0.154   0.158   0.163
  0.168   0.169   0.175   0.178   0.186   0.191   0.197   0.202
  0.206   0.210   0.213   0.217   0.224   0.227   0.236   0.245
  0.249   0.258   0.261   0.265   0.274   0.279   0.281   0.285
  0.289   0.293   0.298   0.304   0.308   0.314   0.316   0.324
  0.332   0.335   0.342   0.348   0.354   0.359   0.360   0.367
  0.373   0.381   0.387   0.392   0.396   0.405   0.418   0.422
  0.430   0.462   0.469   0.492   0.496   0.507   0.512   0.529
  0.537   0.547   0.556   0.559   0.576   0.579   0.587   0.594
  0.598   0.611   0.624   0.631   0.641   0.647   0.654   0.659
  0.661   0.670   0.678   0.690   0.705   0.708   0.719   0.728
  0.732   0.741   0.747   0.762   0.763   0.774   0.803   0.823
  0.839   0.842   0.850   0.857   0.871   0.900   0.909   0.915
  0.937   0.940   0.986   0.995   1.006   1.018   1.032   1.045
  1.055   1.058   1.072   1.100   1.105   1.121   1.146   1.166
  1.178   1.192   1.211   1.218   1.231   1.240   1.265   1.280
  1.296   1.318   1.347   1.348   1.358   1.382   1.384   1.428
  1.436   1.451   1.455   1.482   1.498   1.509   1.525   1.527
  1.534   1.554   1.558   1.562   1.568   1.582   1.608   1.635
  1.639   1.657   1.666   1.697   1.701   1.706   1.714   1.726
  1.731   1.744   1.749   1.765   1.788   1.794   1.816   1.827
  1.835   1.874   1.904   1.912   1.928   1.949   1.956   1.972
  1.977   1.989   2.007   2.032   2.047   2.076   2.093   2.110
  2.116   2.124   2.140   2.187   2.217   2.269   2.294   2.352
  2.398   2.419   2.441   2.451   2.460   2.491   2.497   2.504
  2.523   2.543   2.557   2.577   2.591   2.605   2.643   2.650
  2.660   2.692   2.701   2.717   2.727   2.748   2.774   2.782
  2.804   2.808   2.828   2.834   2.843   2.852   2.874   2.893
  2.894   2.904   2.933   2.961   3.012   3.032   3.044   3.052
  3.084   3.105   3.109   3.166   3.170   3.220   3.221   3.251
  3.268   3.309   3.354   3.362   3.395   3.412   3.519   3.546
  3.561   3.603   3.624   3.639   3.707   3.768   3.784   3.802
  3.844   3.862   4.023   4.041   4.047   4.052   4.108   4.123
  4.186   4.269   4.349   4.834   5.028   5.043   5.095   5.139
  5.224   5.257   5.364   5.394   5.624   5.637   5.854   5.874
 23.576  23.837  23.858  23.922  23.929  23.938  23.948  24.052
 24.075  24.168  49.883  49.895  50.005  50.035
 --------------------------------------------------------------
 
          Ground-State Mulliken Net Atomic Charges

     Atom                 Charge (a.u.)
  ----------------------------------------
      1 C                     0.669652
      2 C                     0.388527
      3 C                    -0.406870
      4 C                    -0.606969
      5 O                    -0.061138
      6 O                    -0.210121
      7 O                    -0.007690
      8 O                    -0.216997
      9 C                    -0.248396
     10 C                    -0.240139
     11 C                    -0.080676
     12 C                    -0.218003
     13 C                    -0.219672
     14 C                    -0.281216
     15 H                     0.189886
     16 H                     0.188217
     17 H                     0.172770
     18 H                     0.170343
     19 H                     0.152902
     20 H                     0.159196
     21 H                     0.173032
     22 H                     0.173667
     23 H                     0.176688
     24 H                     0.183008
  ----------------------------------------
  Sum of atomic charges =     0.000000

 -----------------------------------------------------------------
                    Cartesian Multipole Moments
 -----------------------------------------------------------------
    Charge (ESU x 10^10)
                 0.0000
    Dipole Moment (Debye)
         X       1.3563      Y      -2.2363      Z       2.2084
       Tot       3.4231
    Quadrupole Moments (Debye-Ang)
        XX     -69.1121     XY       4.3620     YY     -72.2720
        XZ      -1.5358     YZ       6.2872     ZZ     -87.3272
    Octopole Moments (Debye-Ang^2)
       XXX      40.9634    XXY     -21.4933    XYY      10.6511
       YYY      16.3928    XXZ       8.4289    XYZ      -1.1897
       YYZ      15.8445    XZZ      12.4127    YZZ       5.7697
       ZZZ      -5.0264
    Hexadecapole Moments (Debye-Ang^3)
      XXXX   -1500.7637   XXXY     -22.6763   XXYY    -562.6054
      XYYY      37.7430   YYYY   -1520.1317   XXXZ      -1.4845
      XXYZ      14.7845   XYYZ     -17.8657   YYYZ      29.2942
      XXZZ    -346.6103   XYZZ     -10.3067   YYZZ    -333.8903
[...]
 -1.033  -1.026  -0.887  -0.796  -0.787  -0.741  -0.729  -0.655
 -0.639  -0.594  -0.574  -0.553  -0.523  -0.503  -0.493  -0.489
 -0.486  -0.480  -0.463  -0.457  -0.435  -0.431  -0.418  -0.402
 -0.390  -0.382  -0.375  -0.372  -0.361  -0.323  -0.309  -0.298
 -0.293  -0.277  -0.270
 -- Virtual --
 -0.068  -0.042  -0.012  -0.004   0.003   0.011   0.015   0.022
  0.027   0.029   0.031   0.039   0.045   0.052   0.056   0.057
  0.063   0.069   0.081   0.089   0.095   0.099   0.103   0.107
  0.111   0.114   0.115   0.119   0.124   0.127   0.128   0.133
  0.135   0.141   0.145   0.145   0.150   0.154   0.158   0.162
  0.168   0.170   0.175   0.177   0.187   0.190   0.197   0.202
  0.206   0.209   0.213   0.217   0.225   0.228   0.237   0.245
  0.249   0.258   0.261   0.264   0.274   0.280   0.281   0.286
  0.290   0.293   0.298   0.303   0.307   0.313   0.315   0.324
  0.332   0.337   0.343   0.348   0.354   0.359   0.361   0.367
  0.373   0.380   0.387   0.392   0.394   0.405   0.418   0.423
  0.430   0.461   0.468   0.492   0.497   0.506   0.512   0.529
  0.536   0.547   0.555   0.561   0.576   0.579   0.587   0.594
  0.598   0.611   0.625   0.631   0.641   0.646   0.656   0.658
  0.660   0.669   0.680   0.689   0.705   0.706   0.720   0.729
  0.733   0.740   0.749   0.761   0.763   0.775   0.803   0.823
  0.839   0.842   0.850   0.857   0.871   0.901   0.910   0.914
  0.938   0.940   0.986   0.995   1.005   1.019   1.032   1.045
  1.054   1.056   1.072   1.100   1.104   1.122   1.147   1.168
  1.175   1.193   1.210   1.219   1.232   1.239   1.267   1.279
  1.298   1.319   1.346   1.350   1.358   1.382   1.386   1.428
  1.435   1.450   1.458   1.483   1.498   1.510   1.526   1.527
  1.535   1.554   1.557   1.562   1.569   1.581   1.608   1.634
  1.639   1.658   1.667   1.696   1.701   1.707   1.713   1.727
  1.731   1.744   1.748   1.765   1.789   1.794   1.817   1.826
  1.835   1.875   1.904   1.911   1.928   1.949   1.956   1.971
  1.978   1.988   2.007   2.030   2.046   2.076   2.093   2.109
  2.116   2.123   2.140   2.187   2.219   2.270   2.295   2.351
  2.397   2.419   2.441   2.451   2.460   2.492   2.496   2.504
  2.524   2.542   2.557   2.577   2.589   2.606   2.643   2.650
  2.660   2.692   2.701   2.717   2.727   2.749   2.774   2.783
  2.804   2.808   2.829   2.834   2.844   2.851   2.874   2.893
  2.894   2.904   2.934   2.960   3.011   3.032   3.044   3.053
  3.083   3.104   3.105   3.166   3.169   3.220   3.221   3.252
  3.269   3.309   3.354   3.362   3.395   3.412   3.519   3.546
  3.561   3.603   3.624   3.639   3.707   3.769   3.785   3.802
  3.844   3.862   4.023   4.042   4.047   4.052   4.109   4.122
  4.186   4.267   4.348   4.834   5.028   5.043   5.095   5.138
  5.222   5.258   5.364   5.394   5.623   5.637   5.854   5.875
 23.575  23.836  23.859  23.922  23.929  23.938  23.949  24.053
 24.076  24.169  49.884  49.894  50.004  50.035
 --------------------------------------------------------------
 
          Ground-State Mulliken Net Atomic Charges

     Atom                 Charge (a.u.)
  ----------------------------------------
      1 C                     0.734335
      2 C                     0.359768
      3 C                    -0.398470
      4 C                    -0.627452
      5 O                    -0.061840
      6 O                    -0.210567
      7 O                    -0.006204
      8 O                    -0.215549
      9 C                    -0.245840
     10 C                    -0.237104
     11 C                    -0.098925
     12 C                    -0.209465
     13 C                    -0.207764
     14 C                    -0.311440
     15 H                     0.188371
     16 H                     0.188591
     17 H                     0.172598
     18 H                     0.169349
     19 H                     0.153897
     20 H                     0.159170
     21 H                     0.172805
     22 H                     0.173793
     23 H                     0.175693
     24 H                     0.182252
  ----------------------------------------
  Sum of atomic charges =     0.000000

 -----------------------------------------------------------------
                    Cartesian Multipole Moments
 -----------------------------------------------------------------
    Charge (ESU x 10^10)
                 0.0000
    Dipole Moment (Debye)
         X       0.9886      Y      -2.4165      Z       2.2021
       Tot       3.4156
    Quadrupole Moments (Debye-Ang)
        XX     -67.7647     XY       3.5128     YY     -73.3563
        XZ      -0.6873     YZ       6.4613     ZZ     -87.5586
    Octopole Moments (Debye-Ang^2)
       XXX      28.6498    XXY     -21.7325    XYY      18.6719
       YYY      10.9342    XXZ       9.4835    XYZ       0.0419
       YYZ      17.2107    XZZ      12.6811    YZZ       3.5123
       ZZZ       0.0742
    Hexadecapole Moments (Debye-Ang^3)
      XXXX   -1519.3355   XXXY     -46.9662   XXYY    -534.9178
      XYYY      53.1242   YYYY   -1548.5861   XXXZ       4.4176
      XXYZ      10.6022   XYYZ     -15.7495   YYYZ      40.4957
      XXZZ    -349.3452   XYZZ      -7.2707   YYZZ    -333.5304
      XZZZ       3.2321   YZZZ       9.2901   ZZZZ    -218.9919
 -----------------------------------------------------------------
 Calculating analytic gradient of the SCF energy
 Gradient of SCF Energy
            1           2           3           4           5           6
    1  -0.0000193  -0.0000062   0.0000230   0.0000048  -0.0000189  -0.0000065
    2   0.0000185   0.0000102  -0.0000241  -0.0000104   0.0000049  -0.0000205
    3   0.0000168   0.0000074  -0.0000205   0.0000145   0.0000180  -0.0000110
            7           8           9          10          11          12
    1   0.0000257   0.0000005   0.0000060  -0.0000025   0.0000020  -0.0000074
    2   0.0000079   0.0000046   0.0000046  -0.0000170   0.0000028   0.0000097
    3  -0.0000290  -0.0000111  -0.0000049  -0.0000087   0.0000017   0.0000194
           13          14          15          16          17          18
    1  -0.0000056  -0.0000077   0.0000200  -0.0000105  -0.0000064   0.0000208
    2   0.0000190   0.0000009  -0.0000096  -0.0000185   0.0000170   0.0000019
    3   0.0000173   0.0000030  -0.0000229  -0.0000056   0.0000247  -0.0000276
           19          20          21          22          23          24
    1   0.0000180  -0.0000080   0.0000006  -0.0000147   0.0000045  -0.0000121
    2   0.0000037  -0.0000134  -0.0000143   0.0000104   0.0000137  -0.0000018
    3  -0.0000220  -0.0000031  -0.0000096   0.0000242   0.0000101   0.0000189
 Max gradient component =       2.898E-05
 RMS gradient           =       1.422E-05
 Gradient time:  CPU 272.26 s  wall 17.40 s
 Geometry Optimization Parameters
   NAtoms,    NIC,     NZ,  NCons,   NDum,   NFix, NCnnct, MaxDiis
       24     152       0       0       0       0       0       0

 Cartesian Hessian Update
 Hessian Updated using BFGS Update


** GEOMETRY OPTIMIZATION IN DELOCALIZED INTERNAL COORDINATES **
   Searching for a Minimum

   Optimization Cycle:   9

                       Coordinates (Angstroms)
     ATOM                X               Y               Z
      1  C        -0.1482055595   -0.8753215661   -0.0296418824
      2  C        -1.1048400434    0.1545286712   -0.0676538134
      3  C         1.2952489291   -0.5843439879   -0.2819583162
      4  C        -0.7457109757    1.6062238587   -0.1660423145
      5  O         2.0991766040   -1.4976958727    0.3014255260
      6  O         1.7057722164    0.3277784603   -0.9595762343
      7  O         0.1487025413    1.9551291100    0.7746355763
      8  O        -1.2508192524    2.3759660423   -0.9460016506
      9  C         0.6590130041    3.2979920556    0.6892793993
     10  C         3.5081646077   -1.3461243342    0.0503564086
     11  C        -0.5737941542   -2.1997162501    0.1192997612
     12  C        -1.9291655268   -2.5040407108    0.2114670267
     13  C        -2.8755023477   -1.4838985372    0.1498314599
     14  C        -2.4619993514   -0.1616813710    0.0073536563
     15  H         1.1930724580    3.4289009160   -0.2531247312
     16  H         3.7151474923   -1.4218968011   -1.0183357201
     17  H        -3.9328036025   -1.7147906591    0.2124808706
     18  H        -0.1531613670    4.0231783680    0.7543839437
     19  H         1.3379382886    3.4030432880    1.5324717953
     20  H         3.9867411400   -2.1579141133    0.5935028042
     21  H         3.8574003063   -0.3795154283    0.4158562134
     22  H        -2.2443036114   -3.5354657361    0.3199692254
     23  H        -3.1891490274    0.6398876034   -0.0403937849
     24  H         0.1650641090   -2.9898477707    0.1416939621
   Point Group: c1    Number of degrees of freedom:    66


   Energy is   -688.216075536

 Hessian Updated using BFGS Update

 66 Hessian modes will be used to form the next step
  Hessian Eigenvalues:
     0.002062    0.008993    0.010464    0.011418    0.018521    0.018959
     0.021946    0.022803    0.022896    0.023029    0.023183    0.023294
     0.023357    0.023441    0.036943    0.060611    0.067797    0.101283
     0.101686    0.105860    0.106030    0.159378    0.159802    0.159984
     0.159992    0.159998    0.160000    0.160007    0.160297    0.160423
     0.161555    0.220055    0.224970    0.244338    0.245575    0.248902
     0.249747    0.249960    0.249989    0.250699    0.270673    0.319738
     0.330675    0.346456    0.346885    0.347104    0.347357    0.350863
     0.350895    0.355101    0.355190    0.355993    0.357761    0.359105
     0.396939    0.400863    0.421642    0.443951    0.462488    0.465967
     0.467864    0.476440    0.551604    0.563724    1.009543    1.015333

 Minimum Search - Taking Simple RFO Step
 Searching for Lamda that Minimizes Along All modes
 Value Taken    Lamda =   0.00000000
 Step Taken.  Stepsize is  0.013567

                             Maximum     Tolerance    Cnvgd?
         Gradient           0.000024      0.000300     YES
         Displacement       0.005965      0.000001      NO
         Energy change     -0.000000      0.000001     YES

 Final energy is   -688.216075535791     


 ******************************
 **  OPTIMIZATION CONVERGED  **
 ******************************

                       Coordinates (Angstroms)
     ATOM                X               Y               Z
      1  C        -0.1482055595   -0.8753215661   -0.0296418824
      2  C        -1.1048400434    0.1545286712   -0.0676538134
      3  C         1.2952489291   -0.5843439879   -0.2819583162
      4  C        -0.7457109757    1.6062238587   -0.1660423145
      5  O         2.0991766040   -1.4976958727    0.3014255260
      6  O         1.7057722164    0.3277784603   -0.9595762343
      7  O         0.1487025413    1.9551291100    0.7746355763
      8  O        -1.2508192524    2.3759660423   -0.9460016506
      9  C         0.6590130041    3.2979920556    0.6892793993
     10  C         3.5081646077   -1.3461243342    0.0503564086
     11  C        -0.5737941542   -2.1997162501    0.1192997612
     12  C        -1.9291655268   -2.5040407108    0.2114670267
     13  C        -2.8755023477   -1.4838985372    0.1498314599
     14  C        -2.4619993514   -0.1616813710    0.0073536563
     15  H         1.1930724580    3.4289009160   -0.2531247312
     16  H         3.7151474923   -1.4218968011   -1.0183357201
     17  H        -3.9328036025   -1.7147906591    0.2124808706
     18  H        -0.1531613670    4.0231783680    0.7543839437
     19  H         1.3379382886    3.4030432880    1.5324717953
     20  H         3.9867411400   -2.1579141133    0.5935028042
     21  H         3.8574003063   -0.3795154283    0.4158562134
     22  H        -2.2443036114   -3.5354657361    0.3199692254
     23  H        -3.1891490274    0.6398876034   -0.0403937849
     24  H         0.1650641090   -2.9898477707    0.1416939621

Z-matrix Print:
$molecule
0 1
O 
C  1 1.344093
O  2 1.206637 1 124.426428
C  1 1.439091 2 115.892571 3 -9.419508 0
H  4 1.087634 1 105.396606 2 178.642843 0
H  4 1.090762 1 110.659280 2 58.868650 0
H  4 1.091092 1 109.679389 2 -62.228833 0
C  2 1.498690 1 111.404949 3 -176.317191 0
C  8 1.395527 2 117.132636 1 127.283073 0
H  9 1.083300 8 118.865295 2 1.939514 0
C  9 1.392675 8 120.622087 2 -177.650967 0
H  11 1.084030 9 119.849451 8 179.653111 0
C  11 1.392854 9 119.878034 8 -0.336335 0
H  13 1.083938 11 120.253480 9 -179.856501 0
C  13 1.392171 11 119.896245 9 -0.532678 0
H  15 1.081999 13 120.252585 11 -178.471920 0
C  15 1.399046 13 120.673097 11 0.264980 0
C  17 1.493952 15 119.753830 13 -173.070305 0
O  18 1.208165 17 124.755515 15 146.506965 0
O  18 1.349388 17 111.763963 15 -31.215743 0
C  20 1.439186 18 115.884867 17 176.551266 0
H  21 1.087679 20 105.369733 18 179.954408 0
H  21 1.090820 20 110.384142 18 60.424247 0
H  21 1.091186 20 110.441374 18 -60.441038 0
$end

 
 --------------------------------------------------------------
 
                    Orbital Energies (a.u.)
 --------------------------------------------------------------
 
 Alpha MOs
 -- Occupied --
-19.180 -19.171 -19.121 -19.115 -10.314 -10.308 -10.234 -10.224
-10.212 -10.211 -10.199 -10.198 -10.197 -10.197  -1.121  -1.113
 -1.033  -1.026  -0.887  -0.796  -0.787  -0.741  -0.729  -0.655
 -0.639  -0.594  -0.574  -0.553  -0.523  -0.503  -0.493  -0.489
 -0.486  -0.480  -0.463  -0.457  -0.435  -0.431  -0.418  -0.402
 -0.390  -0.382  -0.375  -0.372  -0.361  -0.323  -0.309  -0.298
 -0.293  -0.277  -0.270
 -- Virtual --
 -0.068  -0.042  -0.012  -0.004   0.003   0.011   0.015   0.022
  0.027   0.029   0.031   0.039   0.045   0.052   0.056   0.057
  0.063   0.069   0.081   0.089   0.095   0.099   0.103   0.107
  0.111   0.114   0.115   0.119   0.124   0.127   0.128   0.133
  0.135   0.141   0.145   0.145   0.150   0.154   0.158   0.162
  0.168   0.170   0.175   0.177   0.187   0.190   0.197   0.202
  0.206   0.209   0.213   0.217   0.225   0.228   0.237   0.245
  0.249   0.258   0.261   0.264   0.274   0.280   0.281   0.286
  0.290   0.293   0.298   0.303   0.307   0.313   0.315   0.324
  0.332   0.337   0.343   0.348   0.354   0.359   0.361   0.367
  0.373   0.380   0.387   0.392   0.394   0.405   0.418   0.423
  0.430   0.461   0.468   0.492   0.497   0.506   0.512   0.529
  0.536   0.547   0.555   0.561   0.576   0.579   0.587   0.594
  0.598   0.611   0.625   0.631   0.641   0.646   0.656   0.658
  0.660   0.669   0.680   0.689   0.705   0.706   0.720   0.729
  0.733   0.740   0.749   0.761   0.763   0.775   0.803   0.823
  0.839   0.842   0.850   0.857   0.871   0.901   0.910   0.914
  0.938   0.940   0.986   0.995   1.005   1.019   1.032   1.045
  1.054   1.056   1.072   1.100   1.104   1.122   1.147   1.168
  1.175   1.193   1.210   1.219   1.232   1.239   1.267   1.279
  1.298   1.319   1.346   1.350   1.358   1.382   1.386   1.428
  1.435   1.450   1.458   1.483   1.498   1.510   1.526   1.527
  1.535   1.554   1.557   1.562   1.569   1.581   1.608   1.634
  1.639   1.658   1.667   1.696   1.701   1.707   1.713   1.727
  1.731   1.744   1.748   1.765   1.789   1.794   1.817   1.826
  1.835   1.875   1.904   1.911   1.928   1.949   1.956   1.971
  1.978   1.988   2.007   2.030   2.046   2.076   2.093   2.109
  2.116   2.123   2.140   2.187   2.219   2.270   2.295   2.351
  2.397   2.419   2.441   2.451   2.460   2.492   2.496   2.504
  2.524   2.542   2.557   2.577   2.589   2.606   2.643   2.650
  2.660   2.692   2.701   2.717   2.727   2.749   2.774   2.783
  2.804   2.808   2.829   2.834   2.844   2.851   2.874   2.893
  2.894   2.904   2.934   2.960   3.011   3.032   3.044   3.053
  3.083   3.104   3.105   3.166   3.169   3.220   3.221   3.252
  3.269   3.309   3.354   3.362   3.395   3.412   3.519   3.546
  3.561   3.603   3.624   3.639   3.707   3.769   3.785   3.802
  3.844   3.862   4.023   4.042   4.047   4.052   4.109   4.122
  4.186   4.267   4.348   4.834   5.028   5.043   5.095   5.138
  5.222   5.258   5.364   5.394   5.623   5.637   5.854   5.875
 23.575  23.836  23.859  23.922  23.929  23.938  23.949  24.053
 24.076  24.169  49.884  49.894  50.004  50.035
 --------------------------------------------------------------
 
          Ground-State Mulliken Net Atomic Charges

     Atom                 Charge (a.u.)
  ----------------------------------------
      1 C                     0.734335
      2 C                     0.359768
      3 C                    -0.398470
      4 C                    -0.627452
      5 O                    -0.061840
      6 O                    -0.210567
      7 O                    -0.006204
      8 O                    -0.215549
      9 C                    -0.245840
     10 C                    -0.237104
     11 C                    -0.098925
     12 C                    -0.209465
     13 C                    -0.207764
     14 C                    -0.311440
     15 H                     0.188371
     16 H                     0.188591
     17 H                     0.172598
     18 H                     0.169349
     19 H                     0.153897
     20 H                     0.159170
     21 H                     0.172805
     22 H                     0.173793
     23 H                     0.175693
     24 H                     0.182252
  ----------------------------------------
  Sum of atomic charges =     0.000000

 -----------------------------------------------------------------
                    Cartesian Multipole Moments
 -----------------------------------------------------------------
    Charge (ESU x 10^10)
                 0.0000
    Dipole Moment (Debye)
         X       0.9886      Y      -2.4165      Z       2.2021
       Tot       3.4156
    Quadrupole Moments (Debye-Ang)
        XX     -67.7647     XY       3.5128     YY     -73.3563
        XZ      -0.6873     YZ       6.4613     ZZ     -87.5586
    Octopole Moments (Debye-Ang^2)
       XXX      28.6498    XXY     -21.7325    XYY      18.6719
       YYY      10.9342    XXZ       9.4835    XYZ       0.0419
       YYZ      17.2107    XZZ      12.6811    YZZ       3.5123
       ZZZ       0.0742
    Hexadecapole Moments (Debye-Ang^3)
      XXXX   -1519.3355   XXXY     -46.9662   XXYY    -534.9178
      XYYY      53.1242   YYYY   -1548.5861   XXXZ       4.4176
      XXYZ      10.6022   XYYZ     -15.7495   YYYZ      40.4957
      XXZZ    -349.3452   XYZZ      -7.2707   YYZZ    -333.5304
      XZZZ       3.2321   YZZZ       9.2901   ZZZZ    -218.9919
 -----------------------------------------------------------------
Archival summary:
1\1\nid04477\OPT\ProcedureUnspecified\BasisUnspecified\41010\junteng\TueOct318:31:102017TueOct318:31:102017\0\\#,OPT,ProcedureUnspecified,BasisUnspecified,\\0,1\O\C,1,1.34409\O,2,1.20664,1,124.426\C,1,1.43909,2,115.893,3,-9.41951,0\H,4,1.08763,1,105.397,2,178.643,0\H,4,1.09076,1,110.659,2,58.8686,0\H,4,1.09109,1,109.679,2,-62.2288,0\C,2,1.49869,1,111.405,3,-176.317,0\C,8,1.39553,2,117.133,1,127.283,0\H,9,1.0833,8,118.865,2,1.93951,0\C,9,1.39267,8,120.622,2,-177.651,0\H,11,1.08403,9,119.849,8,179.653,0\C,11,1.39285,9,119.878,8,-0.336335,0\H,13,1.08394,11,120.253,9,-179.857,0\C,13,1.39217,11,119.896,9,-0.532678,0\H,15,1.082,13,120.253,11,-178.472,0\C,15,1.39905,13,120.673,11,0.26498,0\C,17,1.49395,15,119.754,13,-173.07,0\O,18,1.20817,17,124.756,15,146.507,0\O,18,1.34939,17,111.764,15,-31.2157,0\C,20,1.43919,18,115.885,17,176.551,0\H,21,1.08768,20,105.37,18,179.954,0\H,21,1.09082,20,110.384,18,60.4242,0\H,21,1.09119,20,110.441,18,-60.441,0\\\@

 Total job time:  471.29s(wall), 8804.86s(cpu) 
 Tue Oct  3 18:31:10 2017

        *************************************************************
        *                                                           *
        *  Thank you very much for using Q-Chem.  Have a nice day.  *
        *                                                           *
        *************************************************************


