nid04578 10.128.18
Q-Chem Developer Version! Running on 10.128.18.*
                  Welcome to Q-Chem
     A Quantum Leap Into The Future Of Chemistry


 Q-Chem 5.0, Q-Chem, Inc., Pleasanton, CA (2017)

 Yihan Shao,  Zhengting Gan,  E. Epifanovsky,  A. T. B. Gilbert,  M. Wormit,  
 J. Kussmann,  A. W. Lange,  A. Behn,  Jia Deng,  Xintian Feng,  D. Ghosh,  
 M. Goldey,  P. R. Horn,  L. D. Jacobson,  I. Kaliman,  T. Kus,  A. Landau,  
 Jie Liu,  E. I. Proynov,  R. M. Richard,  R. P. Steele,  E. J. Sundstrom,  
 H. L. Woodcock III,  P. M. Zimmerman,  D. Zuev,  B. Albrecht,  E. Alguire,  
 S. A. Baeppler,  Z. Benda,  Y. A. Bernard,  E. J. Berquist,  K. B. Bravaya,  
 D. Casanova,  Chun-Min Chang,  Yunqing Chen,  A. Chien,  K. D. Closser,  
 M. P. Coons,  S. Dasgupta,  M. Diedenhofen,  Hainam Do,  R. G. Edgar,  
 Po-Tung Fang,  S. Fatehi,  Qingguo Feng,  Qinghui Ge,  A. Ghysels,  
 J. Gomes,  J. Gonthier,  A. Gunina,  M. W. D. Hanson-Heine,  
 P. H. P. Harbach,  A. W. Hauser,  J. E. Herr,  E. G. Hohenstein,  
 Z. C. Holden,  Kerwin Hui,  T.-C. Jagau,  Hyunjun Ji,  B. Kaduk,  
 K. Khistyaev,  Jaehoon Kim,  P. Klunzinger,  K. Koh,  D. Kosenkov,  
 T. Kowalczyk,  C. M. Krauter,  A. Kunitsa,  Ka Un Lao,  A. Laurent,  
 K. V. Lawler,  Joonho Lee,  D. Lefrancois,  S. Lehtola,  D. S. Levine,  
 Yi-Pei Li,  You-Sheng Lin,  Fenglai Liu,  E. Livshits,  A. Luenser,  
 P. Manohar,  E. Mansoor,  S. F. Manzer,  Shan-Ping Mao,  Yuezhi Mao,  
 N. Mardirossian,  A. V. Marenich,  L. A. Martinez-Martinez,  S. A. Maurer,  
 N. J. Mayhall,  S. C. McKenzie,  J.-M. Mewes,  A. F. Morrison,  K. Nanda,  
 T. S. Nguyen-Beck,  R. Olivares-Amaya,  J. A. Parkhill,  T. M. Perrine,  
 F. Plasser,  S. Prager,  A. Prociuk,  D. R. Rehn,  F. Rob,  M. Schneider,  
 N. Sergueev,  S. M. Sharada,  S. Sharma,  D. W. Small,  T. Stauch,  
 T. Stein,  Yu-Chuan Su,  A. J. W. Thom,  T. Tsuchimochi,  L. Vogt,  
 O. Vydrov,  M. A. Watson,  J. Wenzel,  M. de Wergifosse,  T. A. Wesolowski,  
 A. White,  J. Witte,  A. Yamada,  Jun Yang,  K. Yao,  S. Yeganeh,  
 S. R. Yost,  Zhi-Qiang You,  A. Zech,  Igor Ying Zhang,  Xing Zhang,  
 Yan Zhao,  Ying Zhu,  B. R. Brooks,  G. K. L. Chan,  C. J. Cramer,  
 M. S. Gordon,  W. J. Hehre,  A. Klamt,  M. W. Schmidt,  C. D. Sherrill,  
 D. G. Truhlar,  A. Aspuru-Guzik,  R. Baer,  A. T. Bell,  N. A. Besley,  
 Jeng-Da Chai,  A. Dreuw,  B. D. Dunietz,  T. R. Furlani,  Chao-Ping Hsu,  
 Yousung Jung,  Jing Kong,  D. S. Lambrecht,  WanZhen Liang,  C. Ochsenfeld,  
 V. A. Rassolov,  L. V. Slipchenko,  J. E. Subotnik,  T. Van Voorhis,  
 J. M. Herbert,  A. I. Krylov,  P. M. W. Gill,  M. Head-Gordon

 Contributors to earlier versions of Q-Chem not listed above: 
 R. D. Adamson,  B. Austin,  J. Baker,  G. J. O. Beran,  K. Brandhorst,  
 S. T. Brown,  E. F. C. Byrd,  A. K. Chakraborty,  C.-L. Cheng,  
 Siu Hung Chien,  D. M. Chipman,  D. L. Crittenden,  H. Dachsel,  
 R. A. DiStasio Jr.,  R. J. Doerksen,  A. D. Dutoi,  L. Fusti-Molnar,  
 W. A. Goddard III,  A. Golubeva-Zadorozhnaya,  S. R. Gwaltney,  G. Hawkins,  
 A. Heyden,  S. Hirata,  G. Kedziora,  F. J. Keil,  C. Kelley,  Jihan Kim,  
 R. A. King,  R. Z. Khaliullin,  P. P. Korambath,  W. Kurlancheek,  
 A. M. Lee,  M. S. Lee,  S. V. Levchenko,  Ching Yeh Lin,  D. Liotard,  
 R. C. Lochan,  I. Lotan,  P. E. Maslen,  N. Nair,  D. P. O'Neill,  
 D. Neuhauser,  E. Neuscamman,  C. M. Oana,  R. Olson,  B. Peters,  
 R. Peverati,  P. A. Pieniazek,  Y. M. Rhee,  J. Ritchie,  M. A. Rohrdanz,  
 E. Rosta,  N. J. Russ,  H. F. Schaefer III,  N. E. Schultz,  N. Shenvi,  
 A. C. Simmonett,  A. Sodt,  D. Stuck,  K. S. Thanthiriwatte,  V. Vanovschi,  
 Tao Wang,  A. Warshel,  C. F. Williams,  Q. Wu,  X. Xu,  W. Zhang

 Please cite Q-Chem as follows:
 Y. Shao et al., Mol. Phys. 113, 184-215 (2015)
 DOI: 10.1080/00268976.2014.952696

 Q-Chem 5.0.0 for Intel X86 EM64T Linux

 Parts of Q-Chem use Armadillo 5.200.1 (Boston Tea Smuggler).
 http://arma.sourceforge.net/

 Q-Chem begins on Wed Oct  4 17:29:54 2017  

Host: nid04578
0

     Scratch files written to /global/cscratch1/sd/junteng/scratch/13/opt_1001+-.save//

Checking the input file for inconsistencies... 	...done.

--------------------------------------------------------------
User input:
--------------------------------------------------------------
$molecule
0  1
C    0.656  -1.997   0.550
C   -0.379  -2.055   1.685
C    1.075  -0.633   0.035
C   -0.743  -0.756   2.367
O    2.254  -0.766  -0.643
O    0.466   0.414   0.178
O    0.380  -0.211   2.923
O   -1.879  -0.339   2.537
C    0.159   1.039   3.578
C    2.798   0.433  -1.203
C   -0.074  -2.721  -0.584
C   -0.239  -4.209  -0.268
C   -1.341  -4.194   0.796
C   -1.585  -2.694   0.978
O   -1.425  -2.250  -0.391
H    1.566  -2.528   0.855
H   -0.041  -2.721   2.491
H   -0.505   1.690   2.999
H    2.061   1.233  -1.326
H    0.286  -2.514  -1.595
H   -0.592  -4.755  -1.150
H    0.687  -4.677   0.078
H   -2.237  -4.682   0.398
H   -1.053  -4.703   1.720
H   -2.574  -2.451   1.372
H   -0.249   0.863   4.578
H    1.124   1.543   3.677
H    3.204   0.190  -2.189
H    3.617   0.777  -0.565
$end


$opt
CONSTRAINT
tors    2    1    3    5    167.3
tors    1    2    4    7    -66.6
ENDCONSTRAINT
$end

$rem
JOBTYPE                   OPT
METHOD                    B3LYP
DFT_D                     D3_OP
BASIS                     STO-3G
GEOM_OPT_MAX_CYCLES       500
SYMMETRY                  False
THRESH                    12
SCF_CONVERGENCE           8
MAX_SUB_FILE_NUM          128
MEM_STATIC                400
MEM_TOTAL                 4000
$end

--------------------------------------------------------------
 Adding empirical dispersion correction 
 ----------------------------------------------------------------
 Doing -D3(op) with
 s6 =   1.00000
 s8 =   0.78311
 a1 =   0.30000
 a2 =   4.25000
 n  =  10.00000
 -D3 energy without 3body term =     -0.0301175666 hartrees
 ----------------------------------------------------------------
             Standard Nuclear Orientation (Angstroms)
    I     Atom           X                Y                Z
 ----------------------------------------------------------------
    1      C       0.3697342729    -0.6344652785    -0.5682185024
    2      C       0.5830892856     0.8866305416    -0.5085431759
    3      C      -0.8699014548    -1.2078766031     0.0919214188
    4      C      -0.5598235439     1.7339384151     0.0021824174
    5      O      -1.0906277378    -2.4603631032    -0.4080500553
    6      O      -1.5566019091    -0.6636803128     0.9403504869
    7      O      -1.6498149946     1.5482939899    -0.8007775971
    8      O      -0.4799332706     2.5718972711     0.8880308806
    9      C      -2.8044492191     2.2858543985    -0.3968092184
   10      C      -2.2289112229    -3.1547881210     0.1108156327
   11      C       1.5897974066    -1.1573410878     0.1940667708
   12      C       2.8778742489    -0.9023938644    -0.5914807846
   13      C       3.0736984138     0.6062805862    -0.4118163796
   14      C       1.8273869003     0.9943712392     0.3874040257
   15      O       1.7087539834    -0.1697627505     1.2404077097
   16      H       0.3688686773    -0.9646705244    -1.6141868320
   17      H       0.8207486346     1.2891342672    -1.5030002060
   18      H      -2.9457124994     2.2580152575     0.6891040690
   19      H      -2.5806906233    -2.7639184006     1.0709042303
   20      H       1.5042519872    -2.1684976679     0.6000401094
   21      H       3.7202931181    -1.4355074158    -0.1367617613
   22      H       2.8052766319    -1.2051355012    -1.6399525713
   23      H       3.9784423183     0.7875324718     0.1780566756
   24      H       3.1670514341     1.1432862684    -1.3598201301
   25      H       1.9410338999     1.9133998678     0.9660893801
   26      H      -2.7227111035     3.3187026777    -0.7489218606
   27      H      -3.6791460159     1.8248750106    -0.8631197561
   28      H      -1.9485029726    -4.2023825341     0.2522304790
   29      H      -3.0343825811    -3.1071758873    -0.6274864507
 ----------------------------------------------------------------
 Molecular Point Group                 C1    NOp =  1
 Largest Abelian Subgroup              C1    NOp =  1
 Nuclear Repulsion Energy =  1110.7745787068 hartrees
 There are       57 alpha and       57 beta electrons
 Requested basis set is STO-3G
 There are 44 shells and 89 basis functions

 Total QAlloc Memory Limit   4000 MB
 Mega-Array Size       392 MB
 MEM_STATIC part       400 MB
 A cutoff of  1.0D-12 yielded    865 shell pairs
 There are      3901 function pairs
 
 -------------------------------------------------------
 OpenMP Integral Computing Module                       
 Release: version 1.0, May 2013, Q-Chem Inc. Pittsburgh 
 -------------------------------------------------------
 Integral Job Info:
 Integral job number is                      11
 Integral operator is                         1
 short-range coefficients                     0
 long-range coefficients              100000000
 Omega coefficients                           0
 if combine SR and LR in K                    0
 Integral screening is                        0
 Integral computing path is                   2
 max size of driver memory is            800000
 size of driver memory is                 45569
 size of scratch memory is               945100
 max col of scratch BK array                289
 max len of scratch array in speh3           22
 max len of scratch index in speh4            8
 max int batch size is                      520
 min int batch size is                       52
 fixed nKL is                                52
 max L of basis functions is                  1
 order of int derivative is                   0
 number of shells is                         44
 number of basis is                          89
 number of cartesian basis is                89
 number of contracted shell pairs           865
 number of primitive shell pairs           4854
 maxK2 (contraction) of shell pair            9
 max number of K2 of shell pair               1
 max number of CS2 of shell pair            117
 max number of PS2 of shell pair            570
 mem total for path MDJ                   27818
 -------------------------------------------------------
 Smallest overlap matrix eigenvalue = 1.94E-01

 Scale SEOQF with 1.000000e-01/1.000000e-01/1.000000e-01

 Standard Electronic Orientation quadrupole field applied
 Nucleus-field energy     =     0.0000000330 hartrees
 Guess from superposition of atomic densities
 Warning:  Energy on first SCF cycle will be non-variational
 A restricted hybrid HF-DFT SCF calculation will be
 performed using Pulay DIIS extrapolation
 Exchange:     0.2000 Hartree-Fock + 0.0800 Slater + 0.7200 B88
 Correlation:  0.1900 VWN1RPA + 0.8100 LYP
 Using SG-1 standard quadrature grid
 Dispersion:   Grimme D3
 SCF converges when DIIS error is below 1.0E-08
 -------------------------------------------------------
 OpenMP Integral computing Module                
 Release: version 1.0, May 2013, Q-Chem Inc. Pittsburgh 
 -------------------------------------------------------
 -------------------------------------------------------
 OpenMP BLAS3 based DFT computing Module                
 Release: version 1.0, May 2013, Q-Chem Inc. Pittsburgh 
 -------------------------------------------------------
 ---------------------------------------
  Cycle       Energy         DIIS Error
 ---------------------------------------
    1    -755.1333775847      1.15E-01
    2    -755.4330515638      1.43E-02
    3    -754.4849215495      3.46E-02
    4    -755.6668951176      4.97E-03
    5    -755.6923795685      1.60E-03
    6    -755.6952387513      2.89E-04
    7    -755.6953280194      8.61E-05
    8    -755.6953339718      4.56E-05
    9    -755.6953363169      5.67E-06
   10    -755.6953363555      1.52E-06
   11    -755.6953363583      3.20E-07
   12    -755.6953363584      9.74E-08
   13    -755.6953363584      1.84E-08
   14    -755.6953363584      6.30E-09 Convergence criterion met
 ---------------------------------------
 SCF time:  CPU 60.72 s  wall 2.82 s
 SCF   energy in the final basis set = -755.6953363584
 Total energy in the final basis set = -755.6953363584
 
 --------------------------------------------------------------
 
                    Orbital Energies (a.u.)
 --------------------------------------------------------------
 
 Alpha MOs
 -- Occupied --
-18.943 -18.934 -18.872 -18.868 -18.859 -10.111 -10.104 -10.073
-10.066 -10.061 -10.055 -10.036 -10.033 -10.014 -10.012  -1.042
 -1.033  -0.990  -0.953  -0.945  -0.775  -0.736  -0.726  -0.683
 -0.671  -0.604  -0.551  -0.537  -0.526  -0.488  -0.473  -0.461
 -0.440  -0.428  -0.426  -0.421  -0.415  -0.386  -0.375  -0.365
 -0.353  -0.345  -0.341  -0.326  -0.314  -0.310  -0.301  -0.289
 -0.277  -0.247  -0.240  -0.219  -0.182  -0.172  -0.155  -0.144
 -0.134
 -- Virtual --
  0.113   0.127   0.251   0.273   0.299   0.310   0.345   0.356
  0.375   0.385   0.402   0.409   0.410   0.426   0.432   0.435
  0.443   0.451   0.455   0.460   0.460   0.465   0.475   0.480
  0.491   0.502   0.518   0.541   0.575   0.584   0.702   0.708
 --------------------------------------------------------------
 
          Ground-State Mulliken Net Atomic Charges

     Atom                 Charge (a.u.)
  ----------------------------------------
      1 C                    -0.082971
      2 C                    -0.085571
      3 C                     0.240451
      4 C                     0.242231
      5 O                    -0.189960
      6 O                    -0.229387
      7 O                    -0.191160
      8 O                    -0.229880
      9 C                    -0.125822
     10 C                    -0.130239
     11 C                     0.028296
     12 C                    -0.148142
     13 C                    -0.147404
     14 C                     0.027402
     15 O                    -0.209209
     16 H                     0.089321
     17 H                     0.087279
     18 H                     0.100295
     19 H                     0.102343
     20 H                     0.088273
     21 H                     0.078598
     22 H                     0.072977
     23 H                     0.078897
     24 H                     0.071806
     25 H                     0.097598
     26 H                     0.087949
     27 H                     0.092564
     28 H                     0.092952
     29 H                     0.090514
  ----------------------------------------
  Sum of atomic charges =    -0.000000

 -----------------------------------------------------------------
                    Cartesian Multipole Moments
 -----------------------------------------------------------------
    Charge (ESU x 10^10)
                 0.0000
    Dipole Moment (Debye)
         X      -0.4166      Y      -1.4010      Z      -2.3203
       Tot       2.7423
    Quadrupole Moments (Debye-Ang)
        XX     -73.2573     XY       1.4702     YY     -76.5838
        XZ      -0.8786     YZ      -4.0885     ZZ     -84.4320
    Octopole Moments (Debye-Ang^2)
       XXX     -32.0675    XXY       2.6418    XYY     -21.2123
       YYY     -18.0132    XXZ      -1.5320    XYZ       2.6868
       YYZ       0.4941    XZZ      -5.4483    YZZ      -0.5880
       ZZZ       2.8189
    Hexadecapole Moments (Debye-Ang^3)
      XXXX   -1766.3352   XXXY      -9.1296   XXYY    -491.3941
      XYYY      25.6612   YYYY   -1433.0856   XXXZ      29.3497
      XXYZ       1.9950   XYYZ       9.5677   YYYZ     -42.5702
      XXZZ    -358.3887   XYZZ       4.2414   YYZZ    -298.1186
      XZZZ      -2.0840   YZZZ       6.4186   ZZZZ    -270.9550
 -----------------------------------------------------------------
 Calculating analytic gradient of the SCF energy
 Gradient of SCF Energy
            1           2           3           4           5           6
    1   0.0021799  -0.0079730  -0.0035713  -0.0118003  -0.0264753   0.0361920
    2   0.0147913  -0.0097851  -0.0216101   0.0028776   0.0360793  -0.0275161
    3   0.0422889   0.0229121   0.0047460  -0.0042293   0.0358437  -0.0453326
            7           8           9          10          11          12
    1   0.0164333   0.0007554   0.0161062   0.0147445  -0.0138282  -0.0217591
    2   0.0367505  -0.0371405  -0.0106249   0.0095456   0.0058728   0.0198850
    3   0.0447053  -0.0455882  -0.0072183  -0.0088297  -0.0065146   0.0225080
           13          14          15          16          17          18
    1  -0.0241050  -0.0105318   0.0070337  -0.0006561  -0.0000244   0.0002217
    2  -0.0176790  -0.0004173   0.0029261   0.0044461   0.0029786  -0.0041832
    3   0.0175573  -0.0072092  -0.0670699   0.0053539   0.0078343  -0.0111811
           19          20          21          22          23          24
    1   0.0033618   0.0038078  -0.0013620   0.0001313  -0.0031001  -0.0009921
    2  -0.0087182   0.0089398   0.0060041   0.0020688  -0.0049969  -0.0034859
    3  -0.0085645  -0.0049610  -0.0006986   0.0063589  -0.0026417   0.0059499
           25          26          27          28          29
    1   0.0056966   0.0025947   0.0072903  -0.0031770   0.0128064
    2  -0.0092234  -0.0145968   0.0054778   0.0113557  -0.0000218
    3  -0.0076017  -0.0009062   0.0069966  -0.0001980   0.0056898
 Max gradient component =       6.707E-02
 RMS gradient           =       1.788E-02
 Gradient time:  CPU 24.62 s  wall 1.18 s
 Geometry Optimization Parameters
   NAtoms,    NIC,     NZ,  NCons,   NDum,   NFix, NCnnct, MaxDiis
       29     227       0       2       0       0       0       0


** CONSTRAINED OPTIMIZATION IN DELOCALIZED INTERNAL COORDINATES **
   Searching for a Minimum

   Optimization Cycle:   1

                       Coordinates (Angstroms)
     ATOM                X               Y               Z
      1  C         0.3697342729   -0.6344652785   -0.5682185024
      2  C         0.5830892856    0.8866305416   -0.5085431759
      3  C        -0.8699014548   -1.2078766031    0.0919214188
      4  C        -0.5598235439    1.7339384151    0.0021824174
      5  O        -1.0906277378   -2.4603631032   -0.4080500553
      6  O        -1.5566019091   -0.6636803128    0.9403504869
      7  O        -1.6498149946    1.5482939899   -0.8007775971
      8  O        -0.4799332706    2.5718972711    0.8880308806
      9  C        -2.8044492191    2.2858543985   -0.3968092184
     10  C        -2.2289112229   -3.1547881210    0.1108156327
     11  C         1.5897974066   -1.1573410878    0.1940667708
     12  C         2.8778742489   -0.9023938644   -0.5914807846
     13  C         3.0736984138    0.6062805862   -0.4118163796
     14  C         1.8273869003    0.9943712392    0.3874040257
     15  O         1.7087539834   -0.1697627505    1.2404077097
     16  H         0.3688686773   -0.9646705244   -1.6141868320
     17  H         0.8207486346    1.2891342672   -1.5030002060
     18  H        -2.9457124994    2.2580152575    0.6891040690
     19  H        -2.5806906233   -2.7639184006    1.0709042303
     20  H         1.5042519872   -2.1684976679    0.6000401094
     21  H         3.7202931181   -1.4355074158   -0.1367617613
     22  H         2.8052766319   -1.2051355012   -1.6399525713
     23  H         3.9784423183    0.7875324718    0.1780566756
     24  H         3.1670514341    1.1432862684   -1.3598201301
     25  H         1.9410338999    1.9133998678    0.9660893801
     26  H        -2.7227111035    3.3187026777   -0.7489218606
     27  H        -3.6791460159    1.8248750106   -0.8631197561
     28  H        -1.9485029726   -4.2023825341    0.2522304790
     29  H        -3.0343825811   -3.1071758873   -0.6274864507
   Point Group: c1    Number of degrees of freedom:    81


   Energy is   -755.695336358

              Constraints and their Current Values
                                        Value     Constraint
   Dihedral:        2   1   3   5      161.585      167.300
   Dihedral:        1   2   4   7      -59.895      -66.600

 Attempting to Generate Delocalized Internal Coordinates

   Using Lagrange Multiplier Algorithm


 83 Hessian modes will be used to form the next step
  Hessian Eigenvalues:
    -0.977753   -0.977753    0.045000    0.045000    0.045000    0.045000
     0.045004    0.045352    0.045530    0.048627    0.058814    0.061923
     0.065581    0.067904    0.070808    0.072130    0.074343    0.075916
     0.081732    0.083785    0.084157    0.085390    0.086890    0.088227
     0.091114    0.091429    0.097232    0.098159    0.112260    0.112299
     0.113404    0.116979    0.117194    0.120275    0.121575    0.138015
     0.140421    0.160000    0.160000    0.160000    0.160000    0.160000
     0.160000    0.168655    0.174257    0.246664    0.248450    0.249983
     0.250000    0.250000    0.250000    0.250000    0.257040    0.266186
     0.268519    0.290485    0.293737    0.306576    0.311874    0.329392
     0.338114    0.340326    0.341575    0.341941    0.342237    0.342787
     0.342803    0.343231    0.343866    0.343905    0.343937    0.344082
     0.344477    0.344724    0.345856    0.408772    0.412181    0.516485
     0.516574    0.945024    0.955398    1.022753    1.022753

 Minimum Search - Taking P-RFO Step
 Searching for Lamda that Maximizes Along the Constraint modes Only
 Value Taken    Lamda =   0.01263580
 Searching for Lamda that Minimizes Along All other modes
 Value Taken    Lamda =  -0.07460892
 Calculated Step too Large.  Step scaled by  0.694263
 Step Taken.  Stepsize is  0.300000

                             Maximum     Tolerance    Cnvgd?
         Gradient            0.117030       0.000300      NO
         Displacement        0.101175       0.001200      NO
         Energy change     *********       0.000001      NO


 New Cartesian Coordinates Obtained by Inverse Iteration

 Displacement from previous Coordinates is:  0.818969
 Adding empirical dispersion correction 
 ----------------------------------------------------------------
 Doing -D3(op) with
 s6 =   1.00000
 s8 =   0.78311
 a1 =   0.30000
 a2 =   4.25000
 n  =  10.00000
 -D3 energy without 3body term =     -0.0298733317 hartrees
 ----------------------------------------------------------------
             Standard Nuclear Orientation (Angstroms)
    I     Atom           X                Y                Z
 ----------------------------------------------------------------
    1      C       0.3819571865    -0.6575883921    -0.6177784949
    2      C       0.5892554411     0.8902453017    -0.5227439987
    3      C      -0.8997716541    -1.2215867354     0.0474767883
    4      C      -0.5977530270     1.7214655029     0.0310839743
    5      O      -1.0913568630    -2.5290050457    -0.4138636417
    6      O      -1.6074249889    -0.6556756876     0.8977008050
    7      O      -1.6759511820     1.6052864905    -0.8552454859
    8      O      -0.5533762241     2.5227996268     0.9803503876
    9      C      -2.8484523356     2.3555736894    -0.4271792578
   10      C      -2.2495987131    -3.1948909793     0.1631926921
   11      C       1.6302542860    -1.1813648887     0.1799465457
   12      C       2.9423348397    -0.9104749888    -0.6272952673
   13      C       3.1238513793     0.6243118270    -0.4135717393
   14      C       1.8450977970     0.9738109322     0.4172273427
   15      O       1.7267380321    -0.2111778822     1.2754485641
   16      H       0.4012002482    -0.9960822404    -1.6669126865
   17      H       0.8460675118     1.3277871357    -1.5034640012
   18      H      -3.0291727389     2.2547670442     0.6583845955
   19      H      -2.5841646601    -2.7194216802     1.1028385690
   20      H       1.5377486620    -2.2043282090     0.5794286625
   21      H       3.7879738374    -1.4549750827    -0.1830773868
   22      H       2.8680402343    -1.2012580128    -1.6851096075
   23      H       4.0273307108     0.8148425228     0.1831779706
   24      H       3.2083890060     1.1896680801    -1.3529260284
   25      H       1.9261822497     1.8881899463     1.0265030547
   26      H      -2.7488616079     3.4262420744    -0.6858529911
   27      H      -3.7174351072     1.9422422915    -0.9661636870
   28      H      -1.9718181538    -4.2421231068     0.3749143762
   29      H      -3.0821921019    -3.1930263241    -0.5638310497
 ----------------------------------------------------------------
 Molecular Point Group                 C1    NOp =  1
 Largest Abelian Subgroup              C1    NOp =  1
 Nuclear Repulsion Energy =  1092.1569041012 hartrees
 There are       57 alpha and       57 beta electrons
 Applying Cartesian multipole field
    Component          Value
    ---------          -----
     (2,0,0)        1.00000E-11
     (0,2,0)        2.00000E-11
     (0,0,2)       -3.00000E-11
 Nucleus-field energy     =     0.0000000337 hartrees
 Requested basis set is STO-3G
 There are 44 shells and 89 basis functions
 A cutoff of  1.0D-12 yielded    862 shell pairs
 There are      3898 function pairs
 Smallest overlap matrix eigenvalue = 2.07E-01
 Guess MOs from SCF MO coefficient file
 Reading MOs from coefficient file
 Reading MOs from coefficient file
 A restricted hybrid HF-DFT SCF calculation will be
 performed using Pulay DIIS extrapolation
 Exchange:     0.2000 Hartree-Fock + 0.0800 Slater + 0.7200 B88
 Correlation:  0.1900 VWN1RPA + 0.8100 LYP
 Using SG-1 standard quadrature grid
 Dispersion:   Grimme D3
 SCF converges when DIIS error is below 1.0E-08
 Geometry optimization detected.  Setting ReadMinima to 0
 Setting SaveMinima to 0
 -------------------------------------------------------
 OpenMP Integral computing Module                
 Release: version 1.0, May 2013, Q-Chem Inc. Pittsburgh 
 -------------------------------------------------------
 -------------------------------------------------------
 OpenMP BLAS3 based DFT computing Module                
 Release: version 1.0, May 2013, Q-Chem Inc. Pittsburgh 
 -------------------------------------------------------
 ---------------------------------------
  Cycle       Energy         DIIS Error
 ---------------------------------------
    1    -755.5621649472      6.31E-03
    2    -755.7198598391      2.09E-03
    3    -755.7129571399      3.28E-03
    4    -755.7244037313      6.69E-04
    5    -755.7249319525      1.15E-04
    6    -755.7249483882      2.40E-05
    7    -755.7249485598      2.25E-05
    8    -755.7249491128      5.31E-06
    9    -755.7249491475      9.38E-07
   10    -755.7249491486      3.79E-07
   11    -755.7249491488      5.38E-08
   12    -755.7249491488      2.36E-08
   13    -755.7249491488      4.34E-09 Convergence criterion met
 ---------------------------------------
 SCF time:  CPU 52.28 s  wall 2.20 s
 SCF   energy in the final basis set = -755.7249491488
 Total energy in the final basis set = -755.7249491488
 
 --------------------------------------------------------------
 
                    Orbital Energies (a.u.)
 --------------------------------------------------------------
 
 Alpha MOs
 -- Occupied --
-18.941 -18.929 -18.880 -18.873 -18.861 -10.105 -10.097 -10.069
-10.062 -10.060 -10.054 -10.038 -10.034 -10.017 -10.015  -1.025
 -1.013  -0.976  -0.943  -0.932  -0.765  -0.726  -0.712  -0.672
 -0.662  -0.597  -0.545  -0.536  -0.515  -0.480  -0.462  -0.453
 -0.433  -0.419  -0.418  -0.411  -0.407  -0.380  -0.367  -0.355
 -0.349  -0.340  -0.334  -0.323  -0.309  -0.306  -0.300  -0.283
 -0.273  -0.249  -0.241  -0.227  -0.180  -0.169  -0.156  -0.144
 -0.139
 -- Virtual --
  0.103   0.117   0.243   0.259   0.280   0.295   0.325   0.344
  0.357   0.364   0.380   0.383   0.396   0.415   0.420   0.422
  0.424   0.433   0.433   0.443   0.446   0.449   0.450   0.453
  0.467   0.476   0.501   0.519   0.554   0.562   0.664   0.668
 --------------------------------------------------------------
 
          Ground-State Mulliken Net Atomic Charges

     Atom                 Charge (a.u.)
  ----------------------------------------
      1 C                    -0.078775
      2 C                    -0.081398
      3 C                     0.224217
      4 C                     0.225947
      5 O                    -0.179935
      6 O                    -0.217651
      7 O                    -0.182505
      8 O                    -0.220223
      9 C                    -0.124712
     10 C                    -0.128972
     11 C                     0.026562
     12 C                    -0.145833
     13 C                    -0.145083
     14 C                     0.025724
     15 O                    -0.197411
     16 H                     0.087813
     17 H                     0.085603
     18 H                     0.097175
     19 H                     0.100451
     20 H                     0.084930
     21 H                     0.077664
     22 H                     0.073004
     23 H                     0.077504
     24 H                     0.071596
     25 H                     0.093122
     26 H                     0.084841
     27 H                     0.089249
     28 H                     0.090006
     29 H                     0.087092
  ----------------------------------------
  Sum of atomic charges =    -0.000000

 -----------------------------------------------------------------
                    Cartesian Multipole Moments
 -----------------------------------------------------------------
    Charge (ESU x 10^10)
                 0.0000
    Dipole Moment (Debye)
         X      -0.2416      Y      -1.3052      Z      -2.2703
       Tot       2.6299
    Quadrupole Moments (Debye-Ang)
        XX     -72.9700     XY       1.5848     YY     -76.3802
        XZ      -1.1518     YZ      -3.9972     ZZ     -84.4943
    Octopole Moments (Debye-Ang^2)
       XXX     -30.7117    XXY       3.1882    XYY     -21.1082
       YYY     -13.2986    XXZ      -1.8910    XYZ       3.3326
       YYZ       1.4527    XZZ      -4.7712    YZZ      -0.8234
       ZZZ       3.4067
    Hexadecapole Moments (Debye-Ang^3)
      XXXX   -1820.3318   XXXY      -2.2864   XXYY    -503.0939
      XYYY      33.0332   YYYY   -1459.0950   XXXZ      30.2922
      XXYZ       1.9915   XYYZ       9.3654   YYYZ     -41.9391
      XXZZ    -370.1847   XYZZ       8.4213   YYZZ    -308.5339
      XZZZ      -0.6449   YZZZ       8.2098   ZZZZ    -285.6152
 -----------------------------------------------------------------
 Calculating analytic gradient of the SCF energy
 Gradient of SCF Energy
            1           2           3           4           5           6
    1  -0.0012711  -0.0045869   0.0006245  -0.0084108  -0.0135043   0.0109294
    2   0.0084642  -0.0051104  -0.0168959  -0.0088269   0.0162115  -0.0083637
    3   0.0184013   0.0030927  -0.0059265  -0.0057323   0.0174984  -0.0109837
            7           8           9          10          11          12
    1   0.0079067   0.0021829   0.0084168   0.0104978  -0.0067759  -0.0071748
    2   0.0182611  -0.0054642  -0.0058281   0.0057716   0.0015321   0.0055403
    3   0.0222771  -0.0150626  -0.0054428  -0.0071832  -0.0033650   0.0075140
           13          14          15          16          17          18
    1  -0.0081879  -0.0076496   0.0050285  -0.0004147   0.0022070  -0.0009494
    2  -0.0063399   0.0007529   0.0016873   0.0015049   0.0037657  -0.0016370
    3   0.0062801  -0.0017501  -0.0228446   0.0014610   0.0036376  -0.0033399
           19          20          21          22          23          24
    1   0.0002962   0.0020988   0.0002189   0.0016962  -0.0008201   0.0015157
    2  -0.0043993   0.0038729   0.0030888  -0.0003851  -0.0025178  -0.0007470
    3  -0.0013971  -0.0004372  -0.0007135   0.0020005  -0.0013999   0.0019397
           25          26          27          28          29
    1   0.0035185   0.0000334   0.0008603  -0.0018063   0.0035201
    2  -0.0038545  -0.0040431   0.0018888   0.0027214  -0.0006506
    3  -0.0020326  -0.0014905   0.0030967   0.0005631   0.0013395
 Max gradient component =       2.284E-02
 RMS gradient           =       7.340E-03
 Gradient time:  CPU 13.49 s  wall 0.57 s
 Geometry Optimization Parameters
   NAtoms,    NIC,     NZ,  NCons,   NDum,   NFix, NCnnct, MaxDiis
       29     227       0       2       0       0       0       0

 Cartesian Hessian Update
 Hessian Updated using BFGS Update


** CONSTRAINED OPTIMIZATION IN DELOCALIZED INTERNAL COORDINATES **
   Searching for a Minimum

   Optimization Cycle:   2

                       Coordinates (Angstroms)
     ATOM                X               Y               Z
      1  C         0.3819571865   -0.6575883921   -0.6177784949
      2  C         0.5892554411    0.8902453017   -0.5227439987
      3  C        -0.8997716541   -1.2215867354    0.0474767883
      4  C        -0.5977530270    1.7214655029    0.0310839743
      5  O        -1.0913568630   -2.5290050457   -0.4138636417
      6  O        -1.6074249889   -0.6556756876    0.8977008050
      7  O        -1.6759511820    1.6052864905   -0.8552454859
      8  O        -0.5533762241    2.5227996268    0.9803503876
      9  C        -2.8484523356    2.3555736894   -0.4271792578
     10  C        -2.2495987131   -3.1948909793    0.1631926921
     11  C         1.6302542860   -1.1813648887    0.1799465457
     12  C         2.9423348397   -0.9104749888   -0.6272952673
     13  C         3.1238513793    0.6243118270   -0.4135717393
     14  C         1.8450977970    0.9738109322    0.4172273427
     15  O         1.7267380321   -0.2111778822    1.2754485641
     16  H         0.4012002482   -0.9960822404   -1.6669126865
     17  H         0.8460675118    1.3277871357   -1.5034640012
     18  H        -3.0291727389    2.2547670442    0.6583845955
     19  H        -2.5841646601   -2.7194216802    1.1028385690
     20  H         1.5377486620   -2.2043282090    0.5794286625
     21  H         3.7879738374   -1.4549750827   -0.1830773868
     22  H         2.8680402343   -1.2012580128   -1.6851096075
     23  H         4.0273307108    0.8148425228    0.1831779706
     24  H         3.2083890060    1.1896680801   -1.3529260284
     25  H         1.9261822497    1.8881899463    1.0265030547
     26  H        -2.7488616079    3.4262420744   -0.6858529911
     27  H        -3.7174351072    1.9422422915   -0.9661636870
     28  H        -1.9718181538   -4.2421231068    0.3749143762
     29  H        -3.0821921019   -3.1930263241   -0.5638310497
   Point Group: c1    Number of degrees of freedom:    81


   Energy is   -755.724949149

              Constraints and their Current Values
                                        Value     Constraint
   Dihedral:        2   1   3   5      165.390      167.300
   Dihedral:        1   2   4   7      -64.373      -66.600
 Hessian Updated using BFGS Update

   Using Lagrange Multiplier Algorithm


 75 Hessian modes will be used to form the next step
  Hessian Eigenvalues:
    -0.977866   -0.977471    0.044942    0.045000    0.045020    0.045178
     0.045529    0.048625    0.058810    0.061709    0.065556    0.067883
     0.070812    0.072069    0.074326    0.075825    0.081721    0.083653
     0.084134    0.085369    0.086797    0.088220    0.091046    0.091424
     0.097106    0.098159    0.112206    0.112516    0.113343    0.116981
     0.117187    0.121055    0.123609    0.137953    0.140096    0.159072
     0.161083    0.166838    0.174232    0.241477    0.246699    0.248587
     0.249983    0.250203    0.257632    0.267007    0.268624    0.291684
     0.298813    0.308765    0.321372    0.329508    0.338124    0.340345
     0.341562    0.341920    0.342224    0.342711    0.343118    0.343666
     0.343869    0.343920    0.344071    0.344412    0.344660    0.345788
     0.379349    0.406783    0.415772    0.504303    0.516543    0.949268
     0.971730    1.022675    1.023434

 Minimum Search - Taking P-RFO Step
 Searching for Lamda that Maximizes Along the Constraint modes Only
 Value Taken    Lamda =   0.00112019
 Searching for Lamda that Minimizes Along All other modes
 Value Taken    Lamda =  -0.01496301
 Step Taken.  Stepsize is  0.287153

                             Maximum     Tolerance    Cnvgd?
         Gradient            0.038874       0.000300      NO
         Displacement        0.105546       0.001200      NO
         Energy change     -0.029613       0.000001      NO


 New Cartesian Coordinates Obtained by Inverse Iteration

 Displacement from previous Coordinates is:  1.194390
 Adding empirical dispersion correction 
 ----------------------------------------------------------------
 Doing -D3(op) with
 s6 =   1.00000
 s8 =   0.78311
 a1 =   0.30000
 a2 =   4.25000
 n  =  10.00000
 -D3 energy without 3body term =     -0.0301918397 hartrees
 ----------------------------------------------------------------
             Standard Nuclear Orientation (Angstroms)
    I     Atom           X                Y                Z
 ----------------------------------------------------------------
    1      C       0.4371062515    -0.6770394683    -0.6650407185
    2      C       0.6227583187     0.8787272405    -0.5437941313
    3      C      -0.8893670371    -1.1799299488    -0.0088849574
    4      C      -0.6188527576     1.6479263203     0.0327318147
    5      O      -1.1053433467    -2.5247678110    -0.4260178106
    6      O      -1.6134085654    -0.5535976110     0.7986720212
    7      O      -1.6791510554     1.5386237677    -0.9156669053
    8      O      -0.6515269625     2.3729900523     1.0520548791
    9      C      -2.8776332046     2.2340137915    -0.4108755824
   10      C      -2.3305504381    -3.0629186076     0.1956336981
   11      C       1.6839095836    -1.1965704947     0.1727953379
   12      C       3.0035755807    -0.9011603197    -0.6410047046
   13      C       3.1652255048     0.6510051394    -0.4102719771
   14      C       1.8690448232     0.9647778004     0.4333604142
   15      O       1.7456698275    -0.2336413029     1.2948442403
   16      H       0.4813013931    -1.0273006912    -1.7121889632
   17      H       0.8841049118     1.3306273373    -1.5181053081
   18      H      -3.0406420247     2.0398848678     0.6686516815
   19      H      -2.6174485714    -2.4630036484     1.0831252820
   20      H       1.5804657604    -2.2287783208     0.5625822975
   21      H       3.8504176474    -1.4551959952    -0.2044261971
   22      H       2.9177523263    -1.1786649168    -1.7041695588
   23      H       4.0648267031     0.8652341545     0.1897929594
   24      H       3.2251151685     1.2295231078    -1.3463840587
   25      H       1.9028367426     1.8806362719     1.0559438862
   26      H      -2.8013888323     3.3309631178    -0.5660660911
   27      H      -3.7333542530     1.8426939853    -0.9931386177
   28      H      -2.1248235329    -4.1093951011     0.4938916140
   29      H      -3.1655278974    -3.0514095071    -0.5353855396
 ----------------------------------------------------------------
 Molecular Point Group                 C1    NOp =  1
 Largest Abelian Subgroup              C1    NOp =  1
 Nuclear Repulsion Energy =  1091.8350973710 hartrees
 There are       57 alpha and       57 beta electrons
 Applying Cartesian multipole field
    Component          Value
    ---------          -----
     (2,0,0)        1.00000E-11
     (0,2,0)        2.00000E-11
     (0,0,2)       -3.00000E-11
 Nucleus-field energy     =     0.0000000323 hartrees
 Requested basis set is STO-3G
 There are 44 shells and 89 basis functions
 A cutoff of  1.0D-12 yielded    864 shell pairs
 There are      3897 function pairs
 Smallest overlap matrix eigenvalue = 2.13E-01
 Guess MOs from SCF MO coefficient file
 Reading MOs from coefficient file
 Reading MOs from coefficient file
 A restricted hybrid HF-DFT SCF calculation will be
 performed using Pulay DIIS extrapolation
 Exchange:     0.2000 Hartree-Fock + 0.0800 Slater + 0.7200 B88
 Correlation:  0.1900 VWN1RPA + 0.8100 LYP
 Using SG-1 standard quadrature grid
 Dispersion:   Grimme D3
 SCF converges when DIIS error is below 1.0E-08
 Geometry optimization detected.  Setting ReadMinima to 0
 Setting SaveMinima to 0
 -------------------------------------------------------
 OpenMP Integral computing Module                
 Release: version 1.0, May 2013, Q-Chem Inc. Pittsburgh 
 -------------------------------------------------------
 -------------------------------------------------------
 OpenMP BLAS3 based DFT computing Module                
 Release: version 1.0, May 2013, Q-Chem Inc. Pittsburgh 
 -------------------------------------------------------
 ---------------------------------------
  Cycle       Energy         DIIS Error
 ---------------------------------------
    1    -755.6169563537      6.37E-03
    2    -755.7296060238      1.43E-03
    3    -755.7250624283      2.53E-03
    4    -755.7318432601      4.86E-04
    5    -755.7321121671      1.29E-04
    6    -755.7321319925      2.78E-05
    7    -755.7321323051      2.43E-05
    8    -755.7321329551      5.72E-06
    9    -755.7321329951      8.20E-07
   10    -755.7321329958      3.86E-07
   11    -755.7321329960      5.08E-08
   12    -755.7321329960      2.07E-08
   13    -755.7321329960      4.62E-09 Convergence criterion met
 ---------------------------------------
 SCF time:  CPU 52.70 s  wall 2.22 s
 SCF   energy in the final basis set = -755.7321329960
 Total energy in the final basis set = -755.7321329960
 
 --------------------------------------------------------------
 
                    Orbital Energies (a.u.)
 --------------------------------------------------------------
 
 Alpha MOs
 -- Occupied --
-18.941 -18.921 -18.884 -18.882 -18.860 -10.104 -10.090 -10.064
-10.060 -10.055 -10.054 -10.039 -10.032 -10.020 -10.017  -1.018
 -1.000  -0.969  -0.942  -0.924  -0.762  -0.722  -0.705  -0.666
 -0.653  -0.593  -0.544  -0.536  -0.510  -0.476  -0.456  -0.452
 -0.430  -0.415  -0.414  -0.405  -0.402  -0.377  -0.361  -0.352
 -0.344  -0.339  -0.330  -0.322  -0.311  -0.302  -0.298  -0.278
 -0.271  -0.253  -0.243  -0.232  -0.181  -0.165  -0.160  -0.143
 -0.141
 -- Virtual --
  0.095   0.117   0.240   0.253   0.274   0.286   0.314   0.332
  0.345   0.350   0.362   0.373   0.388   0.405   0.413   0.419
  0.420   0.427   0.431   0.433   0.435   0.441   0.442   0.444
  0.453   0.468   0.490   0.512   0.545   0.552   0.644   0.653
 --------------------------------------------------------------
 
          Ground-State Mulliken Net Atomic Charges

     Atom                 Charge (a.u.)
  ----------------------------------------
      1 C                    -0.077656
      2 C                    -0.081263
      3 C                     0.218029
      4 C                     0.217732
      5 O                    -0.170169
      6 O                    -0.209275
      7 O                    -0.178046
      8 O                    -0.216975
      9 C                    -0.127138
     10 C                    -0.132837
     11 C                     0.025363
     12 C                    -0.144026
     13 C                    -0.143537
     14 C                     0.024468
     15 O                    -0.190799
     16 H                     0.087487
     17 H                     0.083851
     18 H                     0.096602
     19 H                     0.101348
     20 H                     0.083684
     21 H                     0.077645
     22 H                     0.073399
     23 H                     0.077167
     24 H                     0.072420
     25 H                     0.090708
     26 H                     0.082265
     27 H                     0.085785
     28 H                     0.088356
     29 H                     0.085409
  ----------------------------------------
  Sum of atomic charges =    -0.000000

 -----------------------------------------------------------------
                    Cartesian Multipole Moments
 -----------------------------------------------------------------
    Charge (ESU x 10^10)
                 0.0000
    Dipole Moment (Debye)
         X      -0.0353      Y      -1.2948      Z      -2.1597
       Tot       2.5184
    Quadrupole Moments (Debye-Ang)
        XX     -72.9069     XY       2.0674     YY     -77.0874
        XZ      -1.5292     YZ      -3.7454     ZZ     -84.4807
    Octopole Moments (Debye-Ang^2)
       XXX     -30.6033    XXY       2.1412    XYY     -17.9313
       YYY      -6.0609    XXZ      -1.1014    XYZ       3.7698
       YYZ       3.3791    XZZ      -4.6405    YZZ      -0.9701
       ZZZ       5.1666
    Hexadecapole Moments (Debye-Ang^3)
      XXXX   -1883.9658   XXXY       1.2452   XXYY    -502.9274
      XYYY      29.2798   YYYY   -1369.8259   XXXZ      31.5035
      XXYZ       0.5360   XYYZ       8.6318   YYYZ     -40.7694
      XXZZ    -382.0432   XYZZ       9.6012   YYZZ    -294.3398
      XZZZ       0.9861   YZZZ       4.2638   ZZZZ    -293.5522
 -----------------------------------------------------------------
 Calculating analytic gradient of the SCF energy
 Gradient of SCF Energy
            1           2           3           4           5           6
    1   0.0002730  -0.0042429  -0.0033474  -0.0052230  -0.0000717  -0.0000341
    2   0.0039605  -0.0042889  -0.0035214  -0.0070551   0.0005039   0.0007671
    3   0.0041239  -0.0038615  -0.0016324  -0.0029073   0.0012659   0.0003763
            7           8           9          10          11          12
    1   0.0026895   0.0007529   0.0040777   0.0045999  -0.0005568  -0.0024456
    2   0.0018417   0.0042191  -0.0013607   0.0048169  -0.0009513  -0.0004591
    3   0.0033549   0.0008921   0.0001605  -0.0024436  -0.0027733  -0.0002850
           13          14          15          16          17          18
    1  -0.0022193  -0.0022626   0.0023993   0.0007155   0.0028239  -0.0004154
    2   0.0007622   0.0004677   0.0000707   0.0001597   0.0015875   0.0001937
    3  -0.0010693   0.0003260  -0.0010211  -0.0005437   0.0011348   0.0005021
           19          20          21          22          23          24
    1  -0.0006010  -0.0001802   0.0003248   0.0010768   0.0000582   0.0015668
    2  -0.0006162   0.0001464   0.0002624  -0.0009085  -0.0002049   0.0006399
    3   0.0008955   0.0017681   0.0003448  -0.0000321   0.0004879   0.0001626
           25          26          27          28          29
    1   0.0006635   0.0000431  -0.0001611   0.0001475  -0.0004511
    2  -0.0000555   0.0001762  -0.0006187  -0.0003553  -0.0001801
    3   0.0009875  -0.0004477  -0.0000072   0.0004530  -0.0002114
 Max gradient component =       7.055E-03
 RMS gradient           =       2.058E-03
 Gradient time:  CPU 13.96 s  wall 0.59 s
 Geometry Optimization Parameters
   NAtoms,    NIC,     NZ,  NCons,   NDum,   NFix, NCnnct, MaxDiis
       29     227       0       2       0       0       0       0

 Cartesian Hessian Update
 Hessian Updated using BFGS Update


** CONSTRAINED OPTIMIZATION IN DELOCALIZED INTERNAL COORDINATES **
   Searching for a Minimum

   Optimization Cycle:   3

                       Coordinates (Angstroms)
     ATOM                X               Y               Z
      1  C         0.4371062515   -0.6770394683   -0.6650407185
      2  C         0.6227583187    0.8787272405   -0.5437941313
      3  C        -0.8893670371   -1.1799299488   -0.0088849574
      4  C        -0.6188527576    1.6479263203    0.0327318147
      5  O        -1.1053433467   -2.5247678110   -0.4260178106
      6  O        -1.6134085654   -0.5535976110    0.7986720212
      7  O        -1.6791510554    1.5386237677   -0.9156669053
      8  O        -0.6515269625    2.3729900523    1.0520548791
      9  C        -2.8776332046    2.2340137915   -0.4108755824
     10  C        -2.3305504381   -3.0629186076    0.1956336981
     11  C         1.6839095836   -1.1965704947    0.1727953379
     12  C         3.0035755807   -0.9011603197   -0.6410047046
     13  C         3.1652255048    0.6510051394   -0.4102719771
     14  C         1.8690448232    0.9647778004    0.4333604142
     15  O         1.7456698275   -0.2336413029    1.2948442403
     16  H         0.4813013931   -1.0273006912   -1.7121889632
     17  H         0.8841049118    1.3306273373   -1.5181053081
     18  H        -3.0406420247    2.0398848678    0.6686516815
     19  H        -2.6174485714   -2.4630036484    1.0831252820
     20  H         1.5804657604   -2.2287783208    0.5625822975
     21  H         3.8504176474   -1.4551959952   -0.2044261971
     22  H         2.9177523263   -1.1786649168   -1.7041695588
     23  H         4.0648267031    0.8652341545    0.1897929594
     24  H         3.2251151685    1.2295231078   -1.3463840587
     25  H         1.9028367426    1.8806362719    1.0559438862
     26  H        -2.8013888323    3.3309631178   -0.5660660911
     27  H        -3.7333542530    1.8426939853   -0.9931386177
     28  H        -2.1248235329   -4.1093951011    0.4938916140
     29  H        -3.1655278974   -3.0514095071   -0.5353855396
   Point Group: c1    Number of degrees of freedom:    81


   Energy is   -755.732132996

              Constraints and their Current Values
                                        Value     Constraint
   Dihedral:        2   1   3   5      167.285      167.300
   Dihedral:        1   2   4   7      -66.581      -66.600
 Hessian Updated using BFGS Update

   Using Lagrange Multiplier Algorithm


 78 Hessian modes will be used to form the next step
  Hessian Eigenvalues:
    -0.977706   -0.975203    0.043380    0.045000    0.045006    0.045051
     0.045191    0.045665    0.048691    0.058853    0.061078    0.065521
     0.067331    0.070785    0.071764    0.074330    0.075611    0.081764
     0.083688    0.084155    0.085403    0.087604    0.088320    0.091234
     0.091429    0.096399    0.098161    0.111979    0.112693    0.113330
     0.116984    0.117202    0.122063    0.123872    0.138270    0.141292
     0.158289    0.160422    0.161083    0.172247    0.174705    0.246662
     0.246746    0.248674    0.249987    0.250127    0.255358    0.265811
     0.268620    0.278526    0.293002    0.299320    0.308632    0.320635
     0.329328    0.337629    0.339795    0.340744    0.341619    0.342228
     0.342296    0.342996    0.343465    0.343871    0.343921    0.344068
     0.344386    0.344877    0.345981    0.377148    0.392221    0.412884
     0.482299    0.517149    0.949975    0.979621    1.022867    1.035710

 Minimum Search - Taking P-RFO Step
 Searching for Lamda that Maximizes Along the Constraint modes Only
 Value Taken    Lamda =   0.00006349
 Searching for Lamda that Minimizes Along All other modes
 Value Taken    Lamda =  -0.00136358
 Step Taken.  Stepsize is  0.126174

                             Maximum     Tolerance    Cnvgd?
         Gradient            0.010993       0.000300      NO
         Displacement        0.047767       0.001200      NO
         Energy change     -0.007184       0.000001      NO


 New Cartesian Coordinates Obtained by Inverse Iteration

 Displacement from previous Coordinates is:  0.222369
 Adding empirical dispersion correction 
 ----------------------------------------------------------------
 Doing -D3(op) with
 s6 =   1.00000
 s8 =   0.78311
 a1 =   0.30000
 a2 =   4.25000
 n  =  10.00000
 -D3 energy without 3body term =     -0.0301890142 hartrees
 ----------------------------------------------------------------
             Standard Nuclear Orientation (Angstroms)
    I     Atom           X                Y                Z
 ----------------------------------------------------------------
    1      C       0.4452983572    -0.6768505367    -0.6710805247
    2      C       0.6349748313     0.8867718162    -0.5391501577
    3      C      -0.8792201702    -1.1791675372    -0.0039625507
    4      C      -0.6130127479     1.6586381597     0.0335443069
    5      O      -1.1189488729    -2.5278731114    -0.4200034170
    6      O      -1.5952001109    -0.5492118129     0.8084837759
    7      O      -1.6745840923     1.5580095592    -0.9295118331
    8      O      -0.6635386407     2.3489023668     1.0744195409
    9      C      -2.8936417970     2.2313784970    -0.4254773124
   10      C      -2.3499070045    -3.0672804427     0.2096915780
   11      C       1.6940515481    -1.1968438840     0.1692666216
   12      C       3.0159461458    -0.8979573240    -0.6439243290
   13      C       3.1804772630     0.6509597477    -0.4054304018
   14      C       1.8832490730     0.9633530090     0.4390436424
   15      O       1.7468735771    -0.2382823151     1.2985014590
   16      H       0.4839131404    -1.0236858777    -1.7188565984
   17      H       0.8845518281     1.3347251128    -1.5177531234
   18      H      -3.0680284752     2.0026564789     0.6447374187
   19      H      -2.6216046254    -2.4594590205     1.0956784624
   20      H       1.5882250091    -2.2336902827     0.5447549475
   21      H       3.8620161787    -1.4601052432    -0.2168694268
   22      H       2.9186348605    -1.1633116635    -1.7090172537
   23      H       4.0832506040     0.8660326917     0.1891521418
   24      H       3.2275708947     1.2303770204    -1.3412786610
   25      H       1.9123135421     1.8802610955     1.0595632755
   26      H      -2.8242315595     3.3332366375    -0.5434569281
   27      H      -3.7364418995     1.8527355133    -1.0336410564
   28      H      -2.1500767545    -4.1158410886     0.5020939199
   29      H      -3.1878180384    -3.0442243558    -0.5168585116
 ----------------------------------------------------------------
 Molecular Point Group                 C1    NOp =  1
 Largest Abelian Subgroup              C1    NOp =  1
 Nuclear Repulsion Energy =  1089.2194768166 hartrees
 There are       57 alpha and       57 beta electrons
 Applying Cartesian multipole field
    Component          Value
    ---------          -----
     (2,0,0)        1.00000E-11
     (0,2,0)        2.00000E-11
     (0,0,2)       -3.00000E-11
 Nucleus-field energy     =     0.0000000323 hartrees
 Requested basis set is STO-3G
 There are 44 shells and 89 basis functions
 A cutoff of  1.0D-12 yielded    865 shell pairs
 There are      3898 function pairs
 Smallest overlap matrix eigenvalue = 2.13E-01
 Guess MOs from SCF MO coefficient file
 Reading MOs from coefficient file
 Reading MOs from coefficient file
 A restricted hybrid HF-DFT SCF calculation will be
 performed using Pulay DIIS extrapolation
 Exchange:     0.2000 Hartree-Fock + 0.0800 Slater + 0.7200 B88
 Correlation:  0.1900 VWN1RPA + 0.8100 LYP
 Using SG-1 standard quadrature grid
 Dispersion:   Grimme D3
 SCF converges when DIIS error is below 1.0E-08
 Geometry optimization detected.  Setting ReadMinima to 0
 Setting SaveMinima to 0
 -------------------------------------------------------
 OpenMP Integral computing Module                
 Release: version 1.0, May 2013, Q-Chem Inc. Pittsburgh 
 -------------------------------------------------------
 -------------------------------------------------------
 OpenMP BLAS3 based DFT computing Module                
 Release: version 1.0, May 2013, Q-Chem Inc. Pittsburgh 
 -------------------------------------------------------
 ---------------------------------------
  Cycle       Energy         DIIS Error
 ---------------------------------------
    1    -755.7167647811      1.81E-03
    2    -755.7326004132      4.02E-04
    3    -755.7319168668      8.80E-04
    4    -755.7327924787      5.96E-05
    5    -755.7327963567      2.47E-05
    6    -755.7327968807      1.26E-05
    7    -755.7327970212      5.70E-06
    8    -755.7327970592      1.02E-06
    9    -755.7327970605      1.77E-07
   10    -755.7327970605      7.33E-08
   11    -755.7327970605      1.68E-08
   12    -755.7327970605      4.83E-09 Convergence criterion met
 ---------------------------------------
 SCF time:  CPU 50.64 s  wall 2.14 s
 SCF   energy in the final basis set = -755.7327970605
 Total energy in the final basis set = -755.7327970605
 
 --------------------------------------------------------------
 
                    Orbital Energies (a.u.)
 --------------------------------------------------------------
 
 Alpha MOs
 -- Occupied --
-18.937 -18.918 -18.885 -18.881 -18.862 -10.103 -10.090 -10.063
-10.060 -10.055 -10.054 -10.039 -10.032 -10.020 -10.018  -1.014
 -0.996  -0.968  -0.939  -0.923  -0.761  -0.721  -0.705  -0.665
 -0.652  -0.593  -0.544  -0.536  -0.508  -0.474  -0.454  -0.451
 -0.430  -0.414  -0.412  -0.404  -0.401  -0.376  -0.361  -0.352
 -0.343  -0.340  -0.330  -0.323  -0.311  -0.302  -0.298  -0.277
 -0.271  -0.251  -0.243  -0.233  -0.179  -0.164  -0.159  -0.144
 -0.141
 -- Virtual --
  0.095   0.116   0.235   0.250   0.269   0.284   0.312   0.331
  0.343   0.347   0.358   0.372   0.385   0.404   0.411   0.419
  0.421   0.426   0.430   0.432   0.435   0.440   0.442   0.443
  0.452   0.467   0.488   0.509   0.543   0.551   0.642   0.654
 --------------------------------------------------------------
 
          Ground-State Mulliken Net Atomic Charges

     Atom                 Charge (a.u.)
  ----------------------------------------
      1 C                    -0.077093
      2 C                    -0.080562
      3 C                     0.215734
      4 C                     0.216057
      5 O                    -0.170355
      6 O                    -0.208955
      7 O                    -0.177526
      8 O                    -0.215123
      9 C                    -0.128716
     10 C                    -0.133949
     11 C                     0.024876
     12 C                    -0.143985
     13 C                    -0.143448
     14 C                     0.024051
     15 O                    -0.189106
     16 H                     0.087629
     17 H                     0.083435
     18 H                     0.096228
     19 H                     0.101209
     20 H                     0.083745
     21 H                     0.077931
     22 H                     0.073686
     23 H                     0.077723
     24 H                     0.072994
     25 H                     0.090636
     26 H                     0.082184
     27 H                     0.086141
     28 H                     0.088946
     29 H                     0.085614
  ----------------------------------------
  Sum of atomic charges =    -0.000000

 -----------------------------------------------------------------
                    Cartesian Multipole Moments
 -----------------------------------------------------------------
    Charge (ESU x 10^10)
                -0.0000
    Dipole Moment (Debye)
         X       0.0147      Y      -1.2552      Z      -2.1697
       Tot       2.5067
    Quadrupole Moments (Debye-Ang)
        XX     -72.6359     XY       2.1130     YY     -76.9711
        XZ      -1.5181     YZ      -3.7161     ZZ     -84.5924
    Octopole Moments (Debye-Ang^2)
       XXX     -31.5524    XXY       1.9993    XYY     -18.1927
       YYY      -5.6831    XXZ      -1.3016    XYZ       4.0199
       YYZ       3.5933    XZZ      -4.7572    YZZ      -1.1724
       ZZZ       4.5661
    Hexadecapole Moments (Debye-Ang^3)
      XXXX   -1895.3625   XXXY       0.6485   XXYY    -504.3814
      XYYY      29.2130   YYYY   -1366.3075   XXXZ      32.2740
      XXYZ       0.5503   XYYZ       8.2982   YYYZ     -38.3730
      XXZZ    -385.3419   XYZZ       9.6445   YYZZ    -295.6099
      XZZZ       1.3085   YZZZ       5.8422   ZZZZ    -297.1762
 -----------------------------------------------------------------
 Calculating analytic gradient of the SCF energy
 Gradient of SCF Energy
            1           2           3           4           5           6
    1   0.0001781  -0.0007160   0.0010353   0.0000409  -0.0001034  -0.0005062
    2   0.0012664  -0.0010499   0.0004463  -0.0024920   0.0000419   0.0008643
    3  -0.0003554  -0.0015563  -0.0015042  -0.0010306   0.0008217   0.0008884
            7           8           9          10          11          12
    1   0.0002052   0.0004752  -0.0017173  -0.0007598   0.0002781  -0.0004765
    2   0.0004173   0.0022030  -0.0003211  -0.0019352  -0.0014606  -0.0001553
    3   0.0005232   0.0010962  -0.0004650  -0.0002185  -0.0011704  -0.0009069
           13          14          15          16          17          18
    1  -0.0003357   0.0002631   0.0007745   0.0003922   0.0010106   0.0002611
    2   0.0004658   0.0004598   0.0000424   0.0000928   0.0009755   0.0003862
    3  -0.0011313   0.0005922   0.0018604  -0.0000125   0.0010593  -0.0000070
           19          20          21          22          23          24
    1   0.0002065  -0.0004529   0.0001939   0.0004203   0.0001150   0.0006731
    2   0.0001284   0.0000956   0.0001992  -0.0004376  -0.0002840   0.0002418
    3  -0.0002004   0.0006565   0.0003701  -0.0000313   0.0003399   0.0001306
           25          26          27          28          29
    1  -0.0001131  -0.0001708  -0.0004249  -0.0004090  -0.0003375
    2   0.0000784   0.0001696  -0.0000325  -0.0003843  -0.0000220
    3   0.0001154  -0.0001058   0.0001041   0.0000358   0.0001021
 Max gradient component =       2.492E-03
 RMS gradient           =       7.636E-04
 Gradient time:  CPU 14.63 s  wall 0.61 s
 Geometry Optimization Parameters
   NAtoms,    NIC,     NZ,  NCons,   NDum,   NFix, NCnnct, MaxDiis
       29     227       0       2       0       0       0       0

 Cartesian Hessian Update
 Hessian Updated using BFGS Update


** CONSTRAINED OPTIMIZATION IN DELOCALIZED INTERNAL COORDINATES **
   Searching for a Minimum

   Optimization Cycle:   4

                       Coordinates (Angstroms)
     ATOM                X               Y               Z
      1  C         0.4452983572   -0.6768505367   -0.6710805247
      2  C         0.6349748313    0.8867718162   -0.5391501577
      3  C        -0.8792201702   -1.1791675372   -0.0039625507
      4  C        -0.6130127479    1.6586381597    0.0335443069
      5  O        -1.1189488729   -2.5278731114   -0.4200034170
      6  O        -1.5952001109   -0.5492118129    0.8084837759
      7  O        -1.6745840923    1.5580095592   -0.9295118331
      8  O        -0.6635386407    2.3489023668    1.0744195409
      9  C        -2.8936417970    2.2313784970   -0.4254773124
     10  C        -2.3499070045   -3.0672804427    0.2096915780
     11  C         1.6940515481   -1.1968438840    0.1692666216
     12  C         3.0159461458   -0.8979573240   -0.6439243290
     13  C         3.1804772630    0.6509597477   -0.4054304018
     14  C         1.8832490730    0.9633530090    0.4390436424
     15  O         1.7468735771   -0.2382823151    1.2985014590
     16  H         0.4839131404   -1.0236858777   -1.7188565984
     17  H         0.8845518281    1.3347251128   -1.5177531234
     18  H        -3.0680284752    2.0026564789    0.6447374187
     19  H        -2.6216046254   -2.4594590205    1.0956784624
     20  H         1.5882250091   -2.2336902827    0.5447549475
     21  H         3.8620161787   -1.4601052432   -0.2168694268
     22  H         2.9186348605   -1.1633116635   -1.7090172537
     23  H         4.0832506040    0.8660326917    0.1891521418
     24  H         3.2275708947    1.2303770204   -1.3412786610
     25  H         1.9123135421    1.8802610955    1.0595632755
     26  H        -2.8242315595    3.3332366375   -0.5434569281
     27  H        -3.7364418995    1.8527355133   -1.0336410564
     28  H        -2.1500767545   -4.1158410886    0.5020939199
     29  H        -3.1878180384   -3.0442243558   -0.5168585116
   Point Group: c1    Number of degrees of freedom:    81


   Energy is   -755.732797061

              Constraints and their Current Values
                                        Value     Constraint
   Dihedral:        2   1   3   5      167.300      167.300
   Dihedral:        1   2   4   7      -66.599      -66.600
 Hessian Updated using BFGS Update

   Using Lagrange Multiplier Algorithm


 81 Hessian modes will be used to form the next step
  Hessian Eigenvalues:
    -0.977739   -0.974878    0.031932    0.045000    0.045001    0.045025
     0.045135    0.045306    0.045697    0.048648    0.057537    0.059704
     0.064908    0.066182    0.070167    0.071668    0.074315    0.075390
     0.081768    0.083725    0.084137    0.085256    0.087604    0.088321
     0.091220    0.091435    0.096553    0.098161    0.112356    0.112626
     0.113734    0.116985    0.117271    0.122088    0.123746    0.138356
     0.141230    0.158552    0.160088    0.160953    0.161799    0.171814
     0.174600    0.242652    0.246746    0.248699    0.249993    0.250002
     0.250221    0.255395    0.266369    0.268620    0.290561    0.296686
     0.302863    0.309282    0.323545    0.329753    0.338397    0.340495
     0.341579    0.342148    0.342268    0.342970    0.343418    0.343870
     0.343899    0.344049    0.344373    0.344593    0.345552    0.349453
     0.384347    0.411993    0.445315    0.515101    0.546999    0.948115
     0.974230    1.022914    1.037678

 Minimum Search - Taking P-RFO Step
 Searching for Lamda that Maximizes Along the Constraint modes Only
 Value Taken    Lamda =   0.00000016
 Searching for Lamda that Minimizes Along All other modes
 Value Taken    Lamda =  -0.00028691
 Step Taken.  Stepsize is  0.073249

                             Maximum     Tolerance    Cnvgd?
         Gradient            0.003750       0.000300      NO
         Displacement        0.026680       0.001200      NO
         Energy change     -0.000664       0.000001      NO


 New Cartesian Coordinates Obtained by Inverse Iteration

 Displacement from previous Coordinates is:  0.150613
 Adding empirical dispersion correction 
 ----------------------------------------------------------------
 Doing -D3(op) with
 s6 =   1.00000
 s8 =   0.78311
 a1 =   0.30000
 a2 =   4.25000
 n  =  10.00000
 -D3 energy without 3body term =     -0.0302297804 hartrees
 ----------------------------------------------------------------
             Standard Nuclear Orientation (Angstroms)
    I     Atom           X                Y                Z
 ----------------------------------------------------------------
    1      C       0.4457431787    -0.6785081811    -0.6750385629
    2      C       0.6371173833     0.8867436575    -0.5379496260
    3      C      -0.8766553245    -1.1808773592    -0.0051853018
    4      C      -0.6129923711     1.6567996924     0.0309688637
    5      O      -1.1200741641    -2.5275434864    -0.4242157897
    6      O      -1.5918733623    -0.5536612177     0.8094253830
    7      O      -1.6679747780     1.5566382448    -0.9410635814
    8      O      -0.6782629940     2.3280467491     1.0818905737
    9      C      -2.8885020876     2.2198490884    -0.4286569648
   10      C      -2.3520769933    -3.0501207076     0.2167908416
   11      C       1.6949128574    -1.1966651216     0.1666688579
   12      C       3.0181779068    -0.8947756917    -0.6436122572
   13      C       3.1815312458     0.6522790158    -0.4005776537
   14      C       1.8828113486     0.9614095356     0.4414166364
   15      O       1.7406517483    -0.2413176825     1.2978810943
   16      H       0.4816598378    -1.0233634190    -1.7234893646
   17      H       0.8802060054     1.3302694976    -1.5207489291
   18      H      -3.0699326608     1.9654326804     0.6347454583
   19      H      -2.6136574129    -2.4343176481     1.1005636375
   20      H       1.5912383072    -2.2362257168     0.5343504152
   21      H       3.8640102218    -1.4607286242    -0.2219441668
   22      H       2.9164243786    -1.1529921252    -1.7099010406
   23      H       4.0846974301     0.8705274662     0.1915962945
   24      H       3.2215440927     1.2321165567    -1.3363926875
   25      H       1.9091727618     1.8783985338     1.0615988681
   26      H      -2.8180226677     3.3239430705    -0.5212770926
   27      H      -3.7258799883     1.8545955551    -1.0516653043
   28      H      -2.1567646554    -4.0978890717     0.5133112967
   29      H      -3.1921371802    -3.0238100816    -0.5068308930
 ----------------------------------------------------------------
 Molecular Point Group                 C1    NOp =  1
 Largest Abelian Subgroup              C1    NOp =  1
 Nuclear Repulsion Energy =  1090.1437659125 hartrees
 There are       57 alpha and       57 beta electrons
 Applying Cartesian multipole field
    Component          Value
    ---------          -----
     (2,0,0)        1.00000E-11
     (0,2,0)        2.00000E-11
     (0,0,2)       -3.00000E-11
 Nucleus-field energy     =     0.0000000321 hartrees
 Requested basis set is STO-3G
 There are 44 shells and 89 basis functions
 A cutoff of  1.0D-12 yielded    865 shell pairs
 There are      3898 function pairs
 Smallest overlap matrix eigenvalue = 2.13E-01
 Guess MOs from SCF MO coefficient file
 Reading MOs from coefficient file
 Reading MOs from coefficient file
 A restricted hybrid HF-DFT SCF calculation will be
 performed using Pulay DIIS extrapolation
 Exchange:     0.2000 Hartree-Fock + 0.0800 Slater + 0.7200 B88
 Correlation:  0.1900 VWN1RPA + 0.8100 LYP
 Using SG-1 standard quadrature grid
 Dispersion:   Grimme D3
 SCF converges when DIIS error is below 1.0E-08
 Geometry optimization detected.  Setting ReadMinima to 0
 Setting SaveMinima to 0
 -------------------------------------------------------
 OpenMP Integral computing Module                
 Release: version 1.0, May 2013, Q-Chem Inc. Pittsburgh 
 -------------------------------------------------------
 -------------------------------------------------------
 OpenMP BLAS3 based DFT computing Module                
 Release: version 1.0, May 2013, Q-Chem Inc. Pittsburgh 
 -------------------------------------------------------
 ---------------------------------------
  Cycle       Energy         DIIS Error
 ---------------------------------------
    1    -755.7331932118      9.56E-04
    2    -755.7329394541      9.77E-05
    3    -755.7329152646      1.86E-04
    4    -755.7329533517      3.31E-05
    5    -755.7329545071      1.09E-05
    6    -755.7329546386      3.61E-06
    7    -755.7329546545      4.59E-07
    8    -755.7329546547      2.26E-07
    9    -755.7329546548      1.28E-07
   10    -755.7329546548      2.81E-08
   11    -755.7329546548      8.27E-09 Convergence criterion met
 ---------------------------------------
 SCF time:  CPU 44.19 s  wall 1.87 s
 SCF   energy in the final basis set = -755.7329546548
 Total energy in the final basis set = -755.7329546548
 
 --------------------------------------------------------------
 
                    Orbital Energies (a.u.)
 --------------------------------------------------------------
 
 Alpha MOs
 -- Occupied --
-18.938 -18.919 -18.886 -18.881 -18.863 -10.103 -10.090 -10.062
-10.060 -10.055 -10.054 -10.039 -10.032 -10.020 -10.018  -1.015
 -0.997  -0.968  -0.939  -0.924  -0.761  -0.722  -0.705  -0.664
 -0.652  -0.593  -0.544  -0.536  -0.508  -0.473  -0.454  -0.452
 -0.430  -0.414  -0.412  -0.404  -0.401  -0.376  -0.361  -0.352
 -0.343  -0.340  -0.331  -0.323  -0.310  -0.302  -0.298  -0.277
 -0.271  -0.252  -0.244  -0.233  -0.179  -0.164  -0.159  -0.144
 -0.142
 -- Virtual --
  0.095   0.116   0.237   0.251   0.271   0.284   0.312   0.331
  0.342   0.346   0.357   0.372   0.385   0.404   0.411   0.420
  0.421   0.426   0.431   0.432   0.436   0.440   0.442   0.443
  0.452   0.467   0.488   0.509   0.542   0.552   0.642   0.655
 --------------------------------------------------------------
 
          Ground-State Mulliken Net Atomic Charges

     Atom                 Charge (a.u.)
  ----------------------------------------
      1 C                    -0.077141
      2 C                    -0.080557
      3 C                     0.215723
      4 C                     0.216178
      5 O                    -0.169906
      6 O                    -0.209416
      7 O                    -0.177268
      8 O                    -0.214601
      9 C                    -0.129040
     10 C                    -0.134627
     11 C                     0.024932
     12 C                    -0.144072
     13 C                    -0.143460
     14 C                     0.024067
     15 O                    -0.188937
     16 H                     0.087576
     17 H                     0.083067
     18 H                     0.096247
     19 H                     0.101905
     20 H                     0.083667
     21 H                     0.078089
     22 H                     0.073753
     23 H                     0.077931
     24 H                     0.073148
     25 H                     0.090570
     26 H                     0.082242
     27 H                     0.085924
     28 H                     0.088592
     29 H                     0.085414
  ----------------------------------------
  Sum of atomic charges =    -0.000000

 -----------------------------------------------------------------
                    Cartesian Multipole Moments
 -----------------------------------------------------------------
    Charge (ESU x 10^10)
                -0.0000
    Dipole Moment (Debye)
         X       0.0504      Y      -1.2142      Z      -2.1685
       Tot       2.4858
    Quadrupole Moments (Debye-Ang)
        XX     -72.6952     XY       2.0882     YY     -77.0359
        XZ      -1.4878     YZ      -3.6762     ZZ     -84.6397
    Octopole Moments (Debye-Ang^2)
       XXX     -31.1834    XXY       2.0769    XYY     -17.6258
       YYY      -4.4759    XXZ      -1.2265    XYZ       4.1176
       YYZ       3.8233    XZZ      -4.7040    YZZ      -1.1253
       ZZZ       4.5679
    Hexadecapole Moments (Debye-Ang^3)
      XXXX   -1894.9037   XXXY       0.3435   XXYY    -504.1231
      XYYY      27.6567   YYYY   -1357.8068   XXXZ      32.6351
      XXYZ       0.6371   XYYZ       8.2673   YYYZ     -37.0483
      XXZZ    -385.4424   XYZZ       9.6987   YYZZ    -294.4191
      XZZZ       1.6295   YZZZ       6.3071   ZZZZ    -298.6102
 -----------------------------------------------------------------
 Calculating analytic gradient of the SCF energy
 Gradient of SCF Energy
            1           2           3           4           5           6
    1  -0.0003364   0.0002238  -0.0002683  -0.0000634   0.0008538  -0.0004818
    2  -0.0002659  -0.0004669   0.0000573   0.0006940  -0.0009367   0.0000350
    3  -0.0018995   0.0007088  -0.0001796   0.0003220  -0.0004723   0.0005098
            7           8           9          10          11          12
    1  -0.0005138   0.0001990  -0.0007025  -0.0006368   0.0004192   0.0002847
    2  -0.0006198   0.0005516  -0.0000343   0.0001688  -0.0004296  -0.0000867
    3  -0.0011294   0.0001912   0.0003189   0.0005297  -0.0001950  -0.0005276
           13          14          15          16          17          18
    1   0.0000915   0.0005631   0.0000566   0.0001788   0.0001630   0.0002657
    2   0.0000688  -0.0001987   0.0002224   0.0000340   0.0005337   0.0002521
    3  -0.0004936   0.0005986   0.0013698  -0.0000176   0.0002750   0.0001432
           19          20          21          22          23          24
    1  -0.0000300  -0.0003420   0.0000579   0.0000737  -0.0000217   0.0001378
    2   0.0001322   0.0001019   0.0001931  -0.0001781  -0.0002285   0.0000850
    3   0.0001368  -0.0000028   0.0001926   0.0000274   0.0001488   0.0000568
           25          26          27          28          29
    1  -0.0002175  -0.0001083   0.0000586   0.0001477  -0.0000523
    2   0.0001575   0.0001438  -0.0001995   0.0000515   0.0001622
    3  -0.0002439  -0.0002231   0.0000869  -0.0001581  -0.0000738
 Max gradient component =       1.900E-03
 RMS gradient           =       4.311E-04
 Gradient time:  CPU 14.14 s  wall 0.60 s
 Geometry Optimization Parameters
   NAtoms,    NIC,     NZ,  NCons,   NDum,   NFix, NCnnct, MaxDiis
       29     227       0       2       0       0       0       0

 Cartesian Hessian Update
 Hessian Updated using BFGS Update


** CONSTRAINED OPTIMIZATION IN DELOCALIZED INTERNAL COORDINATES **
   Searching for a Minimum

   Optimization Cycle:   5

                       Coordinates (Angstroms)
     ATOM                X               Y               Z
      1  C         0.4457431787   -0.6785081811   -0.6750385629
      2  C         0.6371173833    0.8867436575   -0.5379496260
      3  C        -0.8766553245   -1.1808773592   -0.0051853018
      4  C        -0.6129923711    1.6567996924    0.0309688637
      5  O        -1.1200741641   -2.5275434864   -0.4242157897
      6  O        -1.5918733623   -0.5536612177    0.8094253830
      7  O        -1.6679747780    1.5566382448   -0.9410635814
      8  O        -0.6782629940    2.3280467491    1.0818905737
      9  C        -2.8885020876    2.2198490884   -0.4286569648
     10  C        -2.3520769933   -3.0501207076    0.2167908416
     11  C         1.6949128574   -1.1966651216    0.1666688579
     12  C         3.0181779068   -0.8947756917   -0.6436122572
     13  C         3.1815312458    0.6522790158   -0.4005776537
     14  C         1.8828113486    0.9614095356    0.4414166364
     15  O         1.7406517483   -0.2413176825    1.2978810943
     16  H         0.4816598378   -1.0233634190   -1.7234893646
     17  H         0.8802060054    1.3302694976   -1.5207489291
     18  H        -3.0699326608    1.9654326804    0.6347454583
     19  H        -2.6136574129   -2.4343176481    1.1005636375
     20  H         1.5912383072   -2.2362257168    0.5343504152
     21  H         3.8640102218   -1.4607286242   -0.2219441668
     22  H         2.9164243786   -1.1529921252   -1.7099010406
     23  H         4.0846974301    0.8705274662    0.1915962945
     24  H         3.2215440927    1.2321165567   -1.3363926875
     25  H         1.9091727618    1.8783985338    1.0615988681
     26  H        -2.8180226677    3.3239430705   -0.5212770926
     27  H        -3.7258799883    1.8545955551   -1.0516653043
     28  H        -2.1567646554   -4.0978890717    0.5133112967
     29  H        -3.1921371802   -3.0238100816   -0.5068308930
   Point Group: c1    Number of degrees of freedom:    81


   Energy is   -755.732954655

              Constraints and their Current Values
                                        Value     Constraint
   Dihedral:        2   1   3   5      167.300      167.300
   Dihedral:        1   2   4   7      -66.600      -66.600
 Hessian Updated using BFGS Update

 78 Hessian modes will be used to form the next step
  Hessian Eigenvalues:
     0.022077    0.045000    0.045001    0.045029    0.045187    0.045646
     0.045971    0.048666    0.057229    0.060733    0.064877    0.066829
     0.070250    0.071719    0.074274    0.075323    0.081772    0.083869
     0.084127    0.085310    0.087615    0.088322    0.091215    0.091435
     0.097149    0.098171    0.112319    0.112679    0.113445    0.116985
     0.117266    0.121929    0.124100    0.138378    0.141284    0.159045
     0.159978    0.160187    0.160934    0.162603    0.171707    0.175442
     0.245267    0.247208    0.249199    0.249745    0.250017    0.251981
     0.263307    0.268602    0.272565    0.291944    0.298877    0.308731
     0.320536    0.327739    0.334626    0.339264    0.340573    0.341624
     0.342216    0.342299    0.343061    0.343653    0.343860    0.343876
     0.344064    0.344380    0.345089    0.346240    0.360265    0.376398
     0.412282    0.453769    0.510735    0.546615    0.948503    0.970854

 Minimum Search - Taking Simple RFO Step
 Searching for Lamda that Minimizes Along All modes
 Value Taken    Lamda =  -0.00009524
 Step Taken.  Stepsize is  0.049707

                             Maximum     Tolerance    Cnvgd?
         Gradient           0.001646      0.000300      NO
         Displacement       0.019985      0.001200      NO
         Energy change     -0.000158      0.000001      NO


 New Cartesian Coordinates Obtained by Inverse Iteration

 Displacement from previous Coordinates is:  0.093204
 Adding empirical dispersion correction 
[...]
 C          0.000  0.000 -0.000   -0.039 -0.036  0.032   -0.003 -0.002 -0.003
 C          0.000 -0.000 -0.000   -0.052  0.033  0.022    0.002 -0.003  0.003
 C          0.000  0.000  0.000    0.000  0.008 -0.003    0.003  0.009 -0.008
 O         -0.000 -0.000 -0.000    0.001 -0.000 -0.000   -0.000  0.003 -0.003
 H         -0.001  0.001 -0.000   -0.025  0.002  0.002    0.210 -0.069 -0.048
 H          0.002  0.001  0.001   -0.048 -0.022 -0.000   -0.037  0.011 -0.002
 H         -0.153  0.606 -0.288   -0.006 -0.001 -0.002   -0.043  0.005 -0.030
 H         -0.059 -0.024  0.012    0.000  0.003 -0.000    0.076 -0.092  0.035
 H         -0.001  0.000 -0.000   -0.021 -0.016  0.003   -0.005  0.004  0.009
 H          0.000 -0.001  0.001    0.047  0.203 -0.432   -0.018  0.006  0.018
 H         -0.001 -0.001 -0.000    0.378  0.294  0.059    0.001 -0.005 -0.005
 H         -0.000 -0.000  0.001    0.150 -0.288 -0.390    0.012  0.013 -0.010
 H         -0.001  0.000 -0.000    0.460 -0.175  0.153   -0.001  0.003 -0.001
 H          0.001 -0.000 -0.001   -0.017  0.015  0.003   -0.001  0.015 -0.014
 H          0.214 -0.027 -0.599   -0.004 -0.000 -0.001   -0.061  0.007 -0.039
 H         -0.224 -0.076  0.223   -0.005 -0.003  0.005   -0.066 -0.068  0.045
 H          0.038  0.008 -0.001   -0.000  0.001  0.003    0.152 -0.045 -0.106
 H          0.002 -0.015  0.074    0.000 -0.000 -0.001    0.048 -0.112  0.003
 TransDip  -0.060  0.021 -0.059    0.049  0.003 -0.062   -0.221 -0.105  0.096

 Mode:                67                     68                     69
 Frequency:      1804.10                3049.43                3050.11
 Force Cnst:     21.9725                 5.6415                 5.6415
 Red. Mass:      11.4580                 1.0297                 1.0292
 IR Active:          YES                    YES                    YES
 IR Intens:      389.100                 27.716                 42.399
 Raman Active:       YES                    YES                    YES
               X      Y      Z        X      Y      Z        X      Y      Z
 C          0.021  0.009 -0.030    0.000 -0.000  0.001   -0.000 -0.000  0.000
 C          0.015  0.029 -0.036    0.000 -0.001 -0.002    0.001 -0.001 -0.004
 C         -0.194 -0.135  0.285   -0.000  0.002 -0.002    0.000 -0.000  0.000
 C         -0.025 -0.436  0.525    0.000 -0.000  0.000    0.002 -0.001  0.002
 O          0.011  0.009 -0.018    0.002 -0.002 -0.000   -0.000  0.000  0.000
 O          0.114  0.098 -0.182   -0.000 -0.000  0.001    0.000  0.000 -0.000
 O         -0.004  0.023 -0.033   -0.001 -0.000 -0.000   -0.003 -0.001 -0.000
 O         -0.006  0.278 -0.339   -0.000  0.000 -0.000   -0.000  0.001 -0.001
 C         -0.018 -0.017  0.013   -0.007 -0.005  0.005   -0.030 -0.022  0.021
 C         -0.012  0.004  0.009    0.036 -0.007 -0.023   -0.008  0.002  0.005
 C          0.010 -0.001  0.010   -0.000 -0.000 -0.000    0.000 -0.000 -0.000
 C         -0.002 -0.001 -0.003    0.000  0.000 -0.000   -0.000 -0.000 -0.000
 C         -0.005  0.003 -0.006   -0.000  0.000  0.000   -0.001  0.001  0.001
 C          0.004 -0.005  0.016   -0.000 -0.000  0.000    0.000  0.000  0.000
 O         -0.001  0.002 -0.008    0.000 -0.000  0.000   -0.000 -0.000 -0.000
 H          0.121 -0.047 -0.042   -0.000  0.004 -0.011    0.000  0.001 -0.003
 H          0.111  0.120 -0.026   -0.004  0.007  0.020   -0.010  0.015  0.043
 H          0.108  0.047  0.050    0.041 -0.051 -0.121    0.184 -0.229 -0.539
 H          0.040 -0.050  0.021    0.105  0.112  0.583   -0.024 -0.025 -0.132
 H         -0.023  0.007 -0.013   -0.000  0.002  0.001   -0.000  0.001  0.000
 H         -0.015  0.011  0.010   -0.004 -0.003 -0.003    0.001  0.001  0.001
 H          0.007 -0.002 -0.004    0.001 -0.002  0.006   -0.000  0.000 -0.000
 H         -0.022 -0.017  0.021    0.000 -0.000  0.000    0.010 -0.002  0.007
 H          0.006  0.003 -0.004    0.000 -0.001 -0.003    0.000 -0.008 -0.015
 H         -0.056 -0.044 -0.003    0.000  0.000 -0.000    0.000 -0.001  0.001
 H          0.121 -0.009  0.029   -0.025  0.134 -0.009   -0.111  0.596 -0.040
 H          0.128  0.108 -0.085    0.068 -0.020  0.073    0.300 -0.087  0.322
 H          0.082 -0.024 -0.058   -0.053  0.367 -0.219    0.012 -0.082  0.049
 H          0.025 -0.059  0.002   -0.498 -0.383 -0.073    0.112  0.086  0.016
 TransDip   0.000 -0.425  0.468    0.108 -0.123 -0.040   -0.196 -0.071  0.011

 Mode:                70                     71                     72
 Frequency:      3056.62                3060.95                3067.73
 Force Cnst:      5.8682                 5.9301                 5.8930
 Red. Mass:       1.0660                 1.0742                 1.0628
 IR Active:          YES                    YES                    YES
 IR Intens:       13.367                 17.158                 36.268
 Raman Active:       YES                    YES                    YES
               X      Y      Z        X      Y      Z        X      Y      Z
 C         -0.000 -0.003  0.007    0.000 -0.001  0.004   -0.000 -0.003  0.007
 C          0.009 -0.014 -0.039    0.013 -0.021 -0.059    0.005 -0.008 -0.024
 C         -0.000  0.000  0.000   -0.000  0.000  0.000   -0.000  0.000  0.000
 C         -0.000  0.000 -0.001   -0.000  0.000 -0.002   -0.000  0.000 -0.001
 O          0.000 -0.000 -0.000    0.000  0.000 -0.000    0.000 -0.000 -0.000
 O          0.000  0.000 -0.000    0.000 -0.000 -0.000    0.000  0.000 -0.000
 O          0.000  0.000  0.000    0.000  0.000  0.000    0.000  0.000  0.000
 O          0.000 -0.000  0.000    0.000 -0.000  0.000    0.000 -0.000  0.000
 C          0.001  0.001 -0.001    0.001  0.001 -0.001    0.000  0.000  0.000
 C         -0.000  0.000  0.000   -0.000  0.000  0.000   -0.000  0.000  0.000
 C          0.000 -0.002 -0.001    0.000  0.002  0.001   -0.000 -0.004 -0.002
 C          0.018  0.025 -0.024   -0.019 -0.027  0.025    0.016  0.025 -0.024
 C         -0.028  0.026  0.021    0.008 -0.003  0.001    0.039 -0.031 -0.018
 C          0.001 -0.001  0.000    0.001  0.000 -0.001   -0.001  0.002 -0.002
 O         -0.000 -0.000  0.000   -0.000  0.000  0.000   -0.000  0.000  0.000
 H          0.003  0.030 -0.087   -0.001  0.017 -0.054    0.003  0.029 -0.083
 H         -0.110  0.164  0.470   -0.167  0.249  0.716   -0.066  0.099  0.284
 H         -0.008  0.010  0.023   -0.008  0.009  0.021   -0.000 -0.000 -0.000
 H         -0.001 -0.001 -0.007   -0.000 -0.001 -0.003   -0.001 -0.001 -0.007
 H         -0.002  0.027  0.010    0.001 -0.027 -0.009   -0.004  0.049  0.020
 H         -0.267 -0.182 -0.147    0.287  0.196  0.159   -0.240 -0.165 -0.134
 H          0.061 -0.114  0.430   -0.065  0.121 -0.455    0.060 -0.113  0.418
 H          0.301 -0.058  0.199   -0.088  0.018 -0.054   -0.431  0.084 -0.280
 H          0.015 -0.247 -0.448   -0.002  0.022  0.043   -0.015  0.275  0.496
 H         -0.003  0.012 -0.006    0.000 -0.007  0.003    0.006 -0.035  0.021
 H          0.005 -0.025  0.002    0.004 -0.024  0.002    0.000 -0.001  0.000
 H         -0.013  0.004 -0.014   -0.012  0.003 -0.013   -0.001  0.000 -0.001
 H          0.001 -0.004  0.002    0.000 -0.002  0.001    0.001 -0.003  0.002
 H          0.005  0.004  0.001    0.002  0.001  0.000    0.005  0.004  0.001
 TransDip  -0.025  0.107 -0.039   -0.036 -0.128  0.006    0.148 -0.048 -0.114

 Mode:                73                     74                     75
 Frequency:      3096.04                3111.44                3117.84
 Force Cnst:      6.2516                 6.2521                 6.2805
 Red. Mass:       1.1070                 1.0961                 1.0966
 IR Active:          YES                    YES                    YES
 IR Intens:        0.570                 12.180                 32.384
 Raman Active:       YES                    YES                    YES
               X      Y      Z        X      Y      Z        X      Y      Z
 C         -0.000 -0.003  0.010    0.001  0.020 -0.056    0.002  0.019 -0.054
 C         -0.001  0.002  0.005    0.001 -0.002 -0.003    0.002 -0.004 -0.009
 C          0.000 -0.000  0.000   -0.001  0.001 -0.001   -0.000  0.001 -0.001
 C         -0.000 -0.000  0.000   -0.000 -0.000  0.000   -0.000 -0.000 -0.000
 O         -0.000  0.000 -0.000    0.000 -0.000  0.000    0.000 -0.000  0.000
 O         -0.000  0.000 -0.000   -0.000 -0.000  0.000   -0.000 -0.000  0.000
 O          0.000 -0.000 -0.000    0.000  0.000  0.000    0.000  0.000  0.000
 O         -0.000  0.000 -0.000    0.000  0.000 -0.000    0.000 -0.000  0.000
 C         -0.000 -0.000 -0.000   -0.000 -0.000  0.000   -0.000  0.000  0.000
 C         -0.000 -0.000 -0.000    0.000 -0.000  0.000    0.001  0.001  0.001
 C         -0.002  0.007  0.003    0.002 -0.009 -0.004   -0.000  0.003 -0.000
 C         -0.042 -0.017 -0.055    0.021  0.009  0.026   -0.027 -0.009 -0.041
 C          0.032  0.010  0.051    0.030  0.008  0.046   -0.024 -0.007 -0.038
 C          0.000  0.002 -0.001    0.000  0.003 -0.001    0.000 -0.001 -0.000
 O          0.000 -0.000 -0.000   -0.000 -0.000  0.000    0.000 -0.000  0.001
 H          0.005  0.040 -0.112   -0.016 -0.234  0.664   -0.012 -0.227  0.645
 H          0.015 -0.023 -0.068   -0.011  0.016  0.039   -0.025  0.041  0.108
 H          0.000  0.000  0.000    0.000 -0.001 -0.001    0.001 -0.002 -0.004
 H          0.000  0.000  0.000   -0.000  0.001  0.002   -0.002 -0.001 -0.007
 H          0.011 -0.084 -0.036   -0.014  0.108  0.046    0.002 -0.026 -0.011
 H          0.456  0.318  0.231   -0.235 -0.166 -0.120    0.286  0.202  0.146
 H          0.048 -0.122  0.424   -0.022  0.057 -0.190    0.042 -0.101  0.349
 H         -0.402  0.085 -0.245   -0.385  0.083 -0.235    0.307 -0.067  0.189
 H          0.024 -0.205 -0.362    0.021 -0.180 -0.315   -0.018  0.155  0.270
 H          0.002 -0.020  0.013    0.003 -0.029  0.019   -0.001  0.006 -0.003
 H         -0.000  0.002 -0.000   -0.000  0.001 -0.000    0.001 -0.005  0.000
 H          0.000 -0.000  0.000   -0.000  0.000 -0.000   -0.001  0.000 -0.001
 H         -0.000 -0.000  0.000   -0.000  0.003 -0.002   -0.000  0.003 -0.002
 H          0.000  0.000  0.000   -0.004 -0.003 -0.001   -0.012 -0.009 -0.001
 TransDip  -0.018  0.003  0.016    0.094  0.047  0.039   -0.082  0.006 -0.163

 Mode:                76                     77                     78
 Frequency:      3122.35                3125.24                3130.16
 Force Cnst:      6.3584                 6.3725                 6.2917
 Red. Mass:       1.1070                 1.1074                 1.0899
 IR Active:          YES                    YES                    YES
 IR Intens:       18.510                 15.420                 22.104
 Raman Active:       YES                    YES                    YES
               X      Y      Z        X      Y      Z        X      Y      Z
 C         -0.000  0.000 -0.001   -0.000  0.000 -0.000    0.000 -0.002  0.006
 C          0.000 -0.000 -0.000    0.000 -0.000 -0.000    0.000  0.001  0.002
 C          0.000  0.000  0.000    0.000  0.000 -0.000    0.000 -0.001 -0.000
 C         -0.000  0.000 -0.000   -0.000  0.000  0.000    0.000  0.000  0.000
 O          0.000  0.000  0.000   -0.000 -0.000  0.000   -0.000  0.000  0.000
 O          0.000  0.000  0.000   -0.000 -0.000  0.000   -0.000  0.000  0.000
 O          0.000 -0.000  0.000   -0.000  0.000  0.000   -0.000 -0.000 -0.000
 O          0.000 -0.000  0.000    0.000  0.000  0.000   -0.000 -0.000 -0.000
 C          0.001 -0.002 -0.001    0.028 -0.078 -0.046    0.000 -0.000 -0.000
 C         -0.055 -0.048 -0.061    0.001  0.001  0.002   -0.001 -0.001 -0.001
 C         -0.000  0.001  0.001    0.000  0.000  0.000    0.010 -0.077 -0.034
 C         -0.000 -0.000 -0.001   -0.000 -0.000 -0.000   -0.010 -0.005 -0.006
 C         -0.000 -0.000 -0.001   -0.000 -0.000 -0.000   -0.003  0.001 -0.001
 C         -0.000  0.000 -0.000   -0.000  0.000 -0.000    0.000 -0.003  0.003
 O          0.000  0.000  0.000   -0.000  0.000  0.000    0.000 -0.000  0.000
 H         -0.000 -0.005  0.013   -0.000 -0.001  0.004   -0.000  0.021 -0.064
 H         -0.001  0.001  0.003   -0.000  0.001  0.001    0.004 -0.006 -0.016
 H         -0.005  0.006  0.015   -0.202  0.246  0.621   -0.001  0.001  0.003
 H          0.113  0.115  0.688   -0.003 -0.003 -0.019    0.001  0.002  0.009
 H          0.002 -0.014 -0.006    0.000 -0.001 -0.001   -0.114  0.891  0.395
 H          0.002  0.002  0.001    0.001  0.001  0.000    0.110  0.074  0.053
 H          0.001 -0.001  0.005    0.000 -0.000  0.002    0.004 -0.009  0.023
 H          0.004 -0.001  0.002    0.002 -0.000  0.001    0.027 -0.006  0.017
 H         -0.000  0.002  0.004   -0.000  0.001  0.002   -0.000  0.001  0.000
 H          0.000 -0.001  0.001    0.000 -0.001  0.001   -0.004  0.045 -0.030
 H         -0.004  0.019 -0.002   -0.132  0.694 -0.063   -0.000 -0.000 -0.000
 H         -0.001  0.000 -0.002    0.001 -0.014 -0.013    0.001 -0.000  0.001
 H         -0.017  0.028 -0.035    0.000  0.001 -0.000   -0.000 -0.001  0.000
 H          0.549  0.429  0.064   -0.014 -0.011 -0.002    0.009  0.007  0.001
 TransDip  -0.078 -0.074 -0.086    0.025 -0.110 -0.057   -0.010 -0.146 -0.036

 Mode:                79                     80                     81
 Frequency:      3153.45                3156.23                3164.05
 Force Cnst:      6.4832                 6.4925                 6.4328
 Red. Mass:       1.1065                 1.1062                 1.0906
 IR Active:          YES                    YES                    YES
 IR Intens:       13.981                 14.394                  5.705
 Raman Active:       YES                    YES                    YES
               X      Y      Z        X      Y      Z        X      Y      Z
 C         -0.000  0.000 -0.000    0.000  0.000  0.000   -0.001  0.001 -0.002
 C          0.000 -0.000  0.000   -0.000  0.000  0.000   -0.000 -0.000 -0.001
 C         -0.000  0.000 -0.000   -0.001  0.000  0.001   -0.000  0.000  0.000
 C          0.001  0.001 -0.001   -0.000  0.000  0.000    0.000 -0.001  0.001
 O          0.000 -0.000  0.000    0.000  0.000 -0.000    0.000 -0.000 -0.000
 O         -0.000 -0.000  0.000    0.000  0.000 -0.000    0.000  0.000 -0.000
 O          0.000 -0.000  0.000    0.000 -0.000 -0.000    0.000  0.000 -0.000
 O         -0.000 -0.000  0.000    0.000 -0.000  0.000   -0.000  0.000 -0.000
 C         -0.046  0.029 -0.078    0.000  0.000  0.000    0.000 -0.000  0.001
 C         -0.000 -0.000  0.000   -0.004 -0.072  0.061   -0.000  0.000 -0.000
 C         -0.000  0.000  0.000   -0.000 -0.000 -0.000   -0.001  0.005  0.001
 C          0.000  0.000 -0.000   -0.000 -0.000  0.000    0.001  0.001 -0.001
 C          0.000 -0.000  0.000   -0.000  0.000  0.000    0.005 -0.000  0.001
 C          0.000 -0.001  0.000    0.000 -0.000  0.000    0.007 -0.072  0.048
 O         -0.000 -0.000  0.000    0.000  0.000 -0.000    0.000 -0.000 -0.000
 H         -0.000 -0.001  0.002    0.000  0.000 -0.001    0.000 -0.006  0.016
 H         -0.000  0.000  0.001    0.000 -0.000 -0.000   -0.001  0.003  0.012
 H         -0.106  0.131  0.277    0.001 -0.001 -0.003    0.001 -0.001 -0.003
 H          0.000 -0.000  0.000   -0.062 -0.074 -0.316    0.000  0.000  0.001
 H          0.000 -0.002 -0.001   -0.000  0.000  0.000    0.006 -0.043 -0.020
 H         -0.000 -0.000 -0.000    0.000  0.000  0.000   -0.009 -0.006 -0.005
 H          0.000 -0.000  0.001   -0.000  0.000 -0.001    0.001 -0.002  0.008
 H         -0.001  0.000 -0.000    0.000 -0.000  0.000   -0.051  0.009 -0.028
 H         -0.000  0.000  0.000    0.000 -0.000 -0.000   -0.002  0.001  0.007
 H         -0.001  0.008 -0.006   -0.000  0.002 -0.001   -0.072  0.822 -0.552
 H          0.052 -0.307  0.006    0.000 -0.001  0.000   -0.001  0.005 -0.000
 H          0.593 -0.172  0.639   -0.003  0.001 -0.003   -0.005  0.002 -0.006
 H         -0.000  0.003 -0.002   -0.111  0.764 -0.458    0.000 -0.002  0.001
 H          0.003  0.002  0.000    0.222  0.161  0.046   -0.000 -0.000 -0.000
 TransDip  -0.075  0.028 -0.089    0.014 -0.101  0.067    0.044 -0.059  0.020

 STANDARD THERMODYNAMIC QUANTITIES AT   298.15 K  AND     1.00 ATM

   This Molecule has  0 Imaginary Frequencies
   Zero point vibrational energy:      149.060 kcal/mol

   Atom    1 Element C  Has Mass   12.00000
   Atom    2 Element C  Has Mass   12.00000
   Atom    3 Element C  Has Mass   12.00000
   Atom    4 Element C  Has Mass   12.00000
   Atom    5 Element O  Has Mass   15.99491
   Atom    6 Element O  Has Mass   15.99491
   Atom    7 Element O  Has Mass   15.99491
   Atom    8 Element O  Has Mass   15.99491
   Atom    9 Element C  Has Mass   12.00000
   Atom   10 Element C  Has Mass   12.00000
   Atom   11 Element C  Has Mass   12.00000
   Atom   12 Element C  Has Mass   12.00000
   Atom   13 Element C  Has Mass   12.00000
   Atom   14 Element C  Has Mass   12.00000
   Atom   15 Element O  Has Mass   15.99491
   Atom   16 Element H  Has Mass    1.00783
   Atom   17 Element H  Has Mass    1.00783
   Atom   18 Element H  Has Mass    1.00783
   Atom   19 Element H  Has Mass    1.00783
   Atom   20 Element H  Has Mass    1.00783
   Atom   21 Element H  Has Mass    1.00783
   Atom   22 Element H  Has Mass    1.00783
   Atom   23 Element H  Has Mass    1.00783
   Atom   24 Element H  Has Mass    1.00783
   Atom   25 Element H  Has Mass    1.00783
   Atom   26 Element H  Has Mass    1.00783
   Atom   27 Element H  Has Mass    1.00783
   Atom   28 Element H  Has Mass    1.00783
   Atom   29 Element H  Has Mass    1.00783
   Molecular Mass:   214.084170 amu
   Principal axes and moments of inertia in amu*Bohr^2:
                             1           2           3
    Eigenvalues --     2422.85346  2993.53255  4683.35457
          X               0.99993    -0.00602    -0.01020
          Y               0.00609     0.99996     0.00689
          Z               0.01016    -0.00695     0.99992
   Rotational Symmetry Number is   1
   The Molecule is an Asymmetric Top
   Translational Enthalpy:        0.889 kcal/mol
   Rotational Enthalpy:           0.889 kcal/mol
   Vibrational Enthalpy:        156.337 kcal/mol
   gas constant (RT):             0.592 kcal/mol
   Translational Entropy:        41.987  cal/mol.K
   Rotational Entropy:           31.896  cal/mol.K
   Vibrational Entropy:          49.241  cal/mol.K

   Total Enthalpy:              158.707 kcal/mol
   Total Entropy:               123.124  cal/mol.K
Archival summary:
1\1\nid04578\FREQ\ProcedureUnspecified\BasisUnspecified\51014\junteng\WedOct420:12:182017WedOct420:12:182017\0\\#,FREQ,ProcedureUnspecified,BasisUnspecified,\\0,1\O\C,1,1.42714\H,2,1.08816,1,110.162\C,1,1.439,2,97.168,3,179.579,0\H,4,1.08562,1,109.76,2,177.696,0\C,4,1.5418,1,102.199,2,-57.3912,0\H,6,1.09081,4,110.184,1,-81.0394,0\H,6,1.09187,4,112.861,1,157.917,0\C,2,1.54653,1,103.36,3,-124.186,0\H,9,1.09089,2,110.225,1,86.4338,0\H,9,1.0919,2,112.459,1,-152.911,0\C,4,1.54854,1,103.076,2,55.6141,0\H,12,1.09373,4,110.963,1,-146.236,0\C,12,1.51907,4,113.604,1,95.2534,0\O,14,1.2033,12,125.787,4,6.1965,0\O,14,1.35105,12,110.018,4,-178.129,0\C,16,1.43917,14,115.836,12,175.616,0\H,17,1.08801,16,105.517,14,178.749,0\H,17,1.09075,16,110.606,14,59.0255,0\H,17,1.09111,16,109.726,14,-61.9624,0\C,2,1.56468,1,102.117,3,122.132,0\H,21,1.08881,2,111.33,1,156.576,0\C,21,1.51326,2,109.187,1,-84.0311,0\O,23,1.20459,21,126.657,2,84.4398,0\O,23,1.35359,21,109.895,2,-92.6007,0\C,25,1.4403,23,115.919,21,176.923,0\H,26,1.0878,25,105.455,23,-178.442,0\H,26,1.09089,25,110.557,23,-58.7129,0\H,26,1.09123,25,110.317,23,62.1699,0\\\@

 Total job time:  7413.35s(wall), 39606.24s(cpu) 
 Wed Oct  4 20:12:18 2017

        *************************************************************
        *                                                           *
        *  Thank you very much for using Q-Chem.  Have a nice day.  *
        *                                                           *
        *************************************************************


