nid05393 10.128.21
Q-Chem Developer Version! Running on 10.128.21.*
                  Welcome to Q-Chem
     A Quantum Leap Into The Future Of Chemistry


 Q-Chem 5.0, Q-Chem, Inc., Pleasanton, CA (2017)

 Yihan Shao,  Zhengting Gan,  E. Epifanovsky,  A. T. B. Gilbert,  M. Wormit,  
 J. Kussmann,  A. W. Lange,  A. Behn,  Jia Deng,  Xintian Feng,  D. Ghosh,  
 M. Goldey,  P. R. Horn,  L. D. Jacobson,  I. Kaliman,  T. Kus,  A. Landau,  
 Jie Liu,  E. I. Proynov,  R. M. Richard,  R. P. Steele,  E. J. Sundstrom,  
 H. L. Woodcock III,  P. M. Zimmerman,  D. Zuev,  B. Albrecht,  E. Alguire,  
 S. A. Baeppler,  Z. Benda,  Y. A. Bernard,  E. J. Berquist,  K. B. Bravaya,  
 D. Casanova,  Chun-Min Chang,  Yunqing Chen,  A. Chien,  K. D. Closser,  
 M. P. Coons,  S. Dasgupta,  M. Diedenhofen,  Hainam Do,  R. G. Edgar,  
 Po-Tung Fang,  S. Fatehi,  Qingguo Feng,  Qinghui Ge,  A. Ghysels,  
 J. Gomes,  J. Gonthier,  A. Gunina,  M. W. D. Hanson-Heine,  
 P. H. P. Harbach,  A. W. Hauser,  J. E. Herr,  E. G. Hohenstein,  
 Z. C. Holden,  Kerwin Hui,  T.-C. Jagau,  Hyunjun Ji,  B. Kaduk,  
 K. Khistyaev,  Jaehoon Kim,  P. Klunzinger,  K. Koh,  D. Kosenkov,  
 T. Kowalczyk,  C. M. Krauter,  A. Kunitsa,  Ka Un Lao,  A. Laurent,  
 K. V. Lawler,  Joonho Lee,  D. Lefrancois,  S. Lehtola,  D. S. Levine,  
 Yi-Pei Li,  You-Sheng Lin,  Fenglai Liu,  E. Livshits,  A. Luenser,  
 P. Manohar,  E. Mansoor,  S. F. Manzer,  Shan-Ping Mao,  Yuezhi Mao,  
 N. Mardirossian,  A. V. Marenich,  L. A. Martinez-Martinez,  S. A. Maurer,  
 N. J. Mayhall,  S. C. McKenzie,  J.-M. Mewes,  A. F. Morrison,  K. Nanda,  
 T. S. Nguyen-Beck,  R. Olivares-Amaya,  J. A. Parkhill,  T. M. Perrine,  
 F. Plasser,  S. Prager,  A. Prociuk,  D. R. Rehn,  F. Rob,  M. Schneider,  
 N. Sergueev,  S. M. Sharada,  S. Sharma,  D. W. Small,  T. Stauch,  
 T. Stein,  Yu-Chuan Su,  A. J. W. Thom,  T. Tsuchimochi,  L. Vogt,  
 O. Vydrov,  M. A. Watson,  J. Wenzel,  M. de Wergifosse,  T. A. Wesolowski,  
 A. White,  J. Witte,  A. Yamada,  Jun Yang,  K. Yao,  S. Yeganeh,  
 S. R. Yost,  Zhi-Qiang You,  A. Zech,  Igor Ying Zhang,  Xing Zhang,  
 Yan Zhao,  Ying Zhu,  B. R. Brooks,  G. K. L. Chan,  C. J. Cramer,  
 M. S. Gordon,  W. J. Hehre,  A. Klamt,  M. W. Schmidt,  C. D. Sherrill,  
 D. G. Truhlar,  A. Aspuru-Guzik,  R. Baer,  A. T. Bell,  N. A. Besley,  
 Jeng-Da Chai,  A. Dreuw,  B. D. Dunietz,  T. R. Furlani,  Chao-Ping Hsu,  
 Yousung Jung,  Jing Kong,  D. S. Lambrecht,  WanZhen Liang,  C. Ochsenfeld,  
 V. A. Rassolov,  L. V. Slipchenko,  J. E. Subotnik,  T. Van Voorhis,  
 J. M. Herbert,  A. I. Krylov,  P. M. W. Gill,  M. Head-Gordon

 Contributors to earlier versions of Q-Chem not listed above: 
 R. D. Adamson,  B. Austin,  J. Baker,  G. J. O. Beran,  K. Brandhorst,  
 S. T. Brown,  E. F. C. Byrd,  A. K. Chakraborty,  C.-L. Cheng,  
 Siu Hung Chien,  D. M. Chipman,  D. L. Crittenden,  H. Dachsel,  
 R. A. DiStasio Jr.,  R. J. Doerksen,  A. D. Dutoi,  L. Fusti-Molnar,  
 W. A. Goddard III,  A. Golubeva-Zadorozhnaya,  S. R. Gwaltney,  G. Hawkins,  
 A. Heyden,  S. Hirata,  G. Kedziora,  F. J. Keil,  C. Kelley,  Jihan Kim,  
 R. A. King,  R. Z. Khaliullin,  P. P. Korambath,  W. Kurlancheek,  
 A. M. Lee,  M. S. Lee,  S. V. Levchenko,  Ching Yeh Lin,  D. Liotard,  
 R. C. Lochan,  I. Lotan,  P. E. Maslen,  N. Nair,  D. P. O'Neill,  
 D. Neuhauser,  E. Neuscamman,  C. M. Oana,  R. Olson,  B. Peters,  
 R. Peverati,  P. A. Pieniazek,  Y. M. Rhee,  J. Ritchie,  M. A. Rohrdanz,  
 E. Rosta,  N. J. Russ,  H. F. Schaefer III,  N. E. Schultz,  N. Shenvi,  
 A. C. Simmonett,  A. Sodt,  D. Stuck,  K. S. Thanthiriwatte,  V. Vanovschi,  
 Tao Wang,  A. Warshel,  C. F. Williams,  Q. Wu,  X. Xu,  W. Zhang

 Please cite Q-Chem as follows:
 Y. Shao et al., Mol. Phys. 113, 184-215 (2015)
 DOI: 10.1080/00268976.2014.952696

 Q-Chem 5.0.0 for Intel X86 EM64T Linux

 Parts of Q-Chem use Armadillo 5.200.1 (Boston Tea Smuggler).
 http://arma.sourceforge.net/

 Q-Chem begins on Tue Oct  3 18:19:55 2017  

Host: nid05393
0

     Scratch files written to /global/cscratch1/sd/junteng/scratch/17/opt_11n01.save//

Checking the input file for inconsistencies... 	...done.

--------------------------------------------------------------
User input:
--------------------------------------------------------------
$molecule
0  1
C    0.469  -2.369   0.246
C   -0.100  -2.666   1.497
C    0.820  -0.970  -0.128
C   -0.250  -1.617   2.525
O    1.710  -0.973  -1.154
O    0.353   0.027   0.395
O    0.994  -1.244   2.918
O   -1.315  -1.271   3.005
C    0.990  -0.231   3.923
C    2.104   0.331  -1.586
C    0.633  -3.406  -0.690
C    0.237  -4.708  -0.384
C   -0.335  -4.993   0.854
C   -0.510  -3.982   1.810
H    0.475   0.666   3.564
H    1.246   0.871  -1.997
H   -0.645  -6.015   1.070
H    0.524  -0.605   4.840
H    2.028   0.031   4.144
H    2.851   0.214  -2.376
H    2.557   0.890  -0.761
H    0.365  -5.501  -1.118
H    1.053  -3.209  -1.674
C   -1.128  -4.326   3.139
H   -2.093  -3.824   3.253
H   -0.462  -4.036   3.958
H   -1.304  -5.403   3.231
$end


$opt
CONSTRAINT
tors    2    1    3    5    163.6
tors    1    2    4    7    -67.3
ENDCONSTRAINT
$end

$rem
JOBTYPE                   OPT
METHOD                    B3LYP
DFT_D                     D3_OP
BASIS                     6-311++G(d,p)
GEOM_OPT_MAX_CYCLES       500
GEOM_OPT_TOL_DISPLACEMENT 1
SYMMETRY                  False
THRESH                    12
SCF_CONVERGENCE           8
MAX_SUB_FILE_NUM          128
MEM_STATIC                400
MEM_TOTAL                 4000
$end

--------------------------------------------------------------
 Adding empirical dispersion correction 
 ----------------------------------------------------------------
 Doing -D3(op) with
 s6 =   1.00000
 s8 =   0.78311
 a1 =   0.30000
 a2 =   4.25000
 n  =  10.00000
 -D3 energy without 3body term =     -0.0281099174 hartrees
 ----------------------------------------------------------------
             Standard Nuclear Orientation (Angstroms)
    I     Atom           X                Y                Z
 ----------------------------------------------------------------
    1      C       0.4276448099    -0.8415736243    -0.0588692333
    2      C      -0.8060843738    -0.1694900882    -0.1153229467
    3      C       1.7108516923    -0.1157460900    -0.2752773829
    4      C      -0.8586766063     1.2982395328    -0.2659510208
    5      O       2.7440659004    -0.8386462100     0.2293698371
    6      O       1.8151246914     0.9559824043    -0.8463747267
    7      O      -0.3462610882     1.8472865541     0.8641338013
    8      O      -1.3960448180     1.8760408395    -1.1942408759
    9      C      -0.3453536797     3.2741738433     0.8499267384
   10      C       4.0219453492    -0.2207266872     0.0636122501
   11      C       0.4347697576    -2.2356355990     0.1279500539
   12      C      -0.7617862935    -2.9413211965     0.2541144457
   13      C      -1.9807647890    -2.2699771573     0.1874690522
   14      C      -2.0220088454    -0.8801964136     0.0044651935
   15      H       0.2409006342     3.6507951732     0.0054285126
   16      H       4.2682047510    -0.1351699828    -0.9988007380
   17      H      -2.9041102496    -2.8410186193     0.2801232975
   18      H      -1.3703322120     3.6561049330     0.8116037554
   19      H       0.1193667722     3.6218521173     1.7762548225
   20      H       4.7702630880    -0.8580083794     0.5428727289
   21      H       4.0413877155     0.7607414868     0.5480265539
   22      H      -0.7435362013    -4.0202578732     0.3939414170
   23      H       1.3701157423    -2.7903072772     0.1584823066
   24      C      -3.3565948521    -0.1864117253    -0.0591272334
   25      H      -3.5169381685     0.2431909134    -1.0520807034
   26      H      -3.4152264497     0.6020259728     0.6980684692
   27      H      -4.1788259208    -0.8832659350     0.1350357913
 ----------------------------------------------------------------
 Molecular Point Group                 C1    NOp =  1
 Largest Abelian Subgroup              C1    NOp =  1
 Nuclear Repulsion Energy =  1009.1896279882 hartrees
 There are       55 alpha and       55 beta electrons
 Requested basis set is 6-311++G(d,p)
 There are 150 shells and 414 basis functions

 Total QAlloc Memory Limit   4000 MB
 Mega-Array Size       392 MB
 MEM_STATIC part       400 MB
 A cutoff of  1.0D-12 yielded   9184 shell pairs
 There are     72237 function pairs (     77335 Cartesian)
 
 -------------------------------------------------------
 OpenMP Integral Computing Module                       
 Release: version 1.0, May 2013, Q-Chem Inc. Pittsburgh 
 -------------------------------------------------------
 Integral Job Info:
 Integral job number is                      11
 Integral operator is                         1
 short-range coefficients                     0
 long-range coefficients              100000000
 Omega coefficients                           0
 if combine SR and LR in K                    0
 Integral screening is                        0
 Integral computing path is                   2
 max size of driver memory is            800000
 size of driver memory is                593474
 size of scratch memory is              2260544
 max col of scratch BK array               1296
 max len of scratch array in speh3          155
 max len of scratch index in speh4           18
 max int batch size is                      520
 min int batch size is                       52
 fixed nKL is                                52
 max L of basis functions is                  2
 order of int derivative is                   0
 number of shells is                        150
 number of basis is                         429
 number of cartesian basis is               429
 number of contracted shell pairs          9184
 number of primitive shell pairs          21301
 maxK2 (contraction) of shell pair           36
 max number of K2 of shell pair               1
 max number of CS2 of shell pair           1671
 max number of PS2 of shell pair           3504
 mem total for path MDJ                  142680
 -------------------------------------------------------
 Smallest overlap matrix eigenvalue = 1.23E-07
 Linear dependence detected in AO basis
 Number of orthogonalized atomic orbitals = 411
 Maximum deviation from orthogonality = 2.201E-10

 Scale SEOQF with 1.000000e-01/1.000000e-01/1.000000e-01

 Standard Electronic Orientation quadrupole field applied
 Nucleus-field energy     =     0.0000000367 hartrees
 Guess from superposition of atomic densities
 Warning:  Energy on first SCF cycle will be non-variational
 A restricted hybrid HF-DFT SCF calculation will be
 performed using Pulay DIIS extrapolation
 Exchange:     0.2000 Hartree-Fock + 0.0800 Slater + 0.7200 B88
 Correlation:  0.1900 VWN1RPA + 0.8100 LYP
 Using SG-1 standard quadrature grid
 Dispersion:   Grimme D3
 SCF converges when DIIS error is below 1.0E-08
 -------------------------------------------------------
 OpenMP Integral computing Module                
 Release: version 1.0, May 2013, Q-Chem Inc. Pittsburgh 
 -------------------------------------------------------
 -------------------------------------------------------
 OpenMP BLAS3 based DFT computing Module                
 Release: version 1.0, May 2013, Q-Chem Inc. Pittsburgh 
 -------------------------------------------------------
 ---------------------------------------
  Cycle       Energy         DIIS Error
 ---------------------------------------
    1    -730.6304159557      3.17E-02
    2    -727.2488789766      4.05E-03
    3    -726.7411135191      7.05E-03
    4    -727.4905171651      1.69E-03
    5    -727.5390968514      4.27E-04
    6    -727.5413964675      1.83E-04
    7    -727.5419204824      4.11E-05
    8    -727.5419457297      1.79E-05
    9    -727.5419519219      4.28E-06
   10    -727.5419522310      1.41E-06
   11    -727.5419522579      6.69E-07
   12    -727.5419522650      2.18E-07
   13    -727.5419522658      5.80E-08
   14    -727.5419522659      1.35E-08
   15    -727.5419522659      6.56E-09 Convergence criterion met
 ---------------------------------------
 SCF time:  CPU 1218.75 s  wall 60.49 s
 SCF   energy in the final basis set = -727.5419522659
 Total energy in the final basis set = -727.5419522659
 
 --------------------------------------------------------------
 
                    Orbital Energies (a.u.)
 --------------------------------------------------------------
 
 Alpha MOs
 -- Occupied --
-19.182 -19.175 -19.124 -19.119 -10.316 -10.309 -10.233 -10.224
-10.208 -10.206 -10.205 -10.193 -10.193 -10.191 -10.174  -1.119
 -1.111  -1.033  -1.027  -0.884  -0.801  -0.792  -0.748  -0.724
 -0.697  -0.653  -0.624  -0.582  -0.573  -0.543  -0.518  -0.505
 -0.495  -0.490  -0.483  -0.479  -0.465  -0.443  -0.436  -0.427
 -0.421  -0.415  -0.399  -0.394  -0.379  -0.373  -0.368  -0.365
 -0.359  -0.323  -0.311  -0.297  -0.291  -0.271  -0.260
 -- Virtual --
 -0.066  -0.037  -0.011  -0.003   0.000   0.005   0.012   0.020
  0.027   0.028   0.030   0.035   0.042   0.046   0.048   0.055
  0.063   0.064   0.071   0.079   0.086   0.089   0.095   0.103
  0.104   0.106   0.110   0.114   0.117   0.118   0.125   0.127
  0.128   0.133   0.135   0.140   0.144   0.146   0.149   0.153
  0.156   0.160   0.161   0.165   0.170   0.177   0.179   0.183
  0.185   0.191   0.198   0.200   0.206   0.209   0.212   0.214
  0.221   0.231   0.233   0.238   0.241   0.254   0.259   0.266
  0.272   0.275   0.281   0.283   0.288   0.293   0.296   0.297
  0.304   0.308   0.310   0.312   0.318   0.328   0.336   0.341
  0.345   0.354   0.356   0.358   0.363   0.369   0.377   0.382
  0.385   0.395   0.398   0.407   0.410   0.423   0.431   0.443
  0.461   0.468   0.475   0.492   0.495   0.506   0.521   0.524
  0.537   0.541   0.550   0.569   0.572   0.579   0.595   0.598
  0.602   0.610   0.617   0.628   0.632   0.641   0.651   0.654
  0.660   0.664   0.670   0.675   0.685   0.695   0.699   0.703
  0.713   0.718   0.725   0.732   0.748   0.752   0.758   0.769
  0.784   0.788   0.809   0.835   0.849   0.855   0.862   0.879
  0.904   0.913   0.916   0.931   0.939   0.963   0.965   0.993
  1.011   1.017   1.034   1.045   1.055   1.067   1.073   1.087
  1.111   1.119   1.139   1.145   1.172   1.193   1.205   1.217
  1.228   1.236   1.242   1.269   1.286   1.302   1.324   1.358
  1.361   1.373   1.384   1.394   1.407   1.423   1.438   1.441
  1.459   1.464   1.484   1.487   1.512   1.521   1.526   1.529
  1.548   1.555   1.565   1.573   1.585   1.591   1.604   1.619
  1.632   1.637   1.655   1.674   1.692   1.698   1.700   1.706
  1.709   1.727   1.736   1.748   1.768   1.785   1.786   1.805
  1.815   1.827   1.863   1.872   1.886   1.904   1.910   1.929
  1.950   1.962   1.976   2.004   2.014   2.021   2.033   2.065
  2.090   2.100   2.110   2.122   2.141   2.152   2.176   2.190
  2.193   2.232   2.252   2.302   2.325   2.382   2.397   2.426
  2.434   2.445   2.473   2.480   2.490   2.497   2.523   2.531
  2.545   2.554   2.570   2.586   2.589   2.593   2.650   2.659
  2.662   2.676   2.692   2.711   2.728   2.737   2.754   2.772
  2.788   2.811   2.827   2.830   2.838   2.859   2.875   2.890
  2.897   2.906   2.928   2.944   2.967   2.999   3.021   3.037
  3.059   3.071   3.093   3.103   3.115   3.156   3.174   3.204
  3.222   3.232   3.277   3.320   3.331   3.359   3.372   3.395
  3.425   3.513   3.527   3.553   3.593   3.618   3.681   3.716
  3.787   3.797   3.802   3.823   3.824   3.827   3.917   4.029
  4.040   4.050   4.099   4.137   4.145   4.267   4.349   4.368
  4.841   5.026   5.043   5.119   5.122   5.226   5.267   5.384
  5.415   5.636   5.650   5.836   5.867  23.565  23.835  23.863
 23.911  23.923  23.925  23.933  23.977  24.047  24.056  24.153
 49.887  49.902  49.997  50.024
 --------------------------------------------------------------
 
          Ground-State Mulliken Net Atomic Charges

     Atom                 Charge (a.u.)
  ----------------------------------------
      1 C                     0.173585
      2 C                     0.658636
      3 C                    -0.161140
      4 C                    -0.786111
      5 O                    -0.058928
      6 O                    -0.210000
      7 O                     0.075516
      8 O                    -0.152806
      9 C                    -0.236320
     10 C                    -0.223182
     11 C                    -0.379887
     12 C                    -0.070969
     13 C                    -0.601483
     14 C                     0.455841
     15 H                     0.194418
     16 H                     0.187766
     17 H                     0.123418
     18 H                     0.164382
     19 H                     0.152197
     20 H                     0.160945
     21 H                     0.173979
     22 H                     0.181998
     23 H                     0.176941
     24 C                    -0.524292
     25 H                     0.196603
     26 H                     0.172336
     27 H                     0.156556
  ----------------------------------------
  Sum of atomic charges =     0.000000

 -----------------------------------------------------------------
                    Cartesian Multipole Moments
 -----------------------------------------------------------------
    Charge (ESU x 10^10)
                 0.0000
    Dipole Moment (Debye)
         X       0.7941      Y      -1.7702      Z       2.4148
       Tot       3.0977
    Quadrupole Moments (Debye-Ang)
        XX     -73.4896     XY       2.0290     YY     -79.6783
        XZ      -1.5994     YZ       6.7775     ZZ     -94.1965
    Octopole Moments (Debye-Ang^2)
       XXX      50.7720    XXY     -10.2488    XYY       0.2624
       YYY      19.2668    XXZ       7.0275    XYZ      -0.9290
       YYZ      20.9797    XZZ      10.4391    YZZ       6.5379
       ZZZ       1.0656
    Hexadecapole Moments (Debye-Ang^3)
      XXXX   -1940.5318   XXXY      -4.5143   XXYY    -652.8245
      XYYY       7.6453   YYYY   -1514.9382   XXXZ       5.1500
      XXYZ      15.5867   XYYZ     -14.9026   YYYZ      30.8713
      XXZZ    -426.1047   XYZZ      -4.6171   YYZZ    -345.3848
      XZZZ      -0.4569   YZZZ      15.2252   ZZZZ    -262.4571
 -----------------------------------------------------------------
 Calculating analytic gradient of the SCF energy
 Gradient of SCF Energy
            1           2           3           4           5           6
    1   0.0046003   0.0014348   0.0057566   0.0121680   0.0008449  -0.0037735
    2   0.0105220   0.0174535  -0.0036770  -0.0048561  -0.0109756   0.0159086
    3  -0.0002197   0.0027476   0.0040146   0.0061605   0.0038750  -0.0103627
            7           8           9          10          11          12
    1   0.0052345  -0.0141910  -0.0031440  -0.0129997   0.0008581  -0.0021759
    2  -0.0078734   0.0024819  -0.0152065  -0.0009527   0.0043430  -0.0016728
    3   0.0133672  -0.0215351  -0.0051849  -0.0006519  -0.0005210   0.0011166
           13          14          15          16          17          18
    1  -0.0045902  -0.0021215   0.0036199   0.0012673  -0.0016140  -0.0018998
    2  -0.0011792   0.0051254   0.0015113  -0.0031786  -0.0039963   0.0004061
    3  -0.0003429   0.0010203  -0.0000838  -0.0016464   0.0002286   0.0030078
           19          20          21          22          23          24
    1   0.0004232   0.0058431   0.0009679  -0.0004515   0.0022134   0.0033667
    2   0.0056584   0.0019804   0.0007924  -0.0026942  -0.0053091   0.0004197
    3   0.0005527  -0.0001423   0.0038910   0.0004235   0.0000271  -0.0001171
           25          26          27
    1   0.0000947   0.0013538  -0.0030859
    2  -0.0031306  -0.0020620   0.0001615
    3  -0.0029022   0.0034664  -0.0001890
 Max gradient component =       2.154E-02
 RMS gradient           =       6.021E-03
 Gradient time:  CPU 364.99 s  wall 22.70 s
 Geometry Optimization Parameters
   NAtoms,    NIC,     NZ,  NCons,   NDum,   NFix, NCnnct, MaxDiis
       27     173       0       2       0       0       0       0


** CONSTRAINED OPTIMIZATION IN DELOCALIZED INTERNAL COORDINATES **
   Searching for a Minimum

   Optimization Cycle:   1

                       Coordinates (Angstroms)
     ATOM                X               Y               Z
      1  C         0.4276448099   -0.8415736243   -0.0588692333
      2  C        -0.8060843738   -0.1694900882   -0.1153229467
      3  C         1.7108516923   -0.1157460900   -0.2752773829
      4  C        -0.8586766063    1.2982395328   -0.2659510208
      5  O         2.7440659004   -0.8386462100    0.2293698371
      6  O         1.8151246914    0.9559824043   -0.8463747267
      7  O        -0.3462610882    1.8472865541    0.8641338013
      8  O        -1.3960448180    1.8760408395   -1.1942408759
      9  C        -0.3453536797    3.2741738433    0.8499267384
     10  C         4.0219453492   -0.2207266872    0.0636122501
     11  C         0.4347697576   -2.2356355990    0.1279500539
     12  C        -0.7617862935   -2.9413211965    0.2541144457
     13  C        -1.9807647890   -2.2699771573    0.1874690522
     14  C        -2.0220088454   -0.8801964136    0.0044651935
     15  H         0.2409006342    3.6507951732    0.0054285126
     16  H         4.2682047510   -0.1351699828   -0.9988007380
     17  H        -2.9041102496   -2.8410186193    0.2801232975
     18  H        -1.3703322120    3.6561049330    0.8116037554
     19  H         0.1193667722    3.6218521173    1.7762548225
     20  H         4.7702630880   -0.8580083794    0.5428727289
     21  H         4.0413877155    0.7607414868    0.5480265539
     22  H        -0.7435362013   -4.0202578732    0.3939414170
     23  H         1.3701157423   -2.7903072772    0.1584823066
     24  C        -3.3565948521   -0.1864117253   -0.0591272334
     25  H        -3.5169381685    0.2431909134   -1.0520807034
     26  H        -3.4152264497    0.6020259728    0.6980684692
     27  H        -4.1788259208   -0.8832659350    0.1350357913
   Point Group: c1    Number of degrees of freedom:    75


   Energy is   -727.541952266

              Constraints and their Current Values
                                        Value     Constraint
   Dihedral:        2   1   3   5      160.883      163.600
   Dihedral:        1   2   4   7      -66.511      -67.300

 Attempting to Generate Delocalized Internal Coordinates

   Using Lagrange Multiplier Algorithm


 77 Hessian modes will be used to form the next step
  Hessian Eigenvalues:
    -0.977753   -0.977753    0.045000    0.045000    0.045000    0.045000
     0.045000    0.045000    0.045000    0.045000    0.045000    0.045001
     0.045002    0.045007    0.045012    0.045014    0.045073    0.045391
     0.094103    0.094233    0.113874    0.113890    0.116885    0.116948
     0.159973    0.159992    0.160000    0.160000    0.160000    0.160000
     0.160000    0.160000    0.160000    0.160000    0.160000    0.160000
     0.220831    0.234483    0.248788    0.249003    0.249488    0.249924
     0.249954    0.250000    0.250000    0.250000    0.250000    0.250000
     0.318081    0.334430    0.342234    0.342572    0.342726    0.342778
     0.342982    0.343623    0.343862    0.344084    0.344536    0.348583
     0.349879    0.350317    0.350597    0.408825    0.411215    0.413739
     0.414295    0.441969    0.449403    0.456885    0.464260    0.533072
     0.535839    0.958888    0.961246    1.022753    1.022753

 Minimum Search - Taking P-RFO Step
 Searching for Lamda that Maximizes Along the Constraint modes Only
 Value Taken    Lamda =   0.00129499
 Searching for Lamda that Minimizes Along All other modes
 Value Taken    Lamda =  -0.01100436
 Step Taken.  Stepsize is  0.212299

                             Maximum     Tolerance    Cnvgd?
         Gradient            0.047425       0.000300      NO
         Displacement        0.081979       0.000001      NO
         Energy change     *********       0.000001      NO


 New Cartesian Coordinates Obtained by Inverse Iteration

 Displacement from previous Coordinates is:  0.590263
 Adding empirical dispersion correction 
 ----------------------------------------------------------------
 Doing -D3(op) with
 s6 =   1.00000
 s8 =   0.78311
 a1 =   0.30000
 a2 =   4.25000
 n  =  10.00000
 -D3 energy without 3body term =     -0.0279140413 hartrees
 ----------------------------------------------------------------
             Standard Nuclear Orientation (Angstroms)
    I     Atom           X                Y                Z
 ----------------------------------------------------------------
    1      C       0.4158896799    -0.8888163930    -0.0084548016
    2      C      -0.8117043631    -0.2046092203    -0.0715451162
    3      C       1.6939111997    -0.1448783947    -0.2112975982
    4      C      -0.8619909205     1.2896581676    -0.2154341415
    5      O       2.7724271270    -0.8381995655     0.2206235146
    6      O       1.7872302478     0.9349756008    -0.7463666658
    7      O      -0.3908712918     1.9111271738     0.8889823652
    8      O      -1.3371697243     1.8812591760    -1.1519699211
    9      C      -0.3483353550     3.3458578472     0.8331838010
   10      C       4.0464384540    -0.2061487925     0.0253497536
   11      C       0.4269310216    -2.2794514896     0.1481554596
   12      C      -0.7694539038    -2.9770858163     0.2424856983
   13      C      -1.9809785499    -2.2946569718     0.1713691808
   14      C      -2.0263087065    -0.9072169659     0.0104451252
   15      H       0.2780031344     3.6753885963     0.0027546012
   16      H       4.2575489772    -0.0772411252    -1.0377609462
   17      H      -2.9107972477    -2.8486576549     0.2394300426
   18      H      -1.3530885196     3.7600740752     0.7290214317
   19      H       0.0887377417     3.6682708559     1.7776381532
   20      H       4.7784851884    -0.8798907144     0.4691175773
   21      H       4.0800946596     0.7615346727     0.5280504332
   22      H      -0.7575668168    -4.0545812698     0.3616451188
   23      H       1.3667638967    -2.8128978050     0.1791989355
   24      C      -3.3591995348    -0.1987746841    -0.0663944065
   25      H      -3.5056279253     0.2615876597    -1.0453198892
   26      H      -3.4421778708     0.5866336753     0.6898880960
   27      H      -4.1750942418    -0.9045797254     0.1020383646
 ----------------------------------------------------------------
 Molecular Point Group                 C1    NOp =  1
 Largest Abelian Subgroup              C1    NOp =  1
 Nuclear Repulsion Energy =  1007.1905629946 hartrees
 There are       55 alpha and       55 beta electrons
 Applying Cartesian multipole field
    Component          Value
    ---------          -----
     (2,0,0)        1.00000E-11
     (0,2,0)        2.00000E-11
     (0,0,2)       -3.00000E-11
 Nucleus-field energy     =     0.0000000378 hartrees
 Requested basis set is 6-311++G(d,p)
 There are 150 shells and 414 basis functions
 A cutoff of  1.0D-12 yielded   9158 shell pairs
 There are     72041 function pairs (     77132 Cartesian)
 Smallest overlap matrix eigenvalue = 1.27E-07
 Linear dependence detected in AO basis
 Number of orthogonalized atomic orbitals = 411
 Maximum deviation from orthogonality = 1.126E-10
 Guess MOs from SCF MO coefficient file
 Reading MOs from coefficient file
 Reading MOs from coefficient file
 A restricted hybrid HF-DFT SCF calculation will be
 performed using Pulay DIIS extrapolation
 Exchange:     0.2000 Hartree-Fock + 0.0800 Slater + 0.7200 B88
 Correlation:  0.1900 VWN1RPA + 0.8100 LYP
 Using SG-1 standard quadrature grid
 Dispersion:   Grimme D3
 SCF converges when DIIS error is below 1.0E-08
 Geometry optimization detected.  Setting ReadMinima to 0
 Setting SaveMinima to 0
 -------------------------------------------------------
 OpenMP Integral computing Module                
 Release: version 1.0, May 2013, Q-Chem Inc. Pittsburgh 
 -------------------------------------------------------
 -------------------------------------------------------
 OpenMP BLAS3 based DFT computing Module                
 Release: version 1.0, May 2013, Q-Chem Inc. Pittsburgh 
 -------------------------------------------------------
 ---------------------------------------
  Cycle       Energy         DIIS Error
 ---------------------------------------
    1    -727.5793544622      1.25E-03
    2    -727.5450683715      2.83E-04
    3    -727.5418803855      5.35E-04
    4    -727.5465531250      8.32E-05
    5    -727.5466549762      2.88E-05
    6    -727.5466675204      7.73E-06
    7    -727.5466683810      2.51E-06
    8    -727.5466684770      9.65E-07
    9    -727.5466684930      3.35E-07
   10    -727.5466684949      1.14E-07
   11    -727.5466684950      3.85E-08
   12    -727.5466684951      2.11E-08
   13    -727.5466684951      4.10E-09 Convergence criterion met
 ---------------------------------------
 SCF time:  CPU 1071.67 s  wall 53.42 s
 SCF   energy in the final basis set = -727.5466684951
 Total energy in the final basis set = -727.5466684951
 
 --------------------------------------------------------------
 
                    Orbital Energies (a.u.)
 --------------------------------------------------------------
 
 Alpha MOs
 -- Occupied --
-19.177 -19.168 -19.119 -19.113 -10.313 -10.307 -10.232 -10.222
-10.209 -10.208 -10.206 -10.193 -10.193 -10.192 -10.174  -1.119
 -1.109  -1.031  -1.023  -0.886  -0.802  -0.791  -0.747  -0.726
 -0.700  -0.654  -0.625  -0.580  -0.571  -0.543  -0.519  -0.504
 -0.493  -0.487  -0.480  -0.478  -0.464  -0.444  -0.435  -0.429
 -0.423  -0.415  -0.402  -0.394  -0.381  -0.372  -0.368  -0.367
 -0.357  -0.320  -0.306  -0.295  -0.289  -0.271  -0.263
 -- Virtual --
 -0.065  -0.036  -0.011  -0.003   0.001   0.009   0.013   0.020
  0.028   0.029   0.031   0.035   0.043   0.046   0.049   0.055
  0.063   0.064   0.070   0.079   0.086   0.089   0.095   0.103
  0.105   0.107   0.110   0.115   0.117   0.118   0.125   0.127
  0.128   0.134   0.135   0.139   0.143   0.145   0.150   0.154
  0.156   0.159   0.162   0.166   0.170   0.177   0.178   0.182
  0.185   0.191   0.197   0.200   0.206   0.209   0.211   0.215
  0.220   0.228   0.234   0.238   0.244   0.255   0.259   0.264
  0.273   0.277   0.281   0.285   0.290   0.293   0.298   0.300
  0.305   0.308   0.311   0.312   0.320   0.330   0.333   0.342
  0.345   0.355   0.356   0.359   0.367   0.368   0.380   0.384
  0.386   0.395   0.403   0.406   0.412   0.426   0.434   0.441
  0.459   0.469   0.474   0.493   0.500   0.509   0.522   0.527
  0.537   0.542   0.549   0.569   0.575   0.582   0.593   0.596
  0.603   0.608   0.617   0.627   0.634   0.641   0.652   0.653
  0.660   0.665   0.670   0.678   0.685   0.693   0.696   0.705
  0.712   0.719   0.726   0.738   0.748   0.754   0.761   0.772
  0.785   0.789   0.809   0.840   0.850   0.856   0.864   0.883
  0.905   0.911   0.918   0.934   0.938   0.964   0.971   0.990
  1.010   1.020   1.035   1.044   1.054   1.065   1.068   1.074
  1.111   1.113   1.138   1.141   1.178   1.194   1.215   1.217
  1.232   1.241   1.248   1.283   1.289   1.309   1.329   1.352
  1.363   1.372   1.379   1.390   1.410   1.425   1.436   1.443
  1.459   1.461   1.482   1.488   1.511   1.520   1.528   1.531
  1.548   1.555   1.564   1.572   1.581   1.588   1.606   1.622
  1.636   1.642   1.656   1.674   1.695   1.702   1.703   1.710
  1.718   1.726   1.739   1.751   1.764   1.775   1.787   1.800
  1.814   1.829   1.859   1.870   1.883   1.899   1.914   1.931
  1.950   1.960   1.976   2.002   2.010   2.024   2.030   2.065
  2.092   2.106   2.110   2.131   2.143   2.150   2.177   2.191
  2.194   2.237   2.257   2.304   2.324   2.382   2.402   2.436
  2.440   2.453   2.480   2.491   2.498   2.508   2.526   2.537
  2.550   2.556   2.568   2.582   2.587   2.593   2.643   2.654
  2.662   2.675   2.689   2.711   2.727   2.734   2.755   2.773
  2.793   2.813   2.825   2.827   2.839   2.860   2.870   2.886
  2.896   2.904   2.930   2.940   2.967   3.002   3.026   3.036
  3.056   3.069   3.092   3.105   3.122   3.160   3.178   3.209
  3.225   3.233   3.263   3.302   3.316   3.365   3.379   3.398
  3.431   3.526   3.537   3.597   3.617   3.633   3.693   3.730
  3.775   3.793   3.804   3.815   3.842   3.848   3.913   4.034
  4.054   4.065   4.100   4.130   4.144   4.263   4.338   4.365
  4.846   5.025   5.044   5.119   5.131   5.239   5.284   5.369
  5.401   5.621   5.651   5.863   5.891  23.560  23.838  23.862
 23.913  23.929  23.934  23.943  23.980  24.057  24.074  24.170
 49.893  49.906  50.012  50.036
 --------------------------------------------------------------
 
          Ground-State Mulliken Net Atomic Charges

     Atom                 Charge (a.u.)
  ----------------------------------------
      1 C                     0.184359
      2 C                     0.726560
      3 C                    -0.129729
      4 C                    -0.814179
      5 O                    -0.081209
      6 O                    -0.215955
      7 O                     0.053079
      8 O                    -0.158206
      9 C                    -0.231745
     10 C                    -0.223812
     11 C                    -0.386732
     12 C                    -0.071582
     13 C                    -0.570008
     14 C                     0.421431
     15 H                     0.192422
     16 H                     0.187058
     17 H                     0.120672
     18 H                     0.162629
     19 H                     0.151622
     20 H                     0.157939
     21 H                     0.175653
     22 H                     0.182873
     23 H                     0.177855
     24 C                    -0.537655
     25 H                     0.196482
     26 H                     0.174474
     27 H                     0.155706
  ----------------------------------------
  Sum of atomic charges =     0.000000

 -----------------------------------------------------------------
                    Cartesian Multipole Moments
 -----------------------------------------------------------------
    Charge (ESU x 10^10)
                 0.0000
    Dipole Moment (Debye)
         X       0.7189      Y      -1.8260      Z       2.1654
       Tot       2.9223
    Quadrupole Moments (Debye-Ang)
        XX     -73.0077     XY       2.1298     YY     -79.0822
        XZ      -1.6998     YZ       6.3512     ZZ     -94.0250
    Octopole Moments (Debye-Ang^2)
       XXX      50.5653    XXY      -7.5706    XYY      -0.1761
       YYY      22.3747    XXZ       3.4494    XYZ      -1.1155
       YYZ      18.3099    XZZ      11.1470    YZZ       7.3750
       ZZZ      -4.0894
    Hexadecapole Moments (Debye-Ang^3)
      XXXX   -1938.4511   XXXY      -5.2198   XXYY    -658.1705
      XYYY       2.7050   YYYY   -1546.9764   XXXZ       1.9857
      XXYZ      11.4385   XYYZ     -12.9633   YYYZ      25.8021
      XXZZ    -424.3304   XYZZ      -4.5350   YYZZ    -351.6294
      XZZZ      -0.3939   YZZZ       8.5824   ZZZZ    -250.1452
 -----------------------------------------------------------------
 Calculating analytic gradient of the SCF energy
 Gradient of SCF Energy
            1           2           3           4           5           6
    1  -0.0003835  -0.0020823  -0.0036481   0.0002543   0.0036729   0.0016820
    2   0.0006987  -0.0006155   0.0012518  -0.0083966   0.0008156  -0.0016942
    3   0.0001630  -0.0006537   0.0030795  -0.0027620  -0.0017246  -0.0011591
            7           8           9          10          11          12
    1   0.0002551   0.0008135  -0.0009414  -0.0035776  -0.0001185   0.0010701
    2   0.0053794   0.0032844  -0.0027022   0.0009294   0.0001629  -0.0000660
    3   0.0002895   0.0018337  -0.0012311  -0.0006200  -0.0003538   0.0004428
           13          14          15          16          17          18
    1  -0.0012026   0.0003911   0.0008698   0.0012045   0.0004062  -0.0001624
    2   0.0008676  -0.0012779   0.0008150  -0.0009491  -0.0002341   0.0006927
    3  -0.0000268   0.0003425   0.0007720  -0.0000320  -0.0002053   0.0012773
           19          20          21          22          23          24
    1   0.0002650   0.0012093   0.0008728   0.0003585  -0.0009496   0.0009234
    2   0.0017900   0.0003013  -0.0003551  -0.0000641  -0.0012310   0.0022110
    3   0.0001509   0.0000711   0.0009290   0.0000083  -0.0003690  -0.0006401
           25          26          27
    1  -0.0005454  -0.0003952  -0.0002420
    2  -0.0010125  -0.0007322   0.0001307
    3  -0.0002893   0.0007734  -0.0000664
 Max gradient component =       8.397E-03
 RMS gradient           =       1.688E-03
 Gradient time:  CPU 365.18 s  wall 22.20 s
 Geometry Optimization Parameters
   NAtoms,    NIC,     NZ,  NCons,   NDum,   NFix, NCnnct, MaxDiis
       27     173       0       2       0       0       0       0

 Cartesian Hessian Update
 Hessian Updated using BFGS Update


** CONSTRAINED OPTIMIZATION IN DELOCALIZED INTERNAL COORDINATES **
   Searching for a Minimum

   Optimization Cycle:   2

                       Coordinates (Angstroms)
     ATOM                X               Y               Z
      1  C         0.4158896799   -0.8888163930   -0.0084548016
      2  C        -0.8117043631   -0.2046092203   -0.0715451162
      3  C         1.6939111997   -0.1448783947   -0.2112975982
      4  C        -0.8619909205    1.2896581676   -0.2154341415
      5  O         2.7724271270   -0.8381995655    0.2206235146
      6  O         1.7872302478    0.9349756008   -0.7463666658
      7  O        -0.3908712918    1.9111271738    0.8889823652
      8  O        -1.3371697243    1.8812591760   -1.1519699211
      9  C        -0.3483353550    3.3458578472    0.8331838010
     10  C         4.0464384540   -0.2061487925    0.0253497536
     11  C         0.4269310216   -2.2794514896    0.1481554596
     12  C        -0.7694539038   -2.9770858163    0.2424856983
     13  C        -1.9809785499   -2.2946569718    0.1713691808
     14  C        -2.0263087065   -0.9072169659    0.0104451252
     15  H         0.2780031344    3.6753885963    0.0027546012
     16  H         4.2575489772   -0.0772411252   -1.0377609462
     17  H        -2.9107972477   -2.8486576549    0.2394300426
     18  H        -1.3530885196    3.7600740752    0.7290214317
     19  H         0.0887377417    3.6682708559    1.7776381532
     20  H         4.7784851884   -0.8798907144    0.4691175773
     21  H         4.0800946596    0.7615346727    0.5280504332
     22  H        -0.7575668168   -4.0545812698    0.3616451188
     23  H         1.3667638967   -2.8128978050    0.1791989355
     24  C        -3.3591995348   -0.1987746841   -0.0663944065
     25  H        -3.5056279253    0.2615876597   -1.0453198892
     26  H        -3.4421778708    0.5866336753    0.6898880960
     27  H        -4.1750942418   -0.9045797254    0.1020383646
   Point Group: c1    Number of degrees of freedom:    75


   Energy is   -727.546668495

              Constraints and their Current Values
                                        Value     Constraint
   Dihedral:        2   1   3   5      163.584      163.600
   Dihedral:        1   2   4   7      -67.296      -67.300
 Hessian Updated using BFGS Update

   Using Lagrange Multiplier Algorithm


 65 Hessian modes will be used to form the next step
  Hessian Eigenvalues:
    -0.978007   -0.977550    0.043897    0.045000    0.045000    0.045000
     0.045000    0.045000    0.045001    0.045002    0.045007    0.045012
     0.045044    0.045076    0.045773    0.093334    0.094225    0.112245
     0.113885    0.116876    0.116950    0.150061    0.159978    0.159993
     0.160000    0.161097    0.220791    0.233396    0.247492    0.249050
     0.249486    0.249550    0.249954    0.249968    0.250000    0.305985
     0.319460    0.334918    0.342149    0.342409    0.342679    0.342731
     0.342906    0.343482    0.343737    0.343901    0.344366    0.348634
     0.350289    0.350547    0.359613    0.408741    0.410717    0.413306
     0.415902    0.441608    0.448917    0.456758    0.465619    0.530729
     0.535569    0.957577    0.960035    1.022662    1.023416

 Minimum Search - Taking P-RFO Step
 Searching for Lamda that Maximizes Along the Constraint modes Only
 Value Taken    Lamda =   0.00000271
 Searching for Lamda that Minimizes Along All other modes
 Value Taken    Lamda =  -0.00067543
 Step Taken.  Stepsize is  0.076015

                             Maximum     Tolerance    Cnvgd?
         Gradient            0.004152       0.000300      NO
         Displacement        0.026216       0.000001      NO
         Energy change     -0.004716       0.000001      NO


 New Cartesian Coordinates Obtained by Inverse Iteration

 Displacement from previous Coordinates is:  0.164490
 Adding empirical dispersion correction 
 ----------------------------------------------------------------
 Doing -D3(op) with
 s6 =   1.00000
 s8 =   0.78311
 a1 =   0.30000
 a2 =   4.25000
 n  =  10.00000
 -D3 energy without 3body term =     -0.0279867933 hartrees
 ----------------------------------------------------------------
             Standard Nuclear Orientation (Angstroms)
    I     Atom           X                Y                Z
 ----------------------------------------------------------------
    1      C       0.4148771929    -0.8815327293    -0.0116076800
    2      C      -0.8135096231    -0.2000604518    -0.0708962045
    3      C       1.6895704315    -0.1349633325    -0.2125035276
    4      C      -0.8738223204     1.2942016404    -0.2160280849
    5      O       2.7602780043    -0.8369095542     0.2185048767
    6      O       1.7775587454     0.9578200936    -0.7212149148
    7      O      -0.4012482754     1.9062072357     0.8883341941
    8      O      -1.3495432068     1.8726912721    -1.1595370584
    9      C      -0.3377511379     3.3398359607     0.8264878966
   10      C       4.0395798934    -0.2115410780     0.0307526735
   11      C       0.4330916941    -2.2709276844     0.1430057942
   12      C      -0.7611082505    -2.9735185575     0.2361252632
   13      C      -1.9737433283    -2.2939473529     0.1695970530
   14      C      -2.0249726392    -0.9062704620     0.0117997404
   15      H       0.2974206860     3.6493367051    -0.0043523703
   16      H       4.2443828246    -0.0708409554    -1.0317277754
   17      H      -2.9035656425    -2.8476374354     0.2406013012
   18      H      -1.3356177489     3.7640206712     0.7041256363
   19      H       0.0954229283     3.6485351902     1.7757872210
   20      H       4.7608692329    -0.8974177695     0.4706094766
   21      H       4.0720941429     0.7541310111     0.5364121299
   22      H      -0.7480157033    -4.0507174368     0.3547111716
   23      H       1.3806271450    -2.7902504045     0.1758851312
   24      C      -3.3599871177    -0.2021312167    -0.0594325441
   25      H      -3.5065553380     0.2655210864    -1.0348820440
   26      H      -3.4408749225     0.5852693011     0.6948353878
   27      H      -4.1733613111    -0.9102228346     0.1094414225
 ----------------------------------------------------------------
 Molecular Point Group                 C1    NOp =  1
 Largest Abelian Subgroup              C1    NOp =  1
 Nuclear Repulsion Energy =  1008.5045504412 hartrees
 There are       55 alpha and       55 beta electrons
 Applying Cartesian multipole field
    Component          Value
    ---------          -----
     (2,0,0)        1.00000E-11
     (0,2,0)        2.00000E-11
     (0,0,2)       -3.00000E-11
 Nucleus-field energy     =     0.0000000377 hartrees
 Requested basis set is 6-311++G(d,p)
 There are 150 shells and 414 basis functions
 A cutoff of  1.0D-12 yielded   9165 shell pairs
 There are     72099 function pairs (     77202 Cartesian)
 Smallest overlap matrix eigenvalue = 1.28E-07
 Linear dependence detected in AO basis
 Number of orthogonalized atomic orbitals = 411
 Maximum deviation from orthogonality = 2.150E-10
 Guess MOs from SCF MO coefficient file
 Reading MOs from coefficient file
 Reading MOs from coefficient file
 A restricted hybrid HF-DFT SCF calculation will be
 performed using Pulay DIIS extrapolation
 Exchange:     0.2000 Hartree-Fock + 0.0800 Slater + 0.7200 B88
 Correlation:  0.1900 VWN1RPA + 0.8100 LYP
 Using SG-1 standard quadrature grid
 Dispersion:   Grimme D3
 SCF converges when DIIS error is below 1.0E-08
 Geometry optimization detected.  Setting ReadMinima to 0
 Setting SaveMinima to 0
 -------------------------------------------------------
 OpenMP Integral computing Module                
 Release: version 1.0, May 2013, Q-Chem Inc. Pittsburgh 
 -------------------------------------------------------
 -------------------------------------------------------
 OpenMP BLAS3 based DFT computing Module                
 Release: version 1.0, May 2013, Q-Chem Inc. Pittsburgh 
 -------------------------------------------------------
 ---------------------------------------
  Cycle       Energy         DIIS Error
 ---------------------------------------
    1    -727.5579545998      3.50E-04
    2    -727.5469717646      5.04E-05
    3    -727.5468788994      8.55E-05
    4    -727.5470314720      1.53E-05
    5    -727.5470351808      6.48E-06
    6    -727.5470356742      2.94E-06
    7    -727.5470358123      7.55E-07
    8    -727.5470358217      3.19E-07
    9    -727.5470358233      5.45E-08
   10    -727.5470358233      2.02E-08
   11    -727.5470358234      7.96E-09 Convergence criterion met
 ---------------------------------------
 SCF time:  CPU 899.16 s  wall 45.15 s
 SCF   energy in the final basis set = -727.5470358234
 Total energy in the final basis set = -727.5470358234
 
 --------------------------------------------------------------
 
                    Orbital Energies (a.u.)
 --------------------------------------------------------------
 
 Alpha MOs
 -- Occupied --
-19.178 -19.168 -19.119 -19.113 -10.312 -10.306 -10.232 -10.222
-10.208 -10.207 -10.205 -10.192 -10.192 -10.191 -10.174  -1.120
 -1.110  -1.032  -1.025  -0.886  -0.802  -0.790  -0.747  -0.726
 -0.700  -0.653  -0.624  -0.580  -0.572  -0.544  -0.519  -0.504
 -0.494  -0.488  -0.479  -0.478  -0.463  -0.444  -0.434  -0.429
 -0.423  -0.415  -0.402  -0.394  -0.381  -0.372  -0.369  -0.366
 -0.358  -0.321  -0.307  -0.294  -0.289  -0.271  -0.262
 -- Virtual --
 -0.064  -0.035  -0.011  -0.003   0.001   0.009   0.013   0.020
  0.028   0.030   0.031   0.036   0.043   0.046   0.049   0.055
  0.063   0.064   0.070   0.079   0.086   0.089   0.095   0.103
  0.105   0.107   0.111   0.115   0.117   0.119   0.125   0.127
  0.128   0.134   0.135   0.139   0.143   0.145   0.150   0.154
  0.156   0.160   0.162   0.166   0.170   0.177   0.178   0.183
  0.185   0.191   0.197   0.200   0.206   0.209   0.212   0.215
  0.221   0.228   0.234   0.239   0.244   0.256   0.260   0.265
  0.274   0.277   0.282   0.285   0.290   0.294   0.298   0.301
  0.305   0.308   0.311   0.312   0.321   0.330   0.333   0.342
  0.345   0.355   0.357   0.360   0.367   0.368   0.380   0.384
  0.386   0.395   0.402   0.406   0.413   0.427   0.434   0.442
  0.459   0.469   0.474   0.492   0.500   0.510   0.522   0.528
  0.538   0.542   0.550   0.570   0.576   0.583   0.594   0.597
  0.603   0.608   0.618   0.627   0.634   0.641   0.652   0.654
  0.661   0.665   0.670   0.678   0.685   0.693   0.697   0.703
  0.712   0.720   0.727   0.738   0.749   0.755   0.761   0.773
  0.786   0.790   0.809   0.842   0.850   0.857   0.865   0.886
  0.906   0.912   0.918   0.934   0.939   0.966   0.973   0.991
  1.011   1.020   1.036   1.045   1.054   1.067   1.069   1.074
  1.113   1.114   1.139   1.142   1.174   1.194   1.215   1.216
  1.233   1.241   1.250   1.281   1.289   1.309   1.329   1.352
  1.364   1.374   1.382   1.392   1.412   1.426   1.434   1.443
  1.458   1.462   1.483   1.488   1.513   1.521   1.527   1.531
  1.547   1.554   1.565   1.571   1.581   1.589   1.605   1.625
  1.637   1.642   1.656   1.675   1.694   1.702   1.704   1.712
  1.720   1.727   1.741   1.750   1.763   1.776   1.788   1.802
  1.816   1.831   1.860   1.873   1.883   1.901   1.918   1.932
  1.950   1.961   1.975   2.000   2.010   2.021   2.028   2.068
  2.093   2.107   2.107   2.130   2.141   2.150   2.178   2.193
  2.195   2.239   2.259   2.306   2.326   2.383   2.404   2.438
  2.442   2.455   2.482   2.493   2.500   2.512   2.526   2.540
  2.553   2.558   2.569   2.580   2.586   2.594   2.646   2.654
  2.663   2.676   2.688   2.712   2.728   2.735   2.756   2.775
  2.795   2.815   2.825   2.828   2.840   2.861   2.871   2.884
  2.898   2.904   2.930   2.941   2.968   3.004   3.028   3.037
  3.055   3.069   3.092   3.107   3.123   3.163   3.182   3.211
  3.227   3.237   3.269   3.308   3.319   3.367   3.382   3.399
  3.433   3.529   3.539   3.593   3.619   3.633   3.695   3.730
  3.771   3.791   3.800   3.820   3.850   3.856   3.917   4.036
  4.054   4.066   4.102   4.130   4.147   4.265   4.341   4.367
  4.848   5.025   5.042   5.120   5.132   5.238   5.285   5.372
  5.404   5.627   5.655   5.863   5.893  23.562  23.841  23.866
 23.914  23.930  23.936  23.945  23.981  24.062  24.076  24.173
 49.893  49.907  50.013  50.039
 --------------------------------------------------------------
 
          Ground-State Mulliken Net Atomic Charges

     Atom                 Charge (a.u.)
  ----------------------------------------
      1 C                     0.186479
      2 C                     0.708935
      3 C                    -0.118522
      4 C                    -0.808760
      5 O                    -0.080756
      6 O                    -0.221141
      7 O                     0.057878
      8 O                    -0.158526
      9 C                    -0.229107
     10 C                    -0.221822
     11 C                    -0.379255
     12 C                    -0.082164
     13 C                    -0.572867
     14 C                     0.422408
     15 H                     0.192692
     16 H                     0.187790
     17 H                     0.119512
     18 H                     0.161879
     19 H                     0.151454
     20 H                     0.157516
     21 H                     0.175647
     22 H                     0.182839
     23 H                     0.177042
     24 C                    -0.536133
     25 H                     0.196440
     26 H                     0.174802
     27 H                     0.155740
  ----------------------------------------
  Sum of atomic charges =     0.000000

 -----------------------------------------------------------------
                    Cartesian Multipole Moments
 -----------------------------------------------------------------
    Charge (ESU x 10^10)
                 0.0000
    Dipole Moment (Debye)
         X       0.8063      Y      -1.7802      Z       2.1590
       Tot       2.9121
    Quadrupole Moments (Debye-Ang)
        XX     -73.0489     XY       2.0082     YY     -79.2342
        XZ      -1.7422     YZ       6.2858     ZZ     -93.9318
    Octopole Moments (Debye-Ang^2)
       XXX      51.4792    XXY      -8.1023    XYY       0.1310
       YYY      22.1216    XXZ       3.5892    XYZ      -1.2095
       YYZ      18.1153    XZZ      11.7008    YZZ       7.2951
       ZZZ      -4.0105
    Hexadecapole Moments (Debye-Ang^3)
      XXXX   -1936.0564   XXXY      -6.6875   XXYY    -656.0895
      XYYY       2.1659   YYYY   -1546.1752   XXXZ       0.9059
      XXYZ      10.7719   XYYZ     -12.9051   YYYZ      25.1752
      XXZZ    -423.0516   XYZZ      -4.1062   YYZZ    -350.5937
      XZZZ      -1.9094   YZZZ       8.9780   ZZZZ    -248.2737
 -----------------------------------------------------------------
 Calculating analytic gradient of the SCF energy
 Gradient of SCF Energy
            1           2           3           4           5           6
    1   0.0002489  -0.0005865  -0.0007582  -0.0013693   0.0014081  -0.0003906
    2  -0.0002775  -0.0003337   0.0008698  -0.0015901  -0.0001643  -0.0010236
    3   0.0011184  -0.0000288  -0.0003787  -0.0022339  -0.0002659   0.0000713
            7           8           9          10          11          12
    1   0.0012743   0.0007127  -0.0005794  -0.0013749   0.0004428   0.0002459
    2   0.0028354   0.0000687  -0.0014247   0.0004904   0.0006185   0.0000791
    3   0.0013212   0.0009257  -0.0008708  -0.0001073  -0.0003441   0.0000526
           13          14          15          16          17          18
    1  -0.0001400   0.0002313   0.0000075   0.0001837   0.0002155   0.0000199
    2   0.0004528  -0.0006658   0.0001057  -0.0003284   0.0001888   0.0000263
    3   0.0000117   0.0000496   0.0002252   0.0001148  -0.0001214   0.0003316
           19          20          21          22          23          24
    1   0.0001666  -0.0000212   0.0001129   0.0001502  -0.0002376   0.0004107
    2  -0.0002043  -0.0001826  -0.0002399   0.0001752  -0.0001374   0.0013537
    3   0.0001927   0.0001892   0.0000882   0.0000223  -0.0002310  -0.0003085
           25          26          27
    1  -0.0001803  -0.0002021   0.0000091
    2  -0.0003000  -0.0003125  -0.0000795
    3   0.0000759   0.0000873   0.0000126
 Max gradient component =       2.835E-03
 RMS gradient           =       6.919E-04
 Gradient time:  CPU 365.26 s  wall 22.34 s
 Geometry Optimization Parameters
   NAtoms,    NIC,     NZ,  NCons,   NDum,   NFix, NCnnct, MaxDiis
       27     173       0       2       0       0       0       0

 Cartesian Hessian Update
 Hessian Updated using BFGS Update


** CONSTRAINED OPTIMIZATION IN DELOCALIZED INTERNAL COORDINATES **
   Searching for a Minimum

   Optimization Cycle:   3

                       Coordinates (Angstroms)
     ATOM                X               Y               Z
      1  C         0.4148771929   -0.8815327293   -0.0116076800
      2  C        -0.8135096231   -0.2000604518   -0.0708962045
      3  C         1.6895704315   -0.1349633325   -0.2125035276
      4  C        -0.8738223204    1.2942016404   -0.2160280849
      5  O         2.7602780043   -0.8369095542    0.2185048767
      6  O         1.7775587454    0.9578200936   -0.7212149148
      7  O        -0.4012482754    1.9062072357    0.8883341941
      8  O        -1.3495432068    1.8726912721   -1.1595370584
      9  C        -0.3377511379    3.3398359607    0.8264878966
     10  C         4.0395798934   -0.2115410780    0.0307526735
     11  C         0.4330916941   -2.2709276844    0.1430057942
     12  C        -0.7611082505   -2.9735185575    0.2361252632
     13  C        -1.9737433283   -2.2939473529    0.1695970530
     14  C        -2.0249726392   -0.9062704620    0.0117997404
     15  H         0.2974206860    3.6493367051   -0.0043523703
     16  H         4.2443828246   -0.0708409554   -1.0317277754
     17  H        -2.9035656425   -2.8476374354    0.2406013012
     18  H        -1.3356177489    3.7640206712    0.7041256363
     19  H         0.0954229283    3.6485351902    1.7757872210
     20  H         4.7608692329   -0.8974177695    0.4706094766
     21  H         4.0720941429    0.7541310111    0.5364121299
     22  H        -0.7480157033   -4.0507174368    0.3547111716
     23  H         1.3806271450   -2.7902504045    0.1758851312
     24  C        -3.3599871177   -0.2021312167   -0.0594325441
     25  H        -3.5065553380    0.2655210864   -1.0348820440
     26  H        -3.4408749225    0.5852693011    0.6948353878
     27  H        -4.1733613111   -0.9102228346    0.1094414225
   Point Group: c1    Number of degrees of freedom:    75


   Energy is   -727.547035823

              Constraints and their Current Values
                                        Value     Constraint
   Dihedral:        2   1   3   5      163.600      163.600
   Dihedral:        1   2   4   7      -67.300      -67.300
 Hessian Updated using BFGS Update

 59 Hessian modes will be used to form the next step
  Hessian Eigenvalues:
     0.036682    0.045000    0.045000    0.045001    0.045002    0.045003
     0.045007    0.045021    0.045065    0.045715    0.046596    0.090483
     0.094224    0.108138    0.113898    0.116869    0.116949    0.154894
     0.159983    0.159996    0.160554    0.162071    0.220524    0.234935
     0.244194    0.249032    0.249478    0.249730    0.249967    0.249988
     0.250764    0.295878    0.318106    0.339944    0.342211    0.342462
     0.342683    0.342790    0.342919    0.343484    0.343822    0.343978
     0.344348    0.348617    0.350302    0.350601    0.361219    0.408803
     0.410846    0.413381    0.436407    0.444288    0.456325    0.459266
     0.467415    0.516947    0.534129    0.956753    0.959717

 Minimum Search - Taking Simple RFO Step
 Searching for Lamda that Minimizes Along All modes
 Value Taken    Lamda =  -0.00010598
 Step Taken.  Stepsize is  0.041546

                             Maximum     Tolerance    Cnvgd?
         Gradient           0.001206      0.000300      NO
         Displacement       0.017916      0.000001      NO
         Energy change     -0.000367      0.000001      NO


 New Cartesian Coordinates Obtained by Inverse Iteration

 Displacement from previous Coordinates is:  0.094788
 Adding empirical dispersion correction 
 ----------------------------------------------------------------
 Doing -D3(op) with
 s6 =   1.00000
 s8 =   0.78311
 a1 =   0.30000
 a2 =   4.25000
 n  =  10.00000
 -D3 energy without 3body term =     -0.0279978328 hartrees
 ----------------------------------------------------------------
             Standard Nuclear Orientation (Angstroms)
    I     Atom           X                Y                Z
 ----------------------------------------------------------------
    1      C       0.4131555205    -0.8788438734    -0.0145892809
    2      C      -0.8160962627    -0.1983604431    -0.0727967263
    3      C       1.6897811400    -0.1305835953    -0.2082329442
    4      C      -0.8803236256     1.2967422642    -0.2143602343
    5      O       2.7584255232    -0.8349487370     0.2213155234
    6      O       1.7808453397     0.9670327172    -0.7071125346
    7      O      -0.4101868546     1.9038308406     0.8904654043
    8      O      -1.3567234491     1.8729317931    -1.1594500919
    9      C      -0.3288316845     3.3387305500     0.8247838302
   10      C       4.0400326317    -0.2107234933     0.0314844187
   11      C       0.4317633369    -2.2691332929     0.1413359378
   12      C      -0.7615100316    -2.9743270810     0.2326629406
   13      C      -1.9742879774    -2.2960062700     0.1666096216
   14      C      -2.0268554358    -0.9075970845     0.0102317029
   15      H       0.3187729442     3.6338471912    -0.0019029309
   16      H       4.2374217873    -0.0637667179    -1.0317160133
   17      H      -2.9040909318    -2.8504158766     0.2393685520
   18      H      -1.3200659969     3.7725940584     0.6841391099
   19      H       0.0956829880     3.6484833995     1.7770615898
   20      H       4.7632036720    -0.8979051758     0.4649253129
   21      H       4.0729615338     0.7545203375     0.5383303635
   22      H      -0.7484843183    -4.0516518744     0.3520555651
   23      H       1.3816427992    -2.7841939335     0.1789658220
   24      C      -3.3639081163    -0.2080262609    -0.0570357472
   25      H      -3.5111545861     0.2630130753    -1.0310672540
   26      H      -3.4427448353     0.5802512320     0.6969149098
   27      H      -4.1763287547    -0.9168128372     0.1124473189
 ----------------------------------------------------------------
 Molecular Point Group                 C1    NOp =  1
 Largest Abelian Subgroup              C1    NOp =  1
 Nuclear Repulsion Energy =  1008.3152909367 hartrees
 There are       55 alpha and       55 beta electrons
 Applying Cartesian multipole field
    Component          Value
    ---------          -----
     (2,0,0)        1.00000E-11
     (0,2,0)        2.00000E-11
     (0,0,2)       -3.00000E-11
 Nucleus-field energy     =     0.0000000377 hartrees
 Requested basis set is 6-311++G(d,p)
 There are 150 shells and 414 basis functions
 A cutoff of  1.0D-12 yielded   9164 shell pairs
 There are     72086 function pairs (     77189 Cartesian)
 Smallest overlap matrix eigenvalue = 1.28E-07
 Linear dependence detected in AO basis
 Number of orthogonalized atomic orbitals = 411
 Maximum deviation from orthogonality = 1.356E-10
 Guess MOs from SCF MO coefficient file
 Reading MOs from coefficient file
 Reading MOs from coefficient file
 A restricted hybrid HF-DFT SCF calculation will be
 performed using Pulay DIIS extrapolation
 Exchange:     0.2000 Hartree-Fock + 0.0800 Slater + 0.7200 B88
 Correlation:  0.1900 VWN1RPA + 0.8100 LYP
 Using SG-1 standard quadrature grid
 Dispersion:   Grimme D3
 SCF converges when DIIS error is below 1.0E-08
 Geometry optimization detected.  Setting ReadMinima to 0
 Setting SaveMinima to 0
 -------------------------------------------------------
 OpenMP Integral computing Module                
 Release: version 1.0, May 2013, Q-Chem Inc. Pittsburgh 
 -------------------------------------------------------
 -------------------------------------------------------
 OpenMP BLAS3 based DFT computing Module                
 Release: version 1.0, May 2013, Q-Chem Inc. Pittsburgh 
 -------------------------------------------------------
 ---------------------------------------
  Cycle       Energy         DIIS Error
 ---------------------------------------
    1    -727.5437143387      1.79E-04
    2    -727.5470718858      2.84E-05
    3    -727.5470583723      4.30E-05
    4    -727.5470896629      8.04E-06
    5    -727.5470906010      3.55E-06
    6    -727.5470907728      1.31E-06
    7    -727.5470907964      4.73E-07
    8    -727.5470908001      1.82E-07
    9    -727.5470908008      3.72E-08
   10    -727.5470908008      1.45E-08
   11    -727.5470908009      3.53E-09 Convergence criterion met
 ---------------------------------------
 SCF time:  CPU 882.97 s  wall 44.11 s
 SCF   energy in the final basis set = -727.5470908009
 Total energy in the final basis set = -727.5470908009
 
 --------------------------------------------------------------
 
                    Orbital Energies (a.u.)
 --------------------------------------------------------------
 
 Alpha MOs
 -- Occupied --
-19.178 -19.169 -19.119 -19.113 -10.312 -10.306 -10.233 -10.222
-10.208 -10.207 -10.205 -10.192 -10.192 -10.191 -10.173  -1.120
 -1.111  -1.031  -1.025  -0.885  -0.801  -0.790  -0.747  -0.726
 -0.699  -0.653  -0.624  -0.580  -0.572  -0.544  -0.519  -0.503
 -0.494  -0.488  -0.480  -0.478  -0.463  -0.444  -0.434  -0.429
 -0.423  -0.415  -0.402  -0.394  -0.381  -0.372  -0.369  -0.366
 -0.358  -0.321  -0.307  -0.294  -0.289  -0.270  -0.262
 -- Virtual --
 -0.064  -0.035  -0.010  -0.003   0.001   0.009   0.013   0.020
  0.028   0.030   0.031   0.036   0.043   0.046   0.049   0.055
  0.063   0.064   0.070   0.079   0.086   0.089   0.095   0.103
  0.105   0.107   0.111   0.115   0.117   0.119   0.125   0.127
  0.128   0.134   0.135   0.139   0.143   0.145   0.150   0.154
  0.156   0.160   0.162   0.166   0.170   0.177   0.178   0.183
  0.185   0.191   0.197   0.200   0.206   0.209   0.212   0.215
  0.221   0.228   0.234   0.238   0.244   0.256   0.260   0.264
  0.274   0.277   0.282   0.285   0.289   0.293   0.297   0.302
  0.306   0.308   0.312   0.312   0.321   0.330   0.333   0.342
  0.345   0.354   0.357   0.360   0.367   0.368   0.379   0.384
  0.386   0.396   0.402   0.406   0.412   0.427   0.434   0.443
  0.458   0.468   0.474   0.492   0.499   0.510   0.522   0.528
  0.538   0.542   0.550   0.570   0.576   0.583   0.594   0.597
  0.603   0.608   0.618   0.627   0.634   0.641   0.652   0.654
  0.661   0.666   0.671   0.678   0.684   0.693   0.697   0.703
  0.712   0.720   0.727   0.739   0.749   0.754   0.761   0.773
  0.785   0.790   0.809   0.843   0.851   0.857   0.865   0.887
  0.907   0.913   0.919   0.933   0.940   0.966   0.973   0.991
  1.011   1.020   1.035   1.045   1.054   1.067   1.068   1.074
  1.112   1.114   1.139   1.142   1.175   1.195   1.212   1.216
  1.233   1.241   1.250   1.279   1.288   1.309   1.328   1.352
  1.365   1.374   1.383   1.392   1.413   1.426   1.434   1.442
  1.458   1.462   1.483   1.488   1.513   1.521   1.527   1.530
  1.547   1.554   1.565   1.571   1.580   1.589   1.605   1.625
  1.637   1.642   1.656   1.674   1.693   1.702   1.703   1.712
  1.720   1.727   1.740   1.749   1.763   1.775   1.788   1.803
  1.817   1.832   1.860   1.874   1.883   1.901   1.918   1.932
  1.950   1.960   1.973   2.000   2.009   2.021   2.027   2.069
  2.092   2.106   2.107   2.129   2.141   2.149   2.179   2.194
  2.196   2.240   2.259   2.306   2.325   2.382   2.404   2.438
  2.442   2.455   2.483   2.494   2.500   2.513   2.527   2.540
  2.553   2.557   2.568   2.579   2.585   2.594   2.648   2.654
  2.663   2.675   2.688   2.712   2.729   2.735   2.757   2.776
  2.794   2.815   2.825   2.828   2.839   2.859   2.870   2.884
  2.898   2.904   2.930   2.940   2.967   3.004   3.029   3.037
  3.054   3.068   3.092   3.108   3.123   3.163   3.182   3.211
  3.227   3.237   3.269   3.309   3.318   3.367   3.381   3.399
  3.432   3.528   3.539   3.592   3.619   3.632   3.693   3.731
  3.769   3.789   3.799   3.821   3.850   3.857   3.917   4.035
  4.052   4.064   4.102   4.130   4.147   4.265   4.341   4.367
  4.847   5.024   5.042   5.119   5.132   5.237   5.286   5.372
  5.404   5.627   5.653   5.863   5.893  23.561  23.840  23.865
 23.914  23.929  23.935  23.944  23.982  24.061  24.074  24.172
 49.893  49.906  50.012  50.039
 --------------------------------------------------------------
 
          Ground-State Mulliken Net Atomic Charges

     Atom                 Charge (a.u.)
  ----------------------------------------
      1 C                     0.186057
      2 C                     0.703616
      3 C                    -0.119581
      4 C                    -0.804266
      5 O                    -0.081028
      6 O                    -0.223581
      7 O                     0.059361
      8 O                    -0.159532
      9 C                    -0.228988
     10 C                    -0.221381
     11 C                    -0.378458
     12 C                    -0.084515
     13 C                    -0.574564
     14 C                     0.426248
     15 H                     0.193012
     16 H                     0.188178
     17 H                     0.119214
     18 H                     0.161877
     19 H                     0.151893
     20 H                     0.157530
     21 H                     0.175942
     22 H                     0.182962
     23 H                     0.176776
     24 C                    -0.534052
     25 H                     0.196273
     26 H                     0.175119
     27 H                     0.155889
  ----------------------------------------
  Sum of atomic charges =     0.000000

 -----------------------------------------------------------------
                    Cartesian Multipole Moments
 -----------------------------------------------------------------
    Charge (ESU x 10^10)
                -0.0000
    Dipole Moment (Debye)
         X       0.8386      Y      -1.7597      Z       2.1573
       Tot       2.9076
    Quadrupole Moments (Debye-Ang)
        XX     -73.0605     XY       2.0562     YY     -79.2209
        XZ      -1.7725     YZ       6.2747     ZZ     -93.9145
    Octopole Moments (Debye-Ang^2)
       XXX      52.1404    XXY      -8.3770    XYY       0.2625
       YYY      22.2821    XXZ       3.5349    XYZ      -1.2212
       YYZ      18.1845    XZZ      11.9464    YZZ       7.3256
       ZZZ      -4.1258
    Hexadecapole Moments (Debye-Ang^3)
      XXXX   -1937.3557   XXXY      -8.1002   XXYY    -656.6525
      XYYY       1.0995   YYYY   -1545.6294   XXXZ      -0.0239
      XXYZ      10.4059   XYYZ     -13.0141   YYYZ      25.1492
      XXZZ    -423.5308   XYZZ      -4.3783   YYZZ    -350.3891
      XZZZ      -2.8728   YZZZ       8.7936   ZZZZ    -247.2301
 -----------------------------------------------------------------
 Calculating analytic gradient of the SCF energy
 Gradient of SCF Energy
            1           2           3           4           5           6
    1   0.0001679   0.0001747  -0.0000062  -0.0008833   0.0000781   0.0001442
    2  -0.0000944   0.0002028   0.0003512   0.0004622   0.0001275  -0.0004022
    3   0.0007797  -0.0000580  -0.0005744  -0.0008427  -0.0001453   0.0001160
            7           8           9          10          11          12
    1   0.0005309   0.0002750   0.0000300  -0.0000705   0.0000905  -0.0003336
    2   0.0004151  -0.0004402  -0.0005725  -0.0001899   0.0000569  -0.0000291
    3   0.0004499   0.0003426   0.0001330   0.0002696  -0.0001482  -0.0000775
           13          14          15          16          17          18
    1   0.0002021  -0.0001116  -0.0001841  -0.0000257  -0.0000515   0.0000085
    2  -0.0001303   0.0000125   0.0000467  -0.0000253   0.0000172  -0.0000039
    3   0.0000484  -0.0000488  -0.0000946   0.0000055  -0.0000100  -0.0000105
           19          20          21          22          23          24
    1   0.0000758   0.0000165  -0.0000858  -0.0000725   0.0000157   0.0000140
    2  -0.0000166   0.0000453   0.0000381   0.0000161   0.0001131   0.0001517
    3  -0.0000144   0.0000447  -0.0001444   0.0000429  -0.0000748  -0.0000584
           25          26          27
    1   0.0000412   0.0000082  -0.0000485
    2  -0.0000200  -0.0000653  -0.0000667
    3   0.0000657  -0.0000203   0.0000243
 Max gradient component =       8.833E-04
 RMS gradient           =       2.486E-04
 Gradient time:  CPU 366.43 s  wall 22.36 s
 Geometry Optimization Parameters
   NAtoms,    NIC,     NZ,  NCons,   NDum,   NFix, NCnnct, MaxDiis
       27     173       0       2       0       0       0       0

 Cartesian Hessian Update
 Hessian Updated using BFGS Update


** CONSTRAINED OPTIMIZATION IN DELOCALIZED INTERNAL COORDINATES **
   Searching for a Minimum

   Optimization Cycle:   4

                       Coordinates (Angstroms)
     ATOM                X               Y               Z
      1  C         0.4131555205   -0.8788438734   -0.0145892809
      2  C        -0.8160962627   -0.1983604431   -0.0727967263
      3  C         1.6897811400   -0.1305835953   -0.2082329442
      4  C        -0.8803236256    1.2967422642   -0.2143602343
      5  O         2.7584255232   -0.8349487370    0.2213155234
      6  O         1.7808453397    0.9670327172   -0.7071125346
      7  O        -0.4101868546    1.9038308406    0.8904654043
      8  O        -1.3567234491    1.8729317931   -1.1594500919
      9  C        -0.3288316845    3.3387305500    0.8247838302
     10  C         4.0400326317   -0.2107234933    0.0314844187
     11  C         0.4317633369   -2.2691332929    0.1413359378
     12  C        -0.7615100316   -2.9743270810    0.2326629406
     13  C        -1.9742879774   -2.2960062700    0.1666096216
     14  C        -2.0268554358   -0.9075970845    0.0102317029
     15  H         0.3187729442    3.6338471912   -0.0019029309
     16  H         4.2374217873   -0.0637667179   -1.0317160133
     17  H        -2.9040909318   -2.8504158766    0.2393685520
     18  H        -1.3200659969    3.7725940584    0.6841391099
     19  H         0.0956829880    3.6484833995    1.7770615898
     20  H         4.7632036720   -0.8979051758    0.4649253129
     21  H         4.0729615338    0.7545203375    0.5383303635
     22  H        -0.7484843183   -4.0516518744    0.3520555651
     23  H         1.3816427992   -2.7841939335    0.1789658220
     24  C        -3.3639081163   -0.2080262609   -0.0570357472
     25  H        -3.5111545861    0.2630130753   -1.0310672540
     26  H        -3.4427448353    0.5802512320    0.6969149098
     27  H        -4.1763287547   -0.9168128372    0.1124473189
   Point Group: c1    Number of degrees of freedom:    75


   Energy is   -727.547090801

              Constraints and their Current Values
                                        Value     Constraint
   Dihedral:        2   1   3   5      163.600      163.600
   Dihedral:        1   2   4   7      -67.300      -67.300
 Hessian Updated using BFGS Update

 62 Hessian modes will be used to form the next step
  Hessian Eigenvalues:
     0.024981    0.045000    0.045000    0.045001    0.045001    0.045002
     0.045007    0.045019    0.045059    0.045430    0.045742    0.045925
     0.092304    0.094223    0.113597    0.113972    0.116937    0.116952
     0.155154    0.159590    0.159985    0.159999    0.160818    0.164202
     0.221050    0.235440    0.245200    0.248751    0.249081    0.249562
     0.249869    0.249980    0.249993    0.268726    0.310731    0.319668
     0.341395    0.342201    0.342437    0.342683    0.342734    0.342942
     0.343525    0.343775    0.344329    0.344745    0.349501    0.350481
     0.350711    0.362439    0.407489    0.409381    0.414233    0.431567
     0.443471    0.452846    0.460359    0.472973    0.512445    0.533362
     0.944646    0.959963

 Minimum Search - Taking Simple RFO Step
 Searching for Lamda that Minimizes Along All modes
 Value Taken    Lamda =  -0.00002387
 Step Taken.  Stepsize is  0.026931

                             Maximum     Tolerance    Cnvgd?
         Gradient           0.000498      0.000300      NO
         Displacement       0.015587      0.000001      NO
         Energy change     -0.000055      0.000001      NO


 New Cartesian Coordinates Obtained by Inverse Iteration

 Displacement from previous Coordinates is:  0.084823
 Adding empirical dispersion correction 
 ----------------------------------------------------------------
 Doing -D3(op) with
 s6 =   1.00000
 s8 =   0.78311
 a1 =   0.30000
 a2 =   4.25000
 n  =  10.00000
 -D3 energy without 3body term =     -0.0280139867 hartrees
 ----------------------------------------------------------------
             Standard Nuclear Orientation (Angstroms)
    I     Atom           X                Y                Z
 ----------------------------------------------------------------
    1      C       0.4107545028    -0.8788260090    -0.0169591632
    2      C      -0.8188339692    -0.1993402186    -0.0738019319
    3      C       1.6865239145    -0.1274772675    -0.2042857726
    4      C      -0.8831834149     1.2963209098    -0.2127259455
    5      O       2.7557348418    -0.8319489783     0.2231373438
    6      O       1.7753507657     0.9733915577    -0.6972463380
    7      O      -0.4138106952     1.9026011530     0.8913589984
    8      O      -1.3587621428     1.8732590448    -1.1583401741
    9      C      -0.3190016631     3.3377416098     0.8210405650
   10      C       4.0372708315    -0.2061592667     0.0326551006
   11      C       0.4311364954    -2.2692513463     0.1393016475
   12      C      -0.7611572202    -2.9757035044     0.2300532446
   13      C      -1.9747777573    -2.2983984283     0.1646866732
   14      C      -2.0288567741    -0.9097582620     0.0095561302
   15      H       0.3404701059     3.6222719356    -0.0000565327
   16      H       4.2307550022    -0.0527024154    -1.0304035823
   17      H      -2.9039642876    -2.8537845221     0.2383521617
   18      H      -1.3046322186     3.7798591951     0.6675486475
   19      H       0.0981970810     3.6472251472     1.7764387654
   20      H       4.7612869847    -0.8963013465     0.4595773382
   21      H       4.0718938316     0.7562077014     0.5449569042
   22      H      -0.7468479691    -4.0530714035     0.3493371126
   23      H       1.3817939939    -2.7829188102     0.1792835253
   24      C      -3.3667124138    -0.2115907493    -0.0549387790
   25      H      -3.5155438539     0.2609332122    -1.0282135403
   26      H      -3.4444781036     0.5767275116     0.6993436253
   27      H      -4.1785095119    -0.9206255379     0.1151781421
 ----------------------------------------------------------------
 Molecular Point Group                 C1    NOp =  1
 Largest Abelian Subgroup              C1    NOp =  1
 Nuclear Repulsion Energy =  1008.4578129726 hartrees
 There are       55 alpha and       55 beta electrons
 Applying Cartesian multipole field
    Component          Value
    ---------          -----
     (2,0,0)        1.00000E-11
     (0,2,0)        2.00000E-11
     (0,0,2)       -3.00000E-11
 Nucleus-field energy     =     0.0000000377 hartrees
 Requested basis set is 6-311++G(d,p)
 There are 150 shells and 414 basis functions
 A cutoff of  1.0D-12 yielded   9168 shell pairs
 There are     72126 function pairs (     77229 Cartesian)
 Smallest overlap matrix eigenvalue = 1.29E-07
 Linear dependence detected in AO basis
 Number of orthogonalized atomic orbitals = 411
 Maximum deviation from orthogonality = 7.304E-11
 Guess MOs from SCF MO coefficient file
 Reading MOs from coefficient file
 Reading MOs from coefficient file
 A restricted hybrid HF-DFT SCF calculation will be
 performed using Pulay DIIS extrapolation
 Exchange:     0.2000 Hartree-Fock + 0.0800 Slater + 0.7200 B88
 Correlation:  0.1900 VWN1RPA + 0.8100 LYP
 Using SG-1 standard quadrature grid
 Dispersion:   Grimme D3
 SCF converges when DIIS error is below 1.0E-08
 Geometry optimization detected.  Setting ReadMinima to 0
 Setting SaveMinima to 0
 -------------------------------------------------------
 OpenMP Integral computing Module                
 Release: version 1.0, May 2013, Q-Chem Inc. Pittsburgh 
 -------------------------------------------------------
 -------------------------------------------------------
 OpenMP BLAS3 based DFT computing Module                
 Release: version 1.0, May 2013, Q-Chem Inc. Pittsburgh 
 -------------------------------------------------------
 ---------------------------------------
  Cycle       Energy         DIIS Error
 ---------------------------------------
    1    -727.5461542217      1.22E-04
    2    -727.5471062236      1.74E-05
    3    -727.5470921065      3.55E-05
    4    -727.5471123811      4.03E-06
    5    -727.5471125950      1.85E-06
    6    -727.5471126497      7.50E-07
    7    -727.5471126602      2.67E-07
    8    -727.5471126616      7.35E-08
    9    -727.5471126617      1.35E-08
   10    -727.5471126618      6.92E-09 Convergence criterion met
 ---------------------------------------
 SCF time:  CPU 813.58 s  wall 40.49 s
 SCF   energy in the final basis set = -727.5471126618
 Total energy in the final basis set = -727.5471126618
 
 --------------------------------------------------------------
 
                    Orbital Energies (a.u.)
 --------------------------------------------------------------
 
 Alpha MOs
 -- Occupied --
-19.178 -19.169 -19.119 -19.113 -10.312 -10.306 -10.233 -10.222
-10.208 -10.207 -10.205 -10.192 -10.192 -10.191 -10.173  -1.120
 -1.111  -1.031  -1.025  -0.885  -0.801  -0.790  -0.747  -0.726
 -0.699  -0.653  -0.624  -0.580  -0.572  -0.543  -0.519  -0.503
 -0.494  -0.489  -0.479  -0.478  -0.463  -0.444  -0.434  -0.429
 -0.423  -0.415  -0.402  -0.394  -0.381  -0.372  -0.369  -0.366
 -0.358  -0.321  -0.307  -0.294  -0.289  -0.270  -0.262
 -- Virtual --
 -0.064  -0.035  -0.011  -0.003   0.001   0.010   0.013   0.020
  0.028   0.030   0.031   0.036   0.043   0.046   0.049   0.055
  0.063   0.064   0.070   0.079   0.086   0.089   0.095   0.103
  0.105   0.107   0.111   0.115   0.117   0.119   0.125   0.127
  0.128   0.134   0.135   0.139   0.143   0.145   0.150   0.154
  0.156   0.160   0.162   0.166   0.170   0.177   0.178   0.183
  0.185   0.191   0.197   0.200   0.206   0.209   0.212   0.215
  0.221   0.228   0.234   0.238   0.244   0.257   0.260   0.264
  0.274   0.277   0.282   0.285   0.289   0.293   0.297   0.302
  0.306   0.308   0.312   0.312   0.321   0.330   0.333   0.342
  0.345   0.354   0.357   0.360   0.367   0.368   0.379   0.384
[...]
  1.238   1.256   1.268   1.279   1.296   1.310   1.339   1.350
  1.367   1.373   1.387   1.400   1.421   1.427   1.432   1.448
  1.457   1.465   1.479   1.492   1.512   1.522   1.524   1.534
  1.545   1.559   1.562   1.566   1.576   1.588   1.601   1.623
  1.644   1.649   1.660   1.686   1.689   1.698   1.707   1.717
  1.730   1.734   1.736   1.751   1.755   1.781   1.787   1.817
  1.823   1.852   1.877   1.887   1.893   1.905   1.924   1.929
  1.953   1.965   1.967   1.989   2.010   2.022   2.041   2.070
  2.097   2.100   2.115   2.131   2.142   2.164   2.184   2.192
  2.202   2.244   2.265   2.307   2.321   2.388   2.406   2.440
  2.445   2.455   2.481   2.488   2.509   2.511   2.520   2.527
  2.548   2.551   2.567   2.583   2.585   2.595   2.638   2.657
  2.665   2.679   2.683   2.713   2.729   2.744   2.773   2.781
  2.804   2.811   2.824   2.825   2.846   2.860   2.872   2.877
  2.900   2.914   2.929   2.938   2.971   3.003   3.031   3.041
  3.046   3.077   3.085   3.114   3.122   3.175   3.193   3.211
  3.230   3.239   3.272   3.302   3.324   3.375   3.388   3.394
  3.430   3.526   3.545   3.594   3.616   3.636   3.698   3.759
  3.768   3.791   3.798   3.823   3.854   3.855   3.930   4.035
  4.052   4.078   4.109   4.124   4.162   4.261   4.341   4.378
  4.849   5.007   5.029   5.083   5.157   5.237   5.305   5.378
  5.407   5.629   5.671   5.870   5.901  23.561  23.840  23.867
 23.915  23.932  23.935  23.945  23.982  24.063  24.082  24.173
 49.898  49.918  50.015  50.048
 --------------------------------------------------------------
 
          Ground-State Mulliken Net Atomic Charges

     Atom                 Charge (a.u.)
  ----------------------------------------
      1 C                     0.077228
      2 C                     0.784347
      3 C                    -0.047504
      4 C                    -0.963805
      5 O                    -0.108114
      6 O                    -0.221915
      7 O                     0.087620
      8 O                    -0.126155
      9 C                    -0.208898
     10 C                    -0.214368
     11 C                    -0.356690
     12 C                    -0.069520
     13 C                    -0.658661
     14 C                     0.479639
     15 H                     0.190439
     16 H                     0.186454
     17 H                     0.116933
     18 H                     0.162890
     19 H                     0.149303
     20 H                     0.153390
     21 H                     0.179751
     22 H                     0.183753
     23 H                     0.187104
     24 C                    -0.487348
     25 H                     0.190591
     26 H                     0.167820
     27 H                     0.165719
  ----------------------------------------
  Sum of atomic charges =     0.000000

 -----------------------------------------------------------------
                    Cartesian Multipole Moments
 -----------------------------------------------------------------
    Charge (ESU x 10^10)
                 0.0000
    Dipole Moment (Debye)
         X       0.4622      Y      -1.7635      Z       1.9782
       Tot       2.6901
    Quadrupole Moments (Debye-Ang)
        XX     -71.9001     XY       0.1571     YY     -79.4459
        XZ      -1.9805     YZ       5.3637     ZZ     -93.9225
    Octopole Moments (Debye-Ang^2)
       XXX      45.7282    XXY      -8.5105    XYY      -6.5448
       YYY      25.1185    XXZ      -0.4662    XYZ      -1.6007
       YYZ      19.0747    XZZ      11.4136    YZZ       6.3378
       ZZZ      -0.8457
    Hexadecapole Moments (Debye-Ang^3)
      XXXX   -1923.1391   XXXY      16.7592   XXYY    -656.5348
      XYYY      30.2814   YYYY   -1561.2335   XXXZ      13.0375
      XXYZ       3.8303   XYYZ      -6.4299   YYYZ      28.9480
      XXZZ    -420.5106   XYZZ      11.5227   YYZZ    -355.7058
      XZZZ      17.2836   YZZZ      17.7737   ZZZZ    -248.6657
 -----------------------------------------------------------------
 Calculating analytic gradient of the SCF energy
 Gradient of SCF Energy
            1           2           3           4           5           6
    1  -0.0000737   0.0000337   0.0000526   0.0000037   0.0000190  -0.0000162
    2   0.0000070   0.0000277   0.0000248  -0.0000539  -0.0000148  -0.0000338
    3   0.0000086  -0.0000500  -0.0000681   0.0000526  -0.0000246   0.0000244
            7           8           9          10          11          12
    1  -0.0000077   0.0000246   0.0000422  -0.0000320   0.0000125  -0.0000283
    2   0.0000622   0.0000080  -0.0000365  -0.0000052   0.0000050  -0.0000120
    3   0.0000128  -0.0000091   0.0000070   0.0000492   0.0000126   0.0000010
           13          14          15          16          17          18
    1  -0.0000065  -0.0000165   0.0000118   0.0000100  -0.0000105   0.0000067
    2   0.0000110   0.0000101  -0.0000004  -0.0000298   0.0000111   0.0000070
    3   0.0000157  -0.0000137  -0.0000057  -0.0000259   0.0000057   0.0000027
           19          20          21          22          23          24
    1   0.0000221  -0.0000082   0.0000049  -0.0000222  -0.0000230  -0.0000098
    2  -0.0000013  -0.0000255  -0.0000220   0.0000029  -0.0000033   0.0000210
    3  -0.0000003  -0.0000140  -0.0000249   0.0000012  -0.0000001   0.0000231
           25          26          27
    1   0.0000070   0.0000014   0.0000025
    2   0.0000137   0.0000116   0.0000154
    3   0.0000082   0.0000074   0.0000044
 Max gradient component =       7.368E-05
 RMS gradient           =       2.439E-05
 Gradient time:  CPU 370.56 s  wall 22.97 s
 Geometry Optimization Parameters
   NAtoms,    NIC,     NZ,  NCons,   NDum,   NFix, NCnnct, MaxDiis
       27     173       0       0       0       0       0       0

 Cartesian Hessian Update
 Hessian Updated using BFGS Update


** GEOMETRY OPTIMIZATION IN DELOCALIZED INTERNAL COORDINATES **
   Searching for a Minimum

   Optimization Cycle:  10

                       Coordinates (Angstroms)
     ATOM                X               Y               Z
      1  C         0.4424522010   -0.8992882341    0.0013556598
      2  C        -0.7606732968   -0.1771548955   -0.0663829162
      3  C         1.7420164804   -0.1824470052   -0.1405572268
      4  C        -0.7810267428    1.3135848433   -0.2730933676
      5  O         2.8001678189   -1.0039664019    0.0254013580
      6  O         1.8580232054    0.9970788235   -0.3840577668
      7  O        -0.5762832409    1.9650068579    0.8837005258
      8  O        -1.0394547438    1.8455422519   -1.3233649739
      9  C        -0.4836411159    3.3985587516    0.7846887699
     10  C         4.0963244453   -0.3974692480   -0.1188128956
     11  C         0.4091073469   -2.2886411676    0.1743694071
     12  C        -0.8081885256   -2.9472361618    0.2800816349
     13  C        -1.9963652627   -2.2250745030    0.2085376565
     14  C        -1.9961068246   -0.8392571050    0.0302700871
     15  H         0.3704644081    3.6668987745    0.1612703975
     16  H         4.2083594931    0.0298829516   -1.1163946145
     17  H        -2.9456538779   -2.7437756601    0.2929808739
     18  H        -1.3963214538    3.8144186046    0.3553506337
     19  H        -0.3417374468    3.7501543412    1.8041383117
     20  H         4.8098491979   -1.2037500101    0.0359594594
     21  H         4.2350339131    0.3871973851    0.6262720472
     22  H        -0.8343464109   -4.0222824066    0.4164855391
     23  H         1.3387285574   -2.8382189864    0.2227278823
     24  C        -3.3000293529   -0.0824274187   -0.0582621517
     25  H        -3.4358805093    0.3475016536   -1.0539442779
     26  H        -3.3317332211    0.7426299739    0.6588104339
     27  H        -4.1447453724   -0.7415200501    0.1487528143
   Point Group: c1    Number of degrees of freedom:    75


   Energy is   -727.547334555

 Hessian Updated using BFGS Update

 75 Hessian modes will be used to form the next step
  Hessian Eigenvalues:
     0.000988    0.002556    0.007896    0.010449    0.013155    0.016439
     0.018572    0.019449    0.021781    0.022454    0.022912    0.023093
     0.023136    0.023409    0.023703    0.037826    0.061455    0.071890
     0.072493    0.073800    0.101500    0.101713    0.105178    0.106367
     0.159699    0.159801    0.159919    0.159976    0.159998    0.160000
     0.160000    0.160065    0.160145    0.160317    0.160502    0.160924
     0.221093    0.236307    0.244317    0.249128    0.249348    0.249926
     0.249967    0.250092    0.251649    0.253250    0.279531    0.312997
     0.318805    0.338555    0.344019    0.345828    0.346470    0.346737
     0.346933    0.346990    0.347305    0.350697    0.350700    0.352283
     0.354068    0.355146    0.360751    0.398450    0.399087    0.422160
     0.437044    0.459225    0.461230    0.470625    0.487786    0.554385
     0.562393    1.003084    1.022102

 Minimum Search - Taking Simple RFO Step
 Searching for Lamda that Minimizes Along All modes
 Value Taken    Lamda =   0.00000000
 Step Taken.  Stepsize is  0.012826

                             Maximum     Tolerance    Cnvgd?
         Gradient           0.000040      0.000300     YES
         Displacement       0.006630      0.000001      NO
         Energy change     -0.000001      0.000001     YES

 Final energy is   -727.547334555422     


 ******************************
 **  OPTIMIZATION CONVERGED  **
 ******************************

                       Coordinates (Angstroms)
     ATOM                X               Y               Z
      1  C         0.4424522010   -0.8992882341    0.0013556598
      2  C        -0.7606732968   -0.1771548955   -0.0663829162
      3  C         1.7420164804   -0.1824470052   -0.1405572268
      4  C        -0.7810267428    1.3135848433   -0.2730933676
      5  O         2.8001678189   -1.0039664019    0.0254013580
      6  O         1.8580232054    0.9970788235   -0.3840577668
      7  O        -0.5762832409    1.9650068579    0.8837005258
      8  O        -1.0394547438    1.8455422519   -1.3233649739
      9  C        -0.4836411159    3.3985587516    0.7846887699
     10  C         4.0963244453   -0.3974692480   -0.1188128956
     11  C         0.4091073469   -2.2886411676    0.1743694071
     12  C        -0.8081885256   -2.9472361618    0.2800816349
     13  C        -1.9963652627   -2.2250745030    0.2085376565
     14  C        -1.9961068246   -0.8392571050    0.0302700871
     15  H         0.3704644081    3.6668987745    0.1612703975
     16  H         4.2083594931    0.0298829516   -1.1163946145
     17  H        -2.9456538779   -2.7437756601    0.2929808739
     18  H        -1.3963214538    3.8144186046    0.3553506337
     19  H        -0.3417374468    3.7501543412    1.8041383117
     20  H         4.8098491979   -1.2037500101    0.0359594594
     21  H         4.2350339131    0.3871973851    0.6262720472
     22  H        -0.8343464109   -4.0222824066    0.4164855391
     23  H         1.3387285574   -2.8382189864    0.2227278823
     24  C        -3.3000293529   -0.0824274187   -0.0582621517
     25  H        -3.4358805093    0.3475016536   -1.0539442779
     26  H        -3.3317332211    0.7426299739    0.6588104339
     27  H        -4.1447453724   -0.7415200501    0.1487528143

Z-matrix Print:
$molecule
0 1
O 
C  1 1.343295
O  2 1.205336 1 124.682677
C  1 1.439950 2 115.682296 3 -8.927777 0
H  4 1.087673 1 105.412387 2 178.807861 0
H  4 1.090941 1 109.544642 2 -62.017752 0
H  4 1.090989 1 110.653822 2 58.992946 0
C  2 1.505141 1 111.098573 3 -175.215222 0
C  8 1.404840 2 121.824370 1 -81.833759 0
C  9 1.400481 8 119.703638 2 -179.017899 0
H  10 1.081004 9 119.301624 8 179.822726 0
C  10 1.388068 9 120.065362 8 -0.087827 0
H  12 1.083981 10 120.086312 9 -179.847067 0
C  12 1.392264 10 119.894239 9 0.253967 0
H  14 1.085049 12 119.648421 10 -179.918555 0
C  14 1.397236 12 121.389630 10 0.041502 0
C  9 1.490929 8 119.653550 2 -0.305064 0
O  17 1.209972 9 124.849921 8 -4.030623 0
O  17 1.349859 9 112.269627 8 176.385361 0
C  19 1.438283 17 115.942823 9 178.939958 0
H  20 1.087732 19 105.326273 17 -179.385927 0
H  20 1.090914 19 110.451074 17 61.117834 0
H  20 1.091032 19 110.450048 17 -59.852870 0
C  16 1.510246 14 120.288486 12 179.363498 0
H  24 1.091239 16 110.765247 14 6.503052 0
H  24 1.093013 16 110.966833 14 -113.836544 0
H  24 1.093580 16 111.387398 14 126.716927 0
$end

 
 --------------------------------------------------------------
 
                    Orbital Energies (a.u.)
 --------------------------------------------------------------
 
 Alpha MOs
 -- Occupied --
-19.178 -19.168 -19.120 -19.112 -10.312 -10.306 -10.233 -10.222
-10.207 -10.207 -10.204 -10.192 -10.192 -10.190 -10.175  -1.120
 -1.110  -1.031  -1.024  -0.885  -0.801  -0.790  -0.747  -0.726
 -0.700  -0.652  -0.624  -0.580  -0.571  -0.543  -0.519  -0.501
 -0.495  -0.490  -0.479  -0.477  -0.462  -0.444  -0.434  -0.429
 -0.423  -0.416  -0.403  -0.393  -0.381  -0.371  -0.370  -0.367
 -0.356  -0.321  -0.307  -0.293  -0.290  -0.271  -0.261
 -- Virtual --
 -0.064  -0.031  -0.010  -0.003   0.001   0.006   0.012   0.021
  0.028   0.031   0.033   0.036   0.042   0.047   0.049   0.056
  0.061   0.065   0.069   0.082   0.083   0.088   0.094   0.103
  0.106   0.111   0.112   0.114   0.118   0.120   0.123   0.125
  0.128   0.134   0.136   0.141   0.142   0.144   0.149   0.155
  0.157   0.159   0.162   0.166   0.170   0.177   0.180   0.183
  0.184   0.191   0.197   0.198   0.205   0.210   0.211   0.218
  0.222   0.228   0.229   0.235   0.244   0.253   0.261   0.267
  0.272   0.276   0.281   0.283   0.288   0.295   0.297   0.302
  0.306   0.308   0.315   0.318   0.326   0.331   0.333   0.343
  0.344   0.350   0.356   0.362   0.367   0.374   0.382   0.387
  0.393   0.397   0.405   0.414   0.418   0.429   0.441   0.453
  0.458   0.469   0.470   0.489   0.501   0.509   0.529   0.536
  0.537   0.545   0.556   0.569   0.578   0.584   0.597   0.598
  0.603   0.606   0.617   0.626   0.636   0.643   0.652   0.654
  0.660   0.662   0.669   0.676   0.683   0.686   0.696   0.701
  0.716   0.727   0.730   0.743   0.745   0.757   0.758   0.778
  0.789   0.793   0.813   0.845   0.854   0.876   0.882   0.909
  0.916   0.929   0.934   0.954   0.968   0.971   0.979   0.996
  1.002   1.034   1.040   1.044   1.060   1.068   1.076   1.079
  1.082   1.109   1.125   1.135   1.147   1.183   1.197   1.207
  1.238   1.256   1.268   1.279   1.296   1.310   1.339   1.350
  1.367   1.373   1.387   1.400   1.421   1.427   1.432   1.448
  1.457   1.465   1.479   1.492   1.512   1.522   1.524   1.534
  1.545   1.559   1.562   1.566   1.576   1.588   1.601   1.623
  1.644   1.649   1.660   1.686   1.689   1.698   1.707   1.717
  1.730   1.734   1.736   1.751   1.755   1.781   1.787   1.817
  1.823   1.852   1.877   1.887   1.893   1.905   1.924   1.929
  1.953   1.965   1.967   1.989   2.010   2.022   2.041   2.070
  2.097   2.100   2.115   2.131   2.142   2.164   2.184   2.192
  2.202   2.244   2.265   2.307   2.321   2.388   2.406   2.440
  2.445   2.455   2.481   2.488   2.509   2.511   2.520   2.527
  2.548   2.551   2.567   2.583   2.585   2.595   2.638   2.657
  2.665   2.679   2.683   2.713   2.729   2.744   2.773   2.781
  2.804   2.811   2.824   2.825   2.846   2.860   2.872   2.877
  2.900   2.914   2.929   2.938   2.971   3.003   3.031   3.041
  3.046   3.077   3.085   3.114   3.122   3.175   3.193   3.211
  3.230   3.239   3.272   3.302   3.324   3.375   3.388   3.394
  3.430   3.526   3.545   3.594   3.616   3.636   3.698   3.759
  3.768   3.791   3.798   3.823   3.854   3.855   3.930   4.035
  4.052   4.078   4.109   4.124   4.162   4.261   4.341   4.378
  4.849   5.007   5.029   5.083   5.157   5.237   5.305   5.378
  5.407   5.629   5.671   5.870   5.901  23.561  23.840  23.867
 23.915  23.932  23.935  23.945  23.982  24.063  24.082  24.173
 49.898  49.918  50.015  50.048
 --------------------------------------------------------------
 
          Ground-State Mulliken Net Atomic Charges

     Atom                 Charge (a.u.)
  ----------------------------------------
      1 C                     0.077228
      2 C                     0.784347
      3 C                    -0.047504
      4 C                    -0.963805
      5 O                    -0.108114
      6 O                    -0.221915
      7 O                     0.087620
      8 O                    -0.126155
      9 C                    -0.208898
     10 C                    -0.214368
     11 C                    -0.356690
     12 C                    -0.069520
     13 C                    -0.658661
     14 C                     0.479639
     15 H                     0.190439
     16 H                     0.186454
     17 H                     0.116933
     18 H                     0.162890
     19 H                     0.149303
     20 H                     0.153390
     21 H                     0.179751
     22 H                     0.183753
     23 H                     0.187104
     24 C                    -0.487348
     25 H                     0.190591
     26 H                     0.167820
     27 H                     0.165719
  ----------------------------------------
  Sum of atomic charges =     0.000000

 -----------------------------------------------------------------
                    Cartesian Multipole Moments
 -----------------------------------------------------------------
    Charge (ESU x 10^10)
                 0.0000
    Dipole Moment (Debye)
         X       0.4622      Y      -1.7635      Z       1.9782
       Tot       2.6901
    Quadrupole Moments (Debye-Ang)
        XX     -71.9001     XY       0.1571     YY     -79.4459
        XZ      -1.9805     YZ       5.3637     ZZ     -93.9225
    Octopole Moments (Debye-Ang^2)
       XXX      45.7282    XXY      -8.5105    XYY      -6.5448
       YYY      25.1185    XXZ      -0.4662    XYZ      -1.6007
       YYZ      19.0747    XZZ      11.4136    YZZ       6.3378
       ZZZ      -0.8457
    Hexadecapole Moments (Debye-Ang^3)
      XXXX   -1923.1391   XXXY      16.7592   XXYY    -656.5348
      XYYY      30.2814   YYYY   -1561.2335   XXXZ      13.0375
      XXYZ       3.8303   XYYZ      -6.4299   YYYZ      28.9480
      XXZZ    -420.5106   XYZZ      11.5227   YYZZ    -355.7058
      XZZZ      17.2836   YZZZ      17.7737   ZZZZ    -248.6657
 -----------------------------------------------------------------
Archival summary:
1\1\nid05393\OPT\ProcedureUnspecified\BasisUnspecified\41112\junteng\TueOct318:42:592017TueOct318:42:592017\0\\#,OPT,ProcedureUnspecified,BasisUnspecified,\\0,1\O\C,1,1.3433\O,2,1.20534,1,124.683\C,1,1.43995,2,115.682,3,-8.92778,0\H,4,1.08767,1,105.412,2,178.808,0\H,4,1.09094,1,109.545,2,-62.0178,0\H,4,1.09099,1,110.654,2,58.9929,0\C,2,1.50514,1,111.099,3,-175.215,0\C,8,1.40484,2,121.824,1,-81.8338,0\C,9,1.40048,8,119.704,2,-179.018,0\H,10,1.081,9,119.302,8,179.823,0\C,10,1.38807,9,120.065,8,-0.0878274,0\H,12,1.08398,10,120.086,9,-179.847,0\C,12,1.39226,10,119.894,9,0.253967,0\H,14,1.08505,12,119.648,10,-179.919,0\C,14,1.39724,12,121.39,10,0.0415017,0\C,9,1.49093,8,119.654,2,-0.305064,0\O,17,1.20997,9,124.85,8,-4.03062,0\O,17,1.34986,9,112.27,8,176.385,0\C,19,1.43828,17,115.943,9,178.94,0\H,20,1.08773,19,105.326,17,-179.386,0\H,20,1.09091,19,110.451,17,61.1178,0\H,20,1.09103,19,110.45,17,-59.8529,0\C,16,1.51025,14,120.288,12,179.363,0\H,24,1.09124,16,110.765,14,6.50305,0\H,24,1.09301,16,110.967,14,-113.837,0\H,24,1.09358,16,111.387,14,126.717,0\\\@

 Total job time:  714.91s(wall), 13489.89s(cpu) 
 Tue Oct  3 18:42:59 2017

        *************************************************************
        *                                                           *
        *  Thank you very much for using Q-Chem.  Have a nice day.  *
        *                                                           *
        *************************************************************


