nid05457 10.128.21
Q-Chem Developer Version! Running on 10.128.21.*
                  Welcome to Q-Chem
     A Quantum Leap Into The Future Of Chemistry


 Q-Chem 5.0, Q-Chem, Inc., Pleasanton, CA (2017)

 Yihan Shao,  Zhengting Gan,  E. Epifanovsky,  A. T. B. Gilbert,  M. Wormit,  
 J. Kussmann,  A. W. Lange,  A. Behn,  Jia Deng,  Xintian Feng,  D. Ghosh,  
 M. Goldey,  P. R. Horn,  L. D. Jacobson,  I. Kaliman,  T. Kus,  A. Landau,  
 Jie Liu,  E. I. Proynov,  R. M. Richard,  R. P. Steele,  E. J. Sundstrom,  
 H. L. Woodcock III,  P. M. Zimmerman,  D. Zuev,  B. Albrecht,  E. Alguire,  
 S. A. Baeppler,  Z. Benda,  Y. A. Bernard,  E. J. Berquist,  K. B. Bravaya,  
 D. Casanova,  Chun-Min Chang,  Yunqing Chen,  A. Chien,  K. D. Closser,  
 M. P. Coons,  S. Dasgupta,  M. Diedenhofen,  Hainam Do,  R. G. Edgar,  
 Po-Tung Fang,  S. Fatehi,  Qingguo Feng,  Qinghui Ge,  A. Ghysels,  
 J. Gomes,  J. Gonthier,  A. Gunina,  M. W. D. Hanson-Heine,  
 P. H. P. Harbach,  A. W. Hauser,  J. E. Herr,  E. G. Hohenstein,  
 Z. C. Holden,  Kerwin Hui,  T.-C. Jagau,  Hyunjun Ji,  B. Kaduk,  
 K. Khistyaev,  Jaehoon Kim,  P. Klunzinger,  K. Koh,  D. Kosenkov,  
 T. Kowalczyk,  C. M. Krauter,  A. Kunitsa,  Ka Un Lao,  A. Laurent,  
 K. V. Lawler,  Joonho Lee,  D. Lefrancois,  S. Lehtola,  D. S. Levine,  
 Yi-Pei Li,  You-Sheng Lin,  Fenglai Liu,  E. Livshits,  A. Luenser,  
 P. Manohar,  E. Mansoor,  S. F. Manzer,  Shan-Ping Mao,  Yuezhi Mao,  
 N. Mardirossian,  A. V. Marenich,  L. A. Martinez-Martinez,  S. A. Maurer,  
 N. J. Mayhall,  S. C. McKenzie,  J.-M. Mewes,  A. F. Morrison,  K. Nanda,  
 T. S. Nguyen-Beck,  R. Olivares-Amaya,  J. A. Parkhill,  T. M. Perrine,  
 F. Plasser,  S. Prager,  A. Prociuk,  D. R. Rehn,  F. Rob,  M. Schneider,  
 N. Sergueev,  S. M. Sharada,  S. Sharma,  D. W. Small,  T. Stauch,  
 T. Stein,  Yu-Chuan Su,  A. J. W. Thom,  T. Tsuchimochi,  L. Vogt,  
 O. Vydrov,  M. A. Watson,  J. Wenzel,  M. de Wergifosse,  T. A. Wesolowski,  
 A. White,  J. Witte,  A. Yamada,  Jun Yang,  K. Yao,  S. Yeganeh,  
 S. R. Yost,  Zhi-Qiang You,  A. Zech,  Igor Ying Zhang,  Xing Zhang,  
 Yan Zhao,  Ying Zhu,  B. R. Brooks,  G. K. L. Chan,  C. J. Cramer,  
 M. S. Gordon,  W. J. Hehre,  A. Klamt,  M. W. Schmidt,  C. D. Sherrill,  
 D. G. Truhlar,  A. Aspuru-Guzik,  R. Baer,  A. T. Bell,  N. A. Besley,  
 Jeng-Da Chai,  A. Dreuw,  B. D. Dunietz,  T. R. Furlani,  Chao-Ping Hsu,  
 Yousung Jung,  Jing Kong,  D. S. Lambrecht,  WanZhen Liang,  C. Ochsenfeld,  
 V. A. Rassolov,  L. V. Slipchenko,  J. E. Subotnik,  T. Van Voorhis,  
 J. M. Herbert,  A. I. Krylov,  P. M. W. Gill,  M. Head-Gordon

 Contributors to earlier versions of Q-Chem not listed above: 
 R. D. Adamson,  B. Austin,  J. Baker,  G. J. O. Beran,  K. Brandhorst,  
 S. T. Brown,  E. F. C. Byrd,  A. K. Chakraborty,  C.-L. Cheng,  
 Siu Hung Chien,  D. M. Chipman,  D. L. Crittenden,  H. Dachsel,  
 R. A. DiStasio Jr.,  R. J. Doerksen,  A. D. Dutoi,  L. Fusti-Molnar,  
 W. A. Goddard III,  A. Golubeva-Zadorozhnaya,  S. R. Gwaltney,  G. Hawkins,  
 A. Heyden,  S. Hirata,  G. Kedziora,  F. J. Keil,  C. Kelley,  Jihan Kim,  
 R. A. King,  R. Z. Khaliullin,  P. P. Korambath,  W. Kurlancheek,  
 A. M. Lee,  M. S. Lee,  S. V. Levchenko,  Ching Yeh Lin,  D. Liotard,  
 R. C. Lochan,  I. Lotan,  P. E. Maslen,  N. Nair,  D. P. O'Neill,  
 D. Neuhauser,  E. Neuscamman,  C. M. Oana,  R. Olson,  B. Peters,  
 R. Peverati,  P. A. Pieniazek,  Y. M. Rhee,  J. Ritchie,  M. A. Rohrdanz,  
 E. Rosta,  N. J. Russ,  H. F. Schaefer III,  N. E. Schultz,  N. Shenvi,  
 A. C. Simmonett,  A. Sodt,  D. Stuck,  K. S. Thanthiriwatte,  V. Vanovschi,  
 Tao Wang,  A. Warshel,  C. F. Williams,  Q. Wu,  X. Xu,  W. Zhang

 Please cite Q-Chem as follows:
 Y. Shao et al., Mol. Phys. 113, 184-215 (2015)
 DOI: 10.1080/00268976.2014.952696

 Q-Chem 5.0.0 for Intel X86 EM64T Linux

 Parts of Q-Chem use Armadillo 5.200.1 (Boston Tea Smuggler).
 http://arma.sourceforge.net/

 Q-Chem begins on Tue Oct  3 18:23:01 2017  

Host: nid05457
0

     Scratch files written to /global/cscratch1/sd/junteng/scratch/18/opt_11n11.save//

Checking the input file for inconsistencies... 	...done.

--------------------------------------------------------------
User input:
--------------------------------------------------------------
$molecule
0  1
C    0.304  -2.425   0.241
C   -0.187  -2.670   1.539
C    0.664  -1.037  -0.131
C   -0.223  -1.586   2.547
O    1.892  -1.027  -0.706
O   -0.050  -0.071   0.073
O    1.036  -1.102   2.698
O   -1.208  -1.281   3.197
C    1.131  -0.051   3.659
C    2.346   0.277  -1.069
C    0.337  -3.468  -0.713
C   -0.078  -4.750  -0.324
C   -0.556  -4.992   0.965
C   -0.619  -3.961   1.912
H    0.496   0.792   3.371
H    1.683   0.717  -1.820
H   -0.885  -5.997   1.223
H    0.862  -0.417   4.655
H    2.169   0.291   3.685
H    3.345   0.180  -1.503
H    2.413   0.921  -0.186
H   -0.050  -5.576  -1.034
C   -1.153  -4.262   3.286
C    0.800  -3.263  -2.130
H    0.377  -2.346  -2.553
H    0.472  -4.085  -2.776
H    1.893  -3.221  -2.170
H   -2.134  -3.796   3.422
H   -0.464  -3.904   4.057
H   -1.273  -5.340   3.441
$end


$opt
CONSTRAINT
tors    2    1    3    5    135.2
tors    1    2    4    7    -57.3
ENDCONSTRAINT
$end

$rem
JOBTYPE                   OPT
METHOD                    B3LYP
DFT_D                     D3_OP
BASIS                     6-311++G(d,p)
GEOM_OPT_MAX_CYCLES       500
GEOM_OPT_TOL_DISPLACEMENT 1
SYMMETRY                  False
THRESH                    12
SCF_CONVERGENCE           8
MAX_SUB_FILE_NUM          128
MEM_STATIC                400
MEM_TOTAL                 4000
$end

--------------------------------------------------------------
 Adding empirical dispersion correction 
 ----------------------------------------------------------------
 Doing -D3(op) with
 s6 =   1.00000
 s8 =   0.78311
 a1 =   0.30000
 a2 =   4.25000
 n  =  10.00000
 -D3 energy without 3body term =     -0.0331083887 hartrees
 ----------------------------------------------------------------
             Standard Nuclear Orientation (Angstroms)
    I     Atom           X                Y                Z
 ----------------------------------------------------------------
    1      C       0.4125011125    -0.6355076896    -0.1241194854
    2      C      -0.9199718424    -0.1775825584    -0.0970935988
    3      C       1.4909203662     0.3367582974    -0.4177838583
    4      C      -1.2227722681     1.2652754643    -0.2345295060
    5      O       2.4794071129     0.2069212582     0.5013164054
    6      O       1.4599007613     1.1281261782    -1.3437118584
    7      O      -0.5671603921     1.9341318938     0.7477851812
    8      O      -2.0192894914     1.7300109239    -1.0316062059
    9      C      -0.7911410252     3.3435492204     0.7249274575
   10      C       3.5538033154     1.1302705963     0.3241165186
   11      C       0.6908325096    -2.0150972909     0.0112251320
   12      C      -0.3765806243    -2.9000235158     0.2224235647
   13      C      -1.6950140119    -2.4427633611     0.2572883515
   14      C      -1.9865449822    -1.0814074782     0.0977300441
   15      H      -0.4624112412     3.7697958433    -0.2274740049
   16      H       4.0453282984     0.9641147078    -0.6391930950
   17      H      -2.4970302573    -3.1634910569     0.4061222542
   18      H      -1.8474376543     3.5666794906     0.9059890877
   19      H      -0.2002982988     3.7931790170     1.5273126011
   20      H       4.2838919982     0.9582831261     1.1198280401
   21      H       3.1925407862     2.1609409489     0.4023597877
   22      H      -0.1906002296    -3.9666582263     0.3443320837
   23      C      -3.4222635693    -0.6326602424     0.1288918324
   24      C       2.0849910947    -2.5767940219    -0.0602005081
   25      H       2.6449814024    -2.1343937269    -0.8905256458
   26      H       2.0671057384    -3.6580417916    -0.2367433488
   27      H       2.6144009167    -2.3996751371     0.8812702249
   28      H      -3.7454857248    -0.3261374563    -0.8709002559
   29      H      -3.5543120453     0.1968300833     0.8302013215
   30      H      -4.0860980650    -1.4390523749     0.4598971058
 ----------------------------------------------------------------
 Molecular Point Group                 C1    NOp =  1
 Largest Abelian Subgroup              C1    NOp =  1
 Nuclear Repulsion Energy =  1141.1730988225 hartrees
 There are       59 alpha and       59 beta electrons
 Requested basis set is 6-311++G(d,p)
 There are 166 shells and 450 basis functions

 Total QAlloc Memory Limit   4000 MB
 Mega-Array Size       392 MB
 MEM_STATIC part       400 MB
 A cutoff of  1.0D-12 yielded  11216 shell pairs
 There are     84922 function pairs (     90838 Cartesian)
 
 -------------------------------------------------------
 OpenMP Integral Computing Module                       
 Release: version 1.0, May 2013, Q-Chem Inc. Pittsburgh 
 -------------------------------------------------------
 Integral Job Info:
 Integral job number is                      11
 Integral operator is                         1
 short-range coefficients                     0
 long-range coefficients              100000000
 Omega coefficients                           0
 if combine SR and LR in K                    0
 Integral screening is                        0
 Integral computing path is                   2
 max size of driver memory is            800000
 size of driver memory is                593474
 size of scratch memory is              2260544
 max col of scratch BK array               1296
 max len of scratch array in speh3          155
 max len of scratch index in speh4           18
 max int batch size is                      520
 min int batch size is                       52
 fixed nKL is                                52
 max L of basis functions is                  2
 order of int derivative is                   0
 number of shells is                        166
 number of basis is                         466
 number of cartesian basis is               466
 number of contracted shell pairs         11216
 number of primitive shell pairs          25499
 maxK2 (contraction) of shell pair           36
 max number of K2 of shell pair               1
 max number of CS2 of shell pair           2072
 max number of PS2 of shell pair           3972
 mem total for path MDJ                  164104
 -------------------------------------------------------
 Smallest overlap matrix eigenvalue = 5.37E-08
 Linear dependence detected in AO basis
 Number of orthogonalized atomic orbitals = 447
 Maximum deviation from orthogonality = 2.383E-10

 Scale SEOQF with 1.000000e-01/1.000000e-01/1.000000e-01

 Standard Electronic Orientation quadrupole field applied
 Nucleus-field energy     =     0.0000000413 hartrees
 Guess from superposition of atomic densities
 Warning:  Energy on first SCF cycle will be non-variational
 A restricted hybrid HF-DFT SCF calculation will be
 performed using Pulay DIIS extrapolation
 Exchange:     0.2000 Hartree-Fock + 0.0800 Slater + 0.7200 B88
 Correlation:  0.1900 VWN1RPA + 0.8100 LYP
 Using SG-1 standard quadrature grid
 Dispersion:   Grimme D3
 SCF converges when DIIS error is below 1.0E-08
 -------------------------------------------------------
 OpenMP Integral computing Module                
 Release: version 1.0, May 2013, Q-Chem Inc. Pittsburgh 
 -------------------------------------------------------
 -------------------------------------------------------
 OpenMP BLAS3 based DFT computing Module                
 Release: version 1.0, May 2013, Q-Chem Inc. Pittsburgh 
 -------------------------------------------------------
 ---------------------------------------
  Cycle       Energy         DIIS Error
 ---------------------------------------
    1    -770.1506768326      3.02E-02
    2    -766.5441504547      3.88E-03
    3    -766.0139491297      6.66E-03
    4    -766.8057764575      1.73E-03
    5    -766.8659214728      3.95E-04
    6    -766.8681497635      1.88E-04
    7    -766.8688050347      3.48E-05
    8    -766.8688242450      1.81E-05
    9    -766.8688325232      4.05E-06
   10    -766.8688328838      1.39E-06
   11    -766.8688329148      7.94E-07
   12    -766.8688329262      1.65E-07
   13    -766.8688329267      5.54E-08
   14    -766.8688329267      1.28E-08
   15    -766.8688329267      7.94E-09 Convergence criterion met
 ---------------------------------------
 SCF time:  CPU 1566.96 s  wall 77.50 s
 SCF   energy in the final basis set = -766.8688329267
 Total energy in the final basis set = -766.8688329267
 
 --------------------------------------------------------------
 
                    Orbital Energies (a.u.)
 --------------------------------------------------------------
 
 Alpha MOs
 -- Occupied --
-19.183 -19.179 -19.125 -19.120 -10.314 -10.310 -10.233 -10.227
-10.203 -10.202 -10.202 -10.200 -10.187 -10.186 -10.175 -10.169
 -1.120  -1.114  -1.034  -1.029  -0.882  -0.808  -0.794  -0.749
 -0.731  -0.724  -0.672  -0.646  -0.621  -0.578  -0.570  -0.529
 -0.519  -0.513  -0.493  -0.490  -0.484  -0.474  -0.470  -0.441
 -0.436  -0.427  -0.425  -0.413  -0.409  -0.407  -0.393  -0.386
 -0.378  -0.371  -0.362  -0.356  -0.354  -0.322  -0.315  -0.300
 -0.289  -0.264  -0.250
 -- Virtual --
 -0.056  -0.036  -0.013  -0.004  -0.001   0.006   0.010   0.015
  0.018   0.024   0.031   0.035   0.039   0.039   0.045   0.052
  0.055   0.059   0.066   0.070   0.078   0.082   0.089   0.092
  0.095   0.098   0.104   0.107   0.111   0.115   0.117   0.121
  0.122   0.125   0.130   0.135   0.136   0.140   0.142   0.145
  0.147   0.150   0.154   0.156   0.158   0.162   0.167   0.168
  0.170   0.173   0.179   0.187   0.188   0.194   0.196   0.201
  0.202   0.207   0.208   0.209   0.212   0.222   0.227   0.237
  0.238   0.243   0.246   0.257   0.259   0.263   0.265   0.270
  0.280   0.282   0.287   0.292   0.295   0.299   0.303   0.306
  0.315   0.317   0.318   0.323   0.332   0.341   0.343   0.351
  0.353   0.356   0.362   0.366   0.371   0.376   0.384   0.388
  0.396   0.400   0.405   0.409   0.421   0.424   0.426   0.434
  0.456   0.464   0.476   0.483   0.491   0.505   0.506   0.515
  0.521   0.532   0.542   0.552   0.556   0.568   0.575   0.579
  0.588   0.594   0.602   0.614   0.626   0.630   0.633   0.641
  0.647   0.648   0.659   0.662   0.664   0.667   0.676   0.680
  0.686   0.690   0.692   0.702   0.702   0.721   0.721   0.735
  0.743   0.746   0.756   0.758   0.774   0.783   0.794   0.805
  0.811   0.827   0.848   0.856   0.866   0.885   0.897   0.917
  0.935   0.941   0.964   0.970   0.976   0.981   1.008   1.022
  1.041   1.048   1.056   1.071   1.082   1.089   1.103   1.120
  1.130   1.173   1.180   1.185   1.201   1.217   1.227   1.254
  1.266   1.271   1.289   1.296   1.316   1.335   1.339   1.355
  1.372   1.376   1.390   1.406   1.411   1.422   1.434   1.444
  1.454   1.454   1.470   1.483   1.502   1.508   1.527   1.536
  1.542   1.555   1.559   1.565   1.573   1.591   1.592   1.598
  1.600   1.612   1.615   1.630   1.639   1.644   1.669   1.687
  1.692   1.700   1.711   1.715   1.727   1.739   1.762   1.766
  1.771   1.783   1.787   1.824   1.827   1.842   1.845   1.871
  1.884   1.889   1.898   1.929   1.948   1.966   1.982   1.989
  2.006   2.017   2.023   2.049   2.083   2.087   2.100   2.123
  2.131   2.134   2.141   2.161   2.168   2.182   2.201   2.230
  2.246   2.288   2.309   2.331   2.342   2.397   2.413   2.437
  2.443   2.468   2.473   2.478   2.494   2.496   2.512   2.525
  2.539   2.551   2.560   2.581   2.588   2.594   2.600   2.616
  2.633   2.653   2.657   2.682   2.691   2.698   2.725   2.732
  2.759   2.765   2.788   2.798   2.818   2.834   2.845   2.855
  2.875   2.893   2.895   2.909   2.912   2.938   2.955   2.979
  3.005   3.009   3.031   3.045   3.065   3.076   3.105   3.107
  3.133   3.170   3.182   3.199   3.218   3.234   3.270   3.274
  3.324   3.325   3.362   3.383   3.431   3.435   3.515   3.554
  3.570   3.594   3.663   3.694   3.759   3.788   3.795   3.800
  3.813   3.824   3.827   3.833   3.854   3.950   4.037   4.044
  4.076   4.137   4.142   4.242   4.329   4.339   4.391   4.854
  5.060   5.102   5.120   5.169   5.230   5.243   5.400   5.417
  5.626   5.636   5.835   5.861  23.552  23.845  23.865  23.902
 23.921  23.931  23.932  23.946  23.992  24.047  24.052  24.142
 49.891  49.895  49.997  50.024
 --------------------------------------------------------------
 
          Ground-State Mulliken Net Atomic Charges

     Atom                 Charge (a.u.)
  ----------------------------------------
      1 C                     0.390720
      2 C                     0.357260
      3 C                    -0.863272
      4 C                    -0.551920
      5 O                     0.029349
      6 O                    -0.140351
      7 O                     0.062621
      8 O                    -0.165219
      9 C                    -0.228094
     10 C                    -0.223142
     11 C                     0.555395
     12 C                    -0.465013
     13 C                    -0.612412
     14 C                     0.620812
     15 H                     0.195518
     16 H                     0.187178
     17 H                     0.127930
     18 H                     0.169075
     19 H                     0.152306
     20 H                     0.158597
     21 H                     0.161267
     22 H                     0.142450
     23 C                    -0.537829
     24 C                    -0.553598
     25 H                     0.165195
     26 H                     0.144199
     27 H                     0.198572
     28 H                     0.203578
     29 H                     0.175249
     30 H                     0.143579
  ----------------------------------------
  Sum of atomic charges =     0.000000

 -----------------------------------------------------------------
                    Cartesian Multipole Moments
 -----------------------------------------------------------------
    Charge (ESU x 10^10)
                 0.0000
    Dipole Moment (Debye)
         X       1.7176      Y      -1.1039      Z       2.8498
       Tot       3.5057
    Quadrupole Moments (Debye-Ang)
        XX     -84.2966     XY       4.2710     YY     -82.6852
        XZ      -2.2423     YZ       6.8876     ZZ    -102.2256
    Octopole Moments (Debye-Ang^2)
       XXX      42.6214    XXY       1.8721    XYY       4.6730
       YYY      30.4367    XXZ      13.8853    XYZ      -1.0465
       YYZ      19.4371    XZZ       5.7376    YZZ       6.1569
       ZZZ       4.2223
    Hexadecapole Moments (Debye-Ang^3)
      XXXX   -2124.9613   XXXY      81.2014   XXYY    -708.5087
      XYYY      -3.8861   YYYY   -1852.4949   XXXZ      -0.9859
      XXYZ      28.7525   XYYZ     -15.8753   YYYZ      29.0729
      XXZZ    -440.6103   XYZZ      -6.7364   YYZZ    -412.0159
      XZZZ      11.3612   YZZZ      14.1682   ZZZZ    -307.9533
 -----------------------------------------------------------------
 Calculating analytic gradient of the SCF energy
 Gradient of SCF Energy
            1           2           3           4           5           6
    1   0.0121063  -0.0017136   0.0040128   0.0148594   0.0019890  -0.0086484
    2   0.0138483   0.0178453  -0.0029868   0.0018659  -0.0100391   0.0092289
    3   0.0022965   0.0012548   0.0041780   0.0052899   0.0105458  -0.0177354
            7           8           9          10          11          12
    1   0.0068802  -0.0189475  -0.0018889  -0.0134969   0.0046230   0.0050613
    2  -0.0063288  -0.0001880  -0.0152618  -0.0060210   0.0020237  -0.0057223
    3   0.0109587  -0.0183254  -0.0044705  -0.0026829  -0.0032586   0.0022528
           13          14          15          16          17          18
    1  -0.0086589  -0.0008713   0.0033710   0.0023969  -0.0005577  -0.0015242
    2  -0.0020345   0.0051802   0.0014976  -0.0028620  -0.0036053   0.0003794
    3  -0.0004093   0.0014307  -0.0003001  -0.0002297  -0.0000315   0.0034686
           19          20          21          22          23          24
    1  -0.0002772   0.0049119  -0.0002019  -0.0017669   0.0042578  -0.0029304
    2   0.0057131   0.0034878   0.0023267  -0.0036530   0.0007958   0.0031574
    3   0.0003347   0.0000869   0.0033319   0.0012105  -0.0010592   0.0024496
           25          26          27          28          29          30
    1  -0.0021137   0.0021467  -0.0024621   0.0006397   0.0020926  -0.0032890
    2  -0.0004439  -0.0020960  -0.0010697  -0.0033611  -0.0015938  -0.0000827
    3  -0.0040467  -0.0011741   0.0033936  -0.0032573   0.0039134   0.0005845
 Max gradient component =       1.895E-02
 RMS gradient           =       6.284E-03
 Gradient time:  CPU 485.15 s  wall 29.67 s
 Geometry Optimization Parameters
   NAtoms,    NIC,     NZ,  NCons,   NDum,   NFix, NCnnct, MaxDiis
       30     194       0       2       0       0       0       0


** CONSTRAINED OPTIMIZATION IN DELOCALIZED INTERNAL COORDINATES **
   Searching for a Minimum

   Optimization Cycle:   1

                       Coordinates (Angstroms)
     ATOM                X               Y               Z
      1  C         0.4125011125   -0.6355076896   -0.1241194854
      2  C        -0.9199718424   -0.1775825584   -0.0970935988
      3  C         1.4909203662    0.3367582974   -0.4177838583
      4  C        -1.2227722681    1.2652754643   -0.2345295060
      5  O         2.4794071129    0.2069212582    0.5013164054
      6  O         1.4599007613    1.1281261782   -1.3437118584
      7  O        -0.5671603921    1.9341318938    0.7477851812
      8  O        -2.0192894914    1.7300109239   -1.0316062059
      9  C        -0.7911410252    3.3435492204    0.7249274575
     10  C         3.5538033154    1.1302705963    0.3241165186
     11  C         0.6908325096   -2.0150972909    0.0112251320
     12  C        -0.3765806243   -2.9000235158    0.2224235647
     13  C        -1.6950140119   -2.4427633611    0.2572883515
     14  C        -1.9865449822   -1.0814074782    0.0977300441
     15  H        -0.4624112412    3.7697958433   -0.2274740049
     16  H         4.0453282984    0.9641147078   -0.6391930950
     17  H        -2.4970302573   -3.1634910569    0.4061222542
     18  H        -1.8474376543    3.5666794906    0.9059890877
     19  H        -0.2002982988    3.7931790170    1.5273126011
     20  H         4.2838919982    0.9582831261    1.1198280401
     21  H         3.1925407862    2.1609409489    0.4023597877
     22  H        -0.1906002296   -3.9666582263    0.3443320837
     23  C        -3.4222635693   -0.6326602424    0.1288918324
     24  C         2.0849910947   -2.5767940219   -0.0602005081
     25  H         2.6449814024   -2.1343937269   -0.8905256458
     26  H         2.0671057384   -3.6580417916   -0.2367433488
     27  H         2.6144009167   -2.3996751371    0.8812702249
     28  H        -3.7454857248   -0.3261374563   -0.8709002559
     29  H        -3.5543120453    0.1968300833    0.8302013215
     30  H        -4.0860980650   -1.4390523749    0.4598971058
   Point Group: c1    Number of degrees of freedom:    84


   Energy is   -766.868832927

              Constraints and their Current Values
                                        Value     Constraint
   Dihedral:        2   1   3   5      131.435      135.200
   Dihedral:        1   2   4   7      -57.239      -57.300

 Attempting to Generate Delocalized Internal Coordinates

   Using Lagrange Multiplier Algorithm


 86 Hessian modes will be used to form the next step
  Hessian Eigenvalues:
    -0.977753   -0.977753    0.045000    0.045000    0.045000    0.045000
     0.045000    0.045000    0.045000    0.045000    0.045000    0.045001
     0.045002    0.045003    0.045005    0.045012    0.045013    0.045137
     0.045284    0.093755    0.094007    0.094234    0.094419    0.113828
     0.113875    0.116854    0.116890    0.159975    0.159998    0.160000
     0.160000    0.160000    0.160000    0.160000    0.160000    0.160000
     0.160000    0.160000    0.160000    0.160000    0.160000    0.224723
     0.244737    0.248923    0.249138    0.249624    0.249908    0.249990
     0.249993    0.250000    0.250000    0.250000    0.250000    0.250000
     0.318837    0.319059    0.341608    0.341647    0.342469    0.342555
     0.342769    0.342935    0.342935    0.343290    0.343371    0.343554
     0.344100    0.344105    0.344456    0.344917    0.348625    0.349867
     0.408089    0.409183    0.413229    0.413817    0.437594    0.446154
     0.449565    0.458786    0.535065    0.537664    0.958663    0.960829
     1.022753    1.022753

 Minimum Search - Taking P-RFO Step
 Searching for Lamda that Maximizes Along the Constraint modes Only
 Value Taken    Lamda =   0.00228548
 Searching for Lamda that Minimizes Along All other modes
 Value Taken    Lamda =  -0.01316971
 Step Taken.  Stepsize is  0.230704

                             Maximum     Tolerance    Cnvgd?
         Gradient            0.065716       0.000300      NO
         Displacement        0.071430       0.000001      NO
         Energy change     *********       0.000001      NO


 New Cartesian Coordinates Obtained by Inverse Iteration

 Displacement from previous Coordinates is:  0.653504
 Adding empirical dispersion correction 
 ----------------------------------------------------------------
 Doing -D3(op) with
 s6 =   1.00000
 s8 =   0.78311
 a1 =   0.30000
 a2 =   4.25000
 n  =  10.00000
 -D3 energy without 3body term =     -0.0328261390 hartrees
 ----------------------------------------------------------------
             Standard Nuclear Orientation (Angstroms)
    I     Atom           X                Y                Z
 ----------------------------------------------------------------
    1      C       0.3967766519    -0.6583130659    -0.0720350948
    2      C      -0.9372547589    -0.2064774718    -0.0502209502
    3      C       1.4762633851     0.3432785352    -0.3419478057
    4      C      -1.2423706736     1.2545877970    -0.1862020962
    5      O       2.5273597674     0.2119906170     0.4959730595
    6      O       1.4500601450     1.1589850656    -1.2322025451
    7      O      -0.6261915253     1.9870459211     0.7712552410
    8      O      -1.9864052580     1.7398355404    -1.0014478346
    9      C      -0.8167485924     3.4089442910     0.6956112019
   10      C       3.6161043254     1.1263565995     0.2927504411
   11      C       0.6880647179    -2.0312689415     0.0274651031
   12      C      -0.3815622449    -2.9096671491     0.2013233387
   13      C      -1.6962134059    -2.4591754378     0.2412023637
   14      C      -2.0054159761    -1.1058674425     0.1081105875
   15      H      -0.4532703836     3.7940753316    -0.2585287684
   16      H       4.0577365572     0.9940123335    -0.6967472356
   17      H      -2.4995661863    -3.1767827546     0.3662959933
   18      H      -1.8701288405     3.6655781768     0.8219522776
   19      H      -0.2334924070     3.8321227149     1.5128601584
   20      H       4.3513110765     0.8875358868     1.0602946096
   21      H       3.2795670545     2.1576869599     0.4106675914
   22      H      -0.1840523360    -3.9723261009     0.2911421163
   23      C      -3.4494609873    -0.6576621679     0.1303714095
   24      C       2.0923751564    -2.5870446740    -0.0533464602
   25      H       2.6707580073    -2.1245429588    -0.8561088757
   26      H       2.0600997365    -3.6600053027    -0.2559323983
   27      H       2.6333189008    -2.4362936012     0.8834673984
   28      H      -3.7722505573    -0.3181164687    -0.8557760728
   29      H      -3.6130716054     0.1611879595     0.8351171284
   30      H      -4.0961460540    -1.4840990713     0.4337717411
 ----------------------------------------------------------------
 Molecular Point Group                 C1    NOp =  1
 Largest Abelian Subgroup              C1    NOp =  1
 Nuclear Repulsion Energy =  1137.6507724376 hartrees
 There are       59 alpha and       59 beta electrons
 Applying Cartesian multipole field
    Component          Value
    ---------          -----
     (2,0,0)        1.00000E-11
     (0,2,0)        2.00000E-11
     (0,0,2)       -3.00000E-11
 Nucleus-field energy     =     0.0000000427 hartrees
 Requested basis set is 6-311++G(d,p)
 There are 166 shells and 450 basis functions
 A cutoff of  1.0D-12 yielded  11174 shell pairs
 There are     84560 function pairs (     90417 Cartesian)
 Smallest overlap matrix eigenvalue = 5.00E-08
 Linear dependence detected in AO basis
 Number of orthogonalized atomic orbitals = 447
 Maximum deviation from orthogonality = 7.262E-10
 Guess MOs from SCF MO coefficient file
 Reading MOs from coefficient file
 Reading MOs from coefficient file
 A restricted hybrid HF-DFT SCF calculation will be
 performed using Pulay DIIS extrapolation
 Exchange:     0.2000 Hartree-Fock + 0.0800 Slater + 0.7200 B88
 Correlation:  0.1900 VWN1RPA + 0.8100 LYP
 Using SG-1 standard quadrature grid
 Dispersion:   Grimme D3
 SCF converges when DIIS error is below 1.0E-08
 Geometry optimization detected.  Setting ReadMinima to 0
 Setting SaveMinima to 0
 -------------------------------------------------------
 OpenMP Integral computing Module                
 Release: version 1.0, May 2013, Q-Chem Inc. Pittsburgh 
 -------------------------------------------------------
 -------------------------------------------------------
 OpenMP BLAS3 based DFT computing Module                
 Release: version 1.0, May 2013, Q-Chem Inc. Pittsburgh 
 -------------------------------------------------------
 ---------------------------------------
  Cycle       Energy         DIIS Error
 ---------------------------------------
    1    -766.8975509029      1.33E-03
    2    -766.8725204599      2.64E-04
    3    -766.8702577074      4.39E-04
    4    -766.8740128995      9.31E-05
    5    -766.8741555737      3.31E-05
    6    -766.8741750730      8.94E-06
    7    -766.8741764930      2.94E-06
    8    -766.8741766550      1.41E-06
    9    -766.8741767030      3.45E-07
   10    -766.8741767058      8.75E-08
   11    -766.8741767059      2.75E-08
   12    -766.8741767059      2.18E-08
   13    -766.8741767060      3.99E-09 Convergence criterion met
 ---------------------------------------
 SCF time:  CPU 1384.12 s  wall 68.66 s
 SCF   energy in the final basis set = -766.8741767060
 Total energy in the final basis set = -766.8741767060
 
 --------------------------------------------------------------
 
                    Orbital Energies (a.u.)
 --------------------------------------------------------------
 
 Alpha MOs
 -- Occupied --
-19.177 -19.171 -19.120 -19.115 -10.312 -10.307 -10.232 -10.225
-10.206 -10.205 -10.202 -10.201 -10.187 -10.186 -10.175 -10.171
 -1.120  -1.112  -1.031  -1.025  -0.885  -0.809  -0.792  -0.747
 -0.732  -0.726  -0.675  -0.648  -0.621  -0.576  -0.567  -0.529
 -0.520  -0.512  -0.490  -0.486  -0.480  -0.475  -0.469  -0.440
 -0.436  -0.428  -0.424  -0.414  -0.412  -0.407  -0.394  -0.388
 -0.379  -0.371  -0.359  -0.358  -0.356  -0.319  -0.310  -0.298
 -0.287  -0.265  -0.254
 -- Virtual --
 -0.056  -0.034  -0.012  -0.004  -0.001   0.010   0.011   0.015
  0.020   0.024   0.031   0.035   0.039   0.039   0.045   0.052
  0.055   0.060   0.066   0.069   0.077   0.081   0.089   0.092
  0.095   0.098   0.104   0.107   0.111   0.115   0.117   0.121
  0.123   0.125   0.130   0.134   0.136   0.139   0.142   0.146
  0.146   0.149   0.153   0.156   0.159   0.163   0.167   0.168
  0.169   0.173   0.179   0.187   0.188   0.194   0.196   0.201
  0.202   0.207   0.208   0.209   0.212   0.221   0.225   0.239
  0.239   0.243   0.247   0.255   0.259   0.261   0.267   0.270
  0.281   0.283   0.288   0.292   0.297   0.302   0.304   0.307
  0.315   0.317   0.320   0.323   0.336   0.342   0.345   0.351
  0.355   0.358   0.363   0.366   0.369   0.373   0.385   0.390
  0.397   0.401   0.404   0.409   0.419   0.422   0.427   0.438
  0.449   0.462   0.476   0.482   0.491   0.502   0.510   0.516
  0.525   0.537   0.547   0.555   0.558   0.565   0.574   0.580
  0.587   0.591   0.600   0.611   0.625   0.632   0.635   0.640
  0.649   0.654   0.657   0.662   0.664   0.669   0.675   0.682
  0.686   0.691   0.694   0.700   0.707   0.718   0.722   0.739
  0.743   0.750   0.758   0.762   0.776   0.785   0.796   0.806
  0.808   0.828   0.848   0.861   0.865   0.890   0.902   0.916
  0.934   0.940   0.963   0.971   0.981   0.982   1.009   1.021
  1.044   1.047   1.059   1.067   1.080   1.081   1.102   1.122
  1.134   1.170   1.180   1.197   1.208   1.216   1.228   1.250
  1.264   1.273   1.291   1.304   1.321   1.333   1.341   1.352
  1.361   1.374   1.383   1.398   1.411   1.426   1.434   1.444
  1.454   1.458   1.468   1.485   1.494   1.506   1.527   1.533
  1.544   1.547   1.558   1.565   1.571   1.588   1.593   1.598
  1.605   1.615   1.619   1.634   1.639   1.647   1.667   1.683
  1.699   1.705   1.716   1.720   1.727   1.748   1.757   1.765
  1.772   1.776   1.788   1.818   1.823   1.828   1.835   1.867
  1.880   1.887   1.895   1.923   1.943   1.966   1.981   1.988
  2.008   2.015   2.024   2.048   2.089   2.095   2.099   2.125
  2.133   2.136   2.139   2.161   2.168   2.185   2.202   2.234
  2.250   2.295   2.314   2.329   2.338   2.406   2.416   2.444
  2.452   2.471   2.479   2.484   2.500   2.505   2.516   2.530
  2.542   2.557   2.564   2.582   2.587   2.593   2.599   2.616
  2.631   2.645   2.652   2.680   2.688   2.694   2.729   2.731
  2.757   2.762   2.779   2.799   2.823   2.832   2.844   2.855
  2.873   2.888   2.892   2.904   2.909   2.936   2.951   2.976
  3.008   3.011   3.021   3.049   3.061   3.074   3.107   3.116
  3.136   3.169   3.175   3.194   3.225   3.236   3.258   3.263
  3.299   3.302   3.372   3.390   3.434   3.440   3.528   3.591
  3.597   3.620   3.672   3.704   3.765   3.782   3.791   3.803
  3.804   3.815   3.839   3.846   3.874   3.941   4.051   4.055
  4.081   4.131   4.135   4.235   4.319   4.327   4.386   4.860
  5.063   5.105   5.119   5.173   5.240   5.260   5.385   5.404
  5.616   5.621   5.861   5.882  23.541  23.844  23.864  23.903
 23.927  23.936  23.941  23.950  23.995  24.060  24.070  24.166
 49.893  49.897  50.010  50.039
 --------------------------------------------------------------
 
          Ground-State Mulliken Net Atomic Charges

     Atom                 Charge (a.u.)
  ----------------------------------------
      1 C                     0.424639
      2 C                     0.381209
      3 C                    -0.788725
      4 C                    -0.554759
      5 O                    -0.005501
      6 O                    -0.161623
      7 O                     0.039253
      8 O                    -0.172396
      9 C                    -0.225129
     10 C                    -0.223368
     11 C                     0.596597
     12 C                    -0.530661
     13 C                    -0.606277
     14 C                     0.609345
     15 H                     0.192217
     16 H                     0.186957
     17 H                     0.125015
     18 H                     0.167537
     19 H                     0.152162
     20 H                     0.156969
     21 H                     0.163058
     22 H                     0.137750
     23 C                    -0.565367
     24 C                    -0.535628
     25 H                     0.167936
     26 H                     0.143691
     27 H                     0.200364
     28 H                     0.203512
     29 H                     0.176505
     30 H                     0.144720
  ----------------------------------------
  Sum of atomic charges =     0.000000

 -----------------------------------------------------------------
                    Cartesian Multipole Moments
 -----------------------------------------------------------------
    Charge (ESU x 10^10)
                 0.0000
    Dipole Moment (Debye)
         X       1.6332      Y      -1.2665      Z       2.5896
       Tot       3.3132
    Quadrupole Moments (Debye-Ang)
        XX     -83.3009     XY       4.1559     YY     -82.4215
        XZ      -2.4160     YZ       6.5614     ZZ    -102.0055
    Octopole Moments (Debye-Ang^2)
       XXX      43.2375    XXY       2.9750    XYY       4.3469
       YYY      31.7972    XXZ      10.9046    XYZ      -1.3787
       YYZ      16.4607    XZZ       6.8432    YZZ       6.3674
       ZZZ      -1.9162
    Hexadecapole Moments (Debye-Ang^3)
      XXXX   -2141.8125   XXXY      78.8900   XXYY    -716.4078
      XYYY      -8.4765   YYYY   -1882.1938   XXXZ      -2.6286
      XXYZ      24.8534   XYYZ     -14.7748   YYYZ      27.6720
      XXZZ    -443.6280   XYZZ      -5.8401   YYZZ    -416.2959
      XZZZ       9.0953   YZZZ       8.9529   ZZZZ    -288.5120
 -----------------------------------------------------------------
 Calculating analytic gradient of the SCF energy
 Gradient of SCF Energy
            1           2           3           4           5           6
    1   0.0023098  -0.0024584  -0.0069914   0.0018302   0.0036171   0.0031351
    2  -0.0005933   0.0000905   0.0010954  -0.0065792   0.0010179  -0.0013759
    3   0.0011776  -0.0009721   0.0014255  -0.0018202  -0.0019780  -0.0001490
            7           8           9          10          11          12
    1  -0.0016765   0.0010050  -0.0010981  -0.0033290  -0.0025974   0.0024961
    2   0.0043413   0.0031041  -0.0029744  -0.0007664  -0.0008493  -0.0001854
    3   0.0000402   0.0011148  -0.0010843  -0.0011201  -0.0022402   0.0012215
           13          14          15          16          17          18
    1  -0.0021651   0.0013530   0.0009949   0.0015343   0.0003792   0.0001031
    2   0.0010669  -0.0017454   0.0009491  -0.0004279  -0.0000507   0.0006322
    3  -0.0003752   0.0012675   0.0005629   0.0004771  -0.0004345   0.0013156
           19          20          21          22          23          24
    1   0.0000346   0.0013651   0.0006575  -0.0003299   0.0001446   0.0011164
    2   0.0017911   0.0009542   0.0003257   0.0001602   0.0021207   0.0017648
    3   0.0000699  -0.0000142   0.0012081   0.0003814  -0.0011164   0.0013484
           25          26          27          28          29          30
    1  -0.0002431   0.0006686  -0.0006820  -0.0004539  -0.0002480  -0.0004719
    2  -0.0008072  -0.0000150  -0.0010426  -0.0012907  -0.0009019   0.0001913
    3  -0.0011202  -0.0005953   0.0004616  -0.0001914   0.0009613   0.0001777
 Max gradient component =       6.991E-03
 RMS gradient           =       1.740E-03
 Gradient time:  CPU 481.86 s  wall 29.69 s
 Geometry Optimization Parameters
   NAtoms,    NIC,     NZ,  NCons,   NDum,   NFix, NCnnct, MaxDiis
       30     194       0       2       0       0       0       0

 Cartesian Hessian Update
 Hessian Updated using BFGS Update


** CONSTRAINED OPTIMIZATION IN DELOCALIZED INTERNAL COORDINATES **
   Searching for a Minimum

   Optimization Cycle:   2

                       Coordinates (Angstroms)
     ATOM                X               Y               Z
      1  C         0.3967766519   -0.6583130659   -0.0720350948
      2  C        -0.9372547589   -0.2064774718   -0.0502209502
      3  C         1.4762633851    0.3432785352   -0.3419478057
      4  C        -1.2423706736    1.2545877970   -0.1862020962
      5  O         2.5273597674    0.2119906170    0.4959730595
      6  O         1.4500601450    1.1589850656   -1.2322025451
      7  O        -0.6261915253    1.9870459211    0.7712552410
      8  O        -1.9864052580    1.7398355404   -1.0014478346
      9  C        -0.8167485924    3.4089442910    0.6956112019
     10  C         3.6161043254    1.1263565995    0.2927504411
     11  C         0.6880647179   -2.0312689415    0.0274651031
     12  C        -0.3815622449   -2.9096671491    0.2013233387
     13  C        -1.6962134059   -2.4591754378    0.2412023637
     14  C        -2.0054159761   -1.1058674425    0.1081105875
     15  H        -0.4532703836    3.7940753316   -0.2585287684
     16  H         4.0577365572    0.9940123335   -0.6967472356
     17  H        -2.4995661863   -3.1767827546    0.3662959933
     18  H        -1.8701288405    3.6655781768    0.8219522776
     19  H        -0.2334924070    3.8321227149    1.5128601584
     20  H         4.3513110765    0.8875358868    1.0602946096
     21  H         3.2795670545    2.1576869599    0.4106675914
     22  H        -0.1840523360   -3.9723261009    0.2911421163
     23  C        -3.4494609873   -0.6576621679    0.1303714095
     24  C         2.0923751564   -2.5870446740   -0.0533464602
     25  H         2.6707580073   -2.1245429588   -0.8561088757
     26  H         2.0600997365   -3.6600053027   -0.2559323983
     27  H         2.6333189008   -2.4362936012    0.8834673984
     28  H        -3.7722505573   -0.3181164687   -0.8557760728
     29  H        -3.6130716054    0.1611879595    0.8351171284
     30  H        -4.0961460540   -1.4840990713    0.4337717411
   Point Group: c1    Number of degrees of freedom:    84


   Energy is   -766.874176706

              Constraints and their Current Values
                                        Value     Constraint
   Dihedral:        2   1   3   5      135.172      135.200
   Dihedral:        1   2   4   7      -57.301      -57.300
 Hessian Updated using BFGS Update

   Using Lagrange Multiplier Algorithm


 70 Hessian modes will be used to form the next step
  Hessian Eigenvalues:
    -0.978023   -0.977413    0.043677    0.045000    0.045000    0.045000
     0.045000    0.045001    0.045002    0.045005    0.045009    0.045013
     0.045069    0.045138    0.046004    0.092549    0.093882    0.094227
     0.094414    0.112436    0.113853    0.116859    0.116890    0.151127
     0.159976    0.159999    0.161115    0.224725    0.242648    0.248787
     0.248934    0.249608    0.249731    0.249942    0.249992    0.249998
     0.250000    0.300730    0.318931    0.322921    0.341380    0.341625
     0.342139    0.342511    0.342723    0.342934    0.342956    0.343223
     0.343296    0.343486    0.343709    0.344291    0.344428    0.348363
     0.349563    0.354314    0.407979    0.409318    0.413399    0.415293
     0.437842    0.446049    0.448549    0.459759    0.533941    0.536747
     0.955342    0.961632    1.022610    1.023507

 Minimum Search - Taking P-RFO Step
 Searching for Lamda that Maximizes Along the Constraint modes Only
 Value Taken    Lamda =   0.00000279
 Searching for Lamda that Minimizes Along All other modes
 Value Taken    Lamda =  -0.00077312
 Step Taken.  Stepsize is  0.090473

                             Maximum     Tolerance    Cnvgd?
         Gradient            0.004364       0.000300      NO
         Displacement        0.025269       0.000001      NO
         Energy change     -0.005344       0.000001      NO


 New Cartesian Coordinates Obtained by Inverse Iteration

 Displacement from previous Coordinates is:  0.243901
 Adding empirical dispersion correction 
 ----------------------------------------------------------------
 Doing -D3(op) with
 s6 =   1.00000
 s8 =   0.78311
 a1 =   0.30000
 a2 =   4.25000
 n  =  10.00000
 -D3 energy without 3body term =     -0.0329436196 hartrees
 ----------------------------------------------------------------
             Standard Nuclear Orientation (Angstroms)
    I     Atom           X                Y                Z
 ----------------------------------------------------------------
    1      C       0.3933665543    -0.6560408124    -0.0702491071
    2      C      -0.9397104573    -0.2079339528    -0.0407845639
    3      C       1.4697420629     0.3508673108    -0.3336464163
    4      C      -1.2519048268     1.2507076998    -0.1834715597
    5      O       2.5176566308     0.2070034493     0.5026139659
    6      O       1.4224257760     1.1915786288    -1.1991721287
    7      O      -0.6271565562     1.9800507011     0.7672105687
    8      O      -2.0003474468     1.7202113694    -1.0028012918
    9      C      -0.7964250732     3.4036853309     0.6727573960
   10      C       3.6064277940     1.1242575669     0.3103014857
   11      C       0.6903705708    -2.0273117614     0.0233912166
   12      C      -0.3789692179    -2.9082364884     0.1906855079
   13      C      -1.6926251159    -2.4607577366     0.2418066051
   14      C      -2.0061240463    -1.1072529199     0.1160041986
   15      H      -0.4260539052     3.7638463332    -0.2879898347
   16      H       4.0368292894     1.0055253573    -0.6853102766
   17      H      -2.4955958030    -3.1787468965     0.3686540976
   18      H      -1.8479552370     3.6730934148     0.7826215195
   19      H      -0.2094004329     3.8173801175     1.4903699834
   20      H       4.3360542345     0.8674396296     1.0755272745
   21      H       3.2651023630     2.1524748988     0.4360948805
   22      H      -0.1768952733    -3.9708132342     0.2702420241
   23      C      -3.4485005482    -0.6578230013     0.1446091421
   24      C       2.0946399307    -2.5799323511    -0.0641684257
   25      H       2.6715429145    -2.1096190495    -0.8625158344
   26      H       2.0602365349    -3.6523555964    -0.2672993105
   27      H       2.6417521318    -2.4262623226     0.8685650443
   28      H      -3.7696077686    -0.3057525890    -0.8376366616
   29      H      -3.6081733358     0.1620274670     0.8489976844
   30      H      -4.0945080538    -1.4857294421     0.4437284385
 ----------------------------------------------------------------
 Molecular Point Group                 C1    NOp =  1
 Largest Abelian Subgroup              C1    NOp =  1
 Nuclear Repulsion Energy =  1139.5839501482 hartrees
 There are       59 alpha and       59 beta electrons
 Applying Cartesian multipole field
    Component          Value
    ---------          -----
     (2,0,0)        1.00000E-11
     (0,2,0)        2.00000E-11
     (0,0,2)       -3.00000E-11
 Nucleus-field energy     =     0.0000000426 hartrees
 Requested basis set is 6-311++G(d,p)
 There are 166 shells and 450 basis functions
 A cutoff of  1.0D-12 yielded  11188 shell pairs
 There are     84650 function pairs (     90516 Cartesian)
 Smallest overlap matrix eigenvalue = 4.60E-08
 Linear dependence detected in AO basis
 Number of orthogonalized atomic orbitals = 447
 Maximum deviation from orthogonality = 4.694E-10
 Guess MOs from SCF MO coefficient file
 Reading MOs from coefficient file
 Reading MOs from coefficient file
 A restricted hybrid HF-DFT SCF calculation will be
 performed using Pulay DIIS extrapolation
 Exchange:     0.2000 Hartree-Fock + 0.0800 Slater + 0.7200 B88
 Correlation:  0.1900 VWN1RPA + 0.8100 LYP
 Using SG-1 standard quadrature grid
 Dispersion:   Grimme D3
 SCF converges when DIIS error is below 1.0E-08
 Geometry optimization detected.  Setting ReadMinima to 0
 Setting SaveMinima to 0
 -------------------------------------------------------
 OpenMP Integral computing Module                
 Release: version 1.0, May 2013, Q-Chem Inc. Pittsburgh 
 -------------------------------------------------------
 -------------------------------------------------------
 OpenMP BLAS3 based DFT computing Module                
 Release: version 1.0, May 2013, Q-Chem Inc. Pittsburgh 
 -------------------------------------------------------
 ---------------------------------------
  Cycle       Energy         DIIS Error
 ---------------------------------------
    1    -766.8815272883      4.15E-04
    2    -766.8745991477      3.48E-05
    3    -766.8745960689      4.67E-05
    4    -766.8746359114      1.36E-05
    5    -766.8746385874      6.25E-06
    6    -766.8746393005      2.13E-06
    7    -766.8746393780      8.56E-07
    8    -766.8746393935      2.84E-07
    9    -766.8746393954      7.84E-08
   10    -766.8746393955      3.79E-08
   11    -766.8746393956      1.31E-08
   12    -766.8746393956      4.85E-09 Convergence criterion met
 ---------------------------------------
 SCF time:  CPU 1252.52 s  wall 63.32 s
 SCF   energy in the final basis set = -766.8746393956
 Total energy in the final basis set = -766.8746393956
 
 --------------------------------------------------------------
 
                    Orbital Energies (a.u.)
 --------------------------------------------------------------
 
 Alpha MOs
 -- Occupied --
-19.178 -19.171 -19.120 -19.115 -10.311 -10.306 -10.233 -10.225
-10.205 -10.203 -10.202 -10.200 -10.186 -10.186 -10.175 -10.170
 -1.120  -1.112  -1.032  -1.026  -0.885  -0.809  -0.792  -0.747
 -0.732  -0.726  -0.674  -0.648  -0.620  -0.576  -0.567  -0.529
 -0.519  -0.512  -0.491  -0.486  -0.480  -0.475  -0.468  -0.440
 -0.436  -0.428  -0.423  -0.415  -0.412  -0.407  -0.394  -0.388
 -0.380  -0.371  -0.359  -0.357  -0.357  -0.319  -0.310  -0.298
 -0.287  -0.265  -0.253
 -- Virtual --
 -0.055  -0.034  -0.012  -0.003  -0.001   0.011   0.012   0.016
  0.022   0.024   0.031   0.035   0.039   0.040   0.046   0.053
  0.055   0.060   0.066   0.069   0.077   0.081   0.089   0.092
  0.095   0.099   0.104   0.107   0.111   0.115   0.117   0.122
  0.123   0.125   0.130   0.134   0.136   0.139   0.142   0.146
  0.147   0.150   0.153   0.156   0.159   0.163   0.167   0.168
  0.169   0.173   0.178   0.186   0.188   0.195   0.196   0.201
  0.202   0.207   0.209   0.210   0.213   0.221   0.226   0.239
  0.240   0.244   0.247   0.255   0.259   0.262   0.267   0.270
  0.282   0.284   0.289   0.292   0.298   0.302   0.305   0.308
  0.316   0.318   0.321   0.325   0.336   0.341   0.345   0.351
  0.355   0.359   0.363   0.366   0.370   0.373   0.384   0.389
  0.397   0.401   0.403   0.409   0.419   0.422   0.428   0.439
  0.450   0.463   0.475   0.481   0.490   0.502   0.511   0.516
  0.525   0.539   0.547   0.556   0.558   0.566   0.576   0.580
  0.587   0.591   0.600   0.611   0.626   0.633   0.636   0.640
  0.649   0.654   0.655   0.663   0.665   0.670   0.675   0.683
  0.686   0.691   0.695   0.701   0.707   0.717   0.723   0.741
  0.744   0.750   0.759   0.763   0.776   0.786   0.796   0.807
  0.808   0.828   0.848   0.862   0.865   0.890   0.902   0.917
  0.935   0.941   0.964   0.972   0.982   0.983   1.011   1.023
  1.044   1.048   1.062   1.069   1.080   1.082   1.101   1.121
  1.134   1.169   1.182   1.199   1.212   1.217   1.231   1.247
  1.262   1.273   1.291   1.304   1.323   1.332   1.342   1.357
  1.363   1.376   1.386   1.401   1.413   1.425   1.433   1.443
  1.454   1.460   1.469   1.486   1.494   1.506   1.526   1.532
  1.542   1.547   1.557   1.565   1.571   1.589   1.593   1.598
  1.606   1.616   1.619   1.634   1.639   1.649   1.668   1.687
  1.701   1.707   1.717   1.720   1.728   1.748   1.757   1.767
  1.773   1.776   1.790   1.818   1.823   1.828   1.837   1.870
  1.882   1.888   1.897   1.924   1.944   1.967   1.980   1.986
  2.006   2.013   2.026   2.049   2.090   2.096   2.099   2.125
  2.132   2.135   2.137   2.161   2.169   2.185   2.204   2.237
  2.253   2.298   2.316   2.331   2.338   2.407   2.416   2.447
  2.456   2.474   2.481   2.487   2.502   2.509   2.519   2.532
  2.543   2.558   2.567   2.583   2.589   2.594   2.600   2.616
  2.632   2.647   2.654   2.681   2.688   2.694   2.730   2.731
  2.757   2.762   2.780   2.802   2.825   2.833   2.844   2.858
  2.874   2.888   2.890   2.903   2.912   2.938   2.952   2.976
  3.010   3.012   3.025   3.051   3.062   3.075   3.110   3.117
  3.139   3.171   3.178   3.196   3.228   3.238   3.261   3.269
  3.304   3.308   3.372   3.391   3.438   3.442   3.532   3.592
  3.595   3.618   3.672   3.706   3.765   3.780   3.789   3.799
  3.800   3.821   3.848   3.856   3.882   3.945   4.050   4.055
  4.081   4.131   4.136   4.234   4.320   4.331   4.389   4.862
  5.060   5.103   5.121   5.176   5.240   5.262   5.387   5.407
  5.620   5.626   5.860   5.884  23.541  23.846  23.868  23.907
 23.927  23.938  23.944  23.951  23.998  24.065  24.072  24.169
 49.893  49.898  50.010  50.041
 --------------------------------------------------------------
 
          Ground-State Mulliken Net Atomic Charges

     Atom                 Charge (a.u.)
  ----------------------------------------
      1 C                     0.450938
      2 C                     0.420170
      3 C                    -0.746236
      4 C                    -0.563598
      5 O                    -0.005383
      6 O                    -0.168105
      7 O                     0.042722
      8 O                    -0.174100
      9 C                    -0.222286
     10 C                    -0.219867
     11 C                     0.562680
     12 C                    -0.542065
     13 C                    -0.629980
     14 C                     0.580084
     15 H                     0.191949
     16 H                     0.187322
     17 H                     0.124237
     18 H                     0.167008
     19 H                     0.151344
     20 H                     0.156726
     21 H                     0.162432
     22 H                     0.135728
     23 C                    -0.564150
     24 C                    -0.533729
     25 H                     0.166971
     26 H                     0.144121
     27 H                     0.199550
     28 H                     0.203756
     29 H                     0.176980
     30 H                     0.144779
  ----------------------------------------
  Sum of atomic charges =     0.000000

 -----------------------------------------------------------------
                    Cartesian Multipole Moments
 -----------------------------------------------------------------
    Charge (ESU x 10^10)
                 0.0000
    Dipole Moment (Debye)
         X       1.7353      Y      -1.2176      Z       2.5469
       Tot       3.3136
    Quadrupole Moments (Debye-Ang)
        XX     -83.3578     XY       4.1420     YY     -82.6588
        XZ      -2.4263     YZ       6.4923     ZZ    -101.8331
    Octopole Moments (Debye-Ang^2)
       XXX      44.4614    XXY       2.9821    XYY       4.4290
       YYY      31.5954    XXZ      10.8541    XYZ      -1.1674
       YYZ      15.6854    XZZ       7.6628    YZZ       6.5600
       ZZZ      -2.8875
    Hexadecapole Moments (Debye-Ang^3)
      XXXX   -2138.6067   XXXY      76.2341   XXYY    -715.2440
      XYYY      -9.8852   YYYY   -1881.3020   XXXZ      -4.1284
      XXYZ      24.1878   XYYZ     -14.5435   YYYZ      27.4194
      XXZZ    -441.2284   XYZZ      -5.6319   YYZZ    -415.2613
      XZZZ       6.5711   YZZZ       9.0396   ZZZZ    -284.0122
 -----------------------------------------------------------------
 Calculating analytic gradient of the SCF energy
 Gradient of SCF Energy
            1           2           3           4           5           6
    1   0.0003048  -0.0009334  -0.0017940  -0.0004381   0.0022842   0.0002405
    2  -0.0004018  -0.0003873   0.0010326  -0.0016446   0.0003919  -0.0010022
    3   0.0014780   0.0002823  -0.0009734  -0.0021123  -0.0002421   0.0005450
            7           8           9          10          11          12
    1   0.0002863   0.0009879  -0.0006586  -0.0015193  -0.0012117   0.0006448
    2   0.0022772   0.0000884  -0.0013459  -0.0001285  -0.0005605   0.0004629
    3   0.0010806   0.0004214  -0.0006059  -0.0004980  -0.0017319   0.0006262
           13          14          15          16          17          18
    1  -0.0001472   0.0005934   0.0000628   0.0002394   0.0001495   0.0001362
    2   0.0006339  -0.0006623   0.0001420  -0.0001874   0.0001880   0.0000217
    3  -0.0002206   0.0006984   0.0002082   0.0002259  -0.0002724   0.0003156
           19          20          21          22          23          24
    1   0.0002189  -0.0000296   0.0001266   0.0000041   0.0000620   0.0009855
    2  -0.0001569  -0.0001269  -0.0001076   0.0003060   0.0014800   0.0011753
    3   0.0001455   0.0002021   0.0002298   0.0002358  -0.0005905   0.0006072
           25          26          27          28          29          30
    1  -0.0001189  -0.0000014  -0.0002013  -0.0001585  -0.0001512   0.0000361
    2  -0.0002770   0.0000170  -0.0004643  -0.0004011  -0.0003238  -0.0000387
    3  -0.0000722  -0.0003137  -0.0000354   0.0001035   0.0001454   0.0001175
 Max gradient component =       2.284E-03
 RMS gradient           =       7.467E-04
 Gradient time:  CPU 482.87 s  wall 29.69 s
 Geometry Optimization Parameters
   NAtoms,    NIC,     NZ,  NCons,   NDum,   NFix, NCnnct, MaxDiis
       30     194       0       2       0       0       0       0

 Cartesian Hessian Update
 Hessian Updated using BFGS Update


** CONSTRAINED OPTIMIZATION IN DELOCALIZED INTERNAL COORDINATES **
   Searching for a Minimum

   Optimization Cycle:   3

                       Coordinates (Angstroms)
     ATOM                X               Y               Z
      1  C         0.3933665543   -0.6560408124   -0.0702491071
      2  C        -0.9397104573   -0.2079339528   -0.0407845639
      3  C         1.4697420629    0.3508673108   -0.3336464163
      4  C        -1.2519048268    1.2507076998   -0.1834715597
      5  O         2.5176566308    0.2070034493    0.5026139659
      6  O         1.4224257760    1.1915786288   -1.1991721287
      7  O        -0.6271565562    1.9800507011    0.7672105687
      8  O        -2.0003474468    1.7202113694   -1.0028012918
      9  C        -0.7964250732    3.4036853309    0.6727573960
     10  C         3.6064277940    1.1242575669    0.3103014857
     11  C         0.6903705708   -2.0273117614    0.0233912166
     12  C        -0.3789692179   -2.9082364884    0.1906855079
     13  C        -1.6926251159   -2.4607577366    0.2418066051
     14  C        -2.0061240463   -1.1072529199    0.1160041986
     15  H        -0.4260539052    3.7638463332   -0.2879898347
     16  H         4.0368292894    1.0055253573   -0.6853102766
     17  H        -2.4955958030   -3.1787468965    0.3686540976
     18  H        -1.8479552370    3.6730934148    0.7826215195
     19  H        -0.2094004329    3.8173801175    1.4903699834
     20  H         4.3360542345    0.8674396296    1.0755272745
     21  H         3.2651023630    2.1524748988    0.4360948805
     22  H        -0.1768952733   -3.9708132342    0.2702420241
     23  C        -3.4485005482   -0.6578230013    0.1446091421
     24  C         2.0946399307   -2.5799323511   -0.0641684257
     25  H         2.6715429145   -2.1096190495   -0.8625158344
     26  H         2.0602365349   -3.6523555964   -0.2672993105
     27  H         2.6417521318   -2.4262623226    0.8685650443
     28  H        -3.7696077686   -0.3057525890   -0.8376366616
     29  H        -3.6081733358    0.1620274670    0.8489976844
     30  H        -4.0945080538   -1.4857294421    0.4437284385
   Point Group: c1    Number of degrees of freedom:    84


   Energy is   -766.874639396

              Constraints and their Current Values
                                        Value     Constraint
   Dihedral:        2   1   3   5      135.200      135.200
   Dihedral:        1   2   4   7      -57.300      -57.300
 Hessian Updated using BFGS Update

 67 Hessian modes will be used to form the next step
  Hessian Eigenvalues:
     0.033743    0.045000    0.045000    0.045001    0.045001    0.045004
     0.045008    0.045011    0.045035    0.045100    0.045812    0.047349
     0.088289    0.093877    0.094226    0.094416    0.109544    0.113852
     0.116857    0.116888    0.158100    0.159976    0.159999    0.160729
     0.162233    0.224713    0.244469    0.247140    0.249031    0.249611
     0.249711    0.249967    0.249993    0.249998    0.250000    0.251403
     0.296628    0.318780    0.319021    0.341388    0.341625    0.342212
     0.342508    0.342724    0.342935    0.342970    0.343206    0.343299
     0.343477    0.343678    0.344293    0.344361    0.348665    0.349885
     0.357853    0.408201    0.408837    0.413502    0.434629    0.440666
     0.446618    0.454814    0.465664    0.525859    0.536804    0.955485
     0.960432

 Minimum Search - Taking Simple RFO Step
 Searching for Lamda that Minimizes Along All modes
 Value Taken    Lamda =  -0.00015315
 Step Taken.  Stepsize is  0.055522

                             Maximum     Tolerance    Cnvgd?
         Gradient           0.001440      0.000300      NO
         Displacement       0.016791      0.000001      NO
         Energy change     -0.000463      0.000001      NO


 New Cartesian Coordinates Obtained by Inverse Iteration

 Displacement from previous Coordinates is:  0.145191
 Adding empirical dispersion correction 
 ----------------------------------------------------------------
 Doing -D3(op) with
 s6 =   1.00000
 s8 =   0.78311
 a1 =   0.30000
 a2 =   4.25000
 n  =  10.00000
 -D3 energy without 3body term =     -0.0329520422 hartrees
 ----------------------------------------------------------------
             Standard Nuclear Orientation (Angstroms)
    I     Atom           X                Y                Z
 ----------------------------------------------------------------
    1      C       0.3922634497    -0.6510041444    -0.0723581564
    2      C      -0.9417677186    -0.2048515350    -0.0372945864
    3      C       1.4703860521     0.3577277100    -0.3262194703
    4      C      -1.2615222623     1.2538596205    -0.1775621074
    5      O       2.5159229036     0.2020848400     0.5086261093
    6      O       1.4220926593     1.2105532477    -1.1805642458
    7      O      -0.6367820527     1.9838188102     0.7697462406
    8      O      -2.0171046531     1.7170032880    -0.9944012990
    9      C      -0.7942937967     3.4098948169     0.6602344562
   10      C       3.6120443756     1.1144226494     0.3187810034
   11      C       0.6912127838    -2.0230215220     0.0205527403
   12      C      -0.3772768111    -2.9077117770     0.1812808432
   13      C      -1.6906918997    -2.4628923327     0.2382329825
   14      C      -2.0063430128    -1.1085051854     0.1180065537
   15      H      -0.4131421451     3.7532632942    -0.3025912096
   16      H       4.0337588593     0.9998321067    -0.6811126783
   17      H      -2.4926209896    -3.1825113975     0.3663772709
   18      H      -1.8458028335     3.6863454113     0.7519210284
   19      H      -0.2137062280     3.8293552437     1.4787464852
   20      H       4.3433501693     0.8495371837     1.0788644131
   21      H       3.2750187565     2.1437110937     0.4480805279
   22      H      -0.1728442809    -3.9708076945     0.2536591333
   23      C      -3.4494949850    -0.6651589704     0.1539569406
   24      C       2.0937852630    -2.5771956962    -0.0687840097
   25      H       2.6708575715    -2.1052089744    -0.8661586402
   26      H       2.0591263409    -3.6500301235    -0.2687315365
   27      H       2.6426704164    -2.4191029731     0.8625656111
   28      H      -3.7719212838    -0.3051053888    -0.8252574639
   29      H      -3.6075485629     0.1529918684     0.8610138585
   30      H      -4.0934323954    -1.4957123482     0.4495248282
 ----------------------------------------------------------------
 Molecular Point Group                 C1    NOp =  1
 Largest Abelian Subgroup              C1    NOp =  1
 Nuclear Repulsion Energy =  1139.3232144679 hartrees
 There are       59 alpha and       59 beta electrons
 Applying Cartesian multipole field
    Component          Value
    ---------          -----
     (2,0,0)        1.00000E-11
     (0,2,0)        2.00000E-11
     (0,0,2)       -3.00000E-11
 Nucleus-field energy     =     0.0000000427 hartrees
 Requested basis set is 6-311++G(d,p)
 There are 166 shells and 450 basis functions
 A cutoff of  1.0D-12 yielded  11186 shell pairs
 There are     84631 function pairs (     90496 Cartesian)
 Smallest overlap matrix eigenvalue = 4.35E-08
 Linear dependence detected in AO basis
 Number of orthogonalized atomic orbitals = 447
 Maximum deviation from orthogonality = 6.683E-10
 Guess MOs from SCF MO coefficient file
 Reading MOs from coefficient file
 Reading MOs from coefficient file
 A restricted hybrid HF-DFT SCF calculation will be
 performed using Pulay DIIS extrapolation
 Exchange:     0.2000 Hartree-Fock + 0.0800 Slater + 0.7200 B88
 Correlation:  0.1900 VWN1RPA + 0.8100 LYP
 Using SG-1 standard quadrature grid
 Dispersion:   Grimme D3
 SCF converges when DIIS error is below 1.0E-08
 Geometry optimization detected.  Setting ReadMinima to 0
 Setting SaveMinima to 0
 -------------------------------------------------------
 OpenMP Integral computing Module                
 Release: version 1.0, May 2013, Q-Chem Inc. Pittsburgh 
 -------------------------------------------------------
 -------------------------------------------------------
 OpenMP BLAS3 based DFT computing Module                
 Release: version 1.0, May 2013, Q-Chem Inc. Pittsburgh 
 -------------------------------------------------------
 ---------------------------------------
  Cycle       Energy         DIIS Error
 ---------------------------------------
    1    -766.8713342634      2.61E-04
    2    -766.8746814934      3.33E-05
    3    -766.8746573356      4.85E-05
    4    -766.8747113302      1.15E-05
    5    -766.8747136398      4.83E-06
    6    -766.8747140807      1.27E-06
    7    -766.8747141068      5.62E-07
    8    -766.8747141128      2.15E-07
    9    -766.8747141137      6.50E-08
   10    -766.8747141138      2.29E-08
   11    -766.8747141139      8.62E-09 Convergence criterion met
 ---------------------------------------
 SCF time:  CPU 1158.23 s  wall 56.84 s
 SCF   energy in the final basis set = -766.8747141139
 Total energy in the final basis set = -766.8747141139
 
 --------------------------------------------------------------
 
                    Orbital Energies (a.u.)
 --------------------------------------------------------------
 
 Alpha MOs
 -- Occupied --
-19.178 -19.171 -19.120 -19.115 -10.312 -10.306 -10.233 -10.225
-10.205 -10.203 -10.202 -10.199 -10.186 -10.185 -10.175 -10.170
 -1.120  -1.112  -1.032  -1.026  -0.884  -0.808  -0.791  -0.747
 -0.732  -0.726  -0.674  -0.647  -0.620  -0.576  -0.567  -0.529
 -0.519  -0.512  -0.491  -0.487  -0.480  -0.475  -0.468  -0.440
 -0.435  -0.428  -0.423  -0.415  -0.412  -0.407  -0.394  -0.389
 -0.380  -0.372  -0.359  -0.357  -0.357  -0.320  -0.310  -0.297
 -0.287  -0.265  -0.252
 -- Virtual --
 -0.055  -0.034  -0.012  -0.003  -0.000   0.011   0.012   0.016
  0.022   0.024   0.031   0.035   0.039   0.040   0.046   0.053
  0.055   0.060   0.066   0.069   0.077   0.081   0.089   0.091
  0.095   0.099   0.104   0.107   0.111   0.115   0.117   0.122
  0.123   0.125   0.130   0.134   0.136   0.139   0.142   0.146
  0.147   0.150   0.153   0.156   0.159   0.164   0.167   0.169
  0.169   0.173   0.178   0.186   0.188   0.195   0.196   0.201
  0.202   0.207   0.209   0.210   0.214   0.221   0.226   0.239
  0.240   0.244   0.247   0.255   0.260   0.262   0.267   0.269
  0.282   0.284   0.289   0.292   0.298   0.302   0.305   0.308
  0.316   0.318   0.320   0.326   0.336   0.341   0.345   0.351
  0.355   0.358   0.363   0.366   0.369   0.373   0.384   0.389
  0.397   0.401   0.403   0.409   0.418   0.422   0.428   0.439
  0.449   0.462   0.475   0.481   0.489   0.502   0.511   0.515
  0.525   0.540   0.548   0.556   0.558   0.566   0.576   0.581
  0.587   0.591   0.600   0.611   0.626   0.633   0.636   0.641
  0.650   0.653   0.655   0.663   0.665   0.670   0.674   0.683
  0.686   0.691   0.695   0.701   0.707   0.716   0.723   0.741
  0.745   0.750   0.759   0.764   0.777   0.786   0.797   0.807
  0.809   0.829   0.848   0.863   0.865   0.890   0.902   0.917
  0.935   0.941   0.964   0.970   0.980   0.983   1.011   1.024
  1.043   1.048   1.063   1.069   1.079   1.083   1.100   1.120
  1.134   1.168   1.183   1.201   1.213   1.217   1.232   1.246
  1.261   1.273   1.290   1.303   1.323   1.330   1.342   1.357
  1.364   1.376   1.387   1.402   1.413   1.424   1.432   1.443
  1.453   1.461   1.470   1.486   1.494   1.505   1.526   1.531
  1.540   1.548   1.556   1.565   1.571   1.588   1.593   1.598
  1.605   1.615   1.620   1.635   1.639   1.649   1.668   1.687
  1.701   1.706   1.716   1.720   1.728   1.748   1.756   1.767
  1.772   1.775   1.790   1.818   1.823   1.829   1.837   1.871
  1.883   1.888   1.897   1.923   1.943   1.966   1.979   1.985
  2.005   2.012   2.026   2.050   2.090   2.096   2.099   2.125
  2.132   2.133   2.136   2.160   2.171   2.184   2.205   2.238
  2.253   2.300   2.315   2.331   2.338   2.407   2.415   2.446
  2.456   2.474   2.482   2.488   2.503   2.510   2.519   2.532
  2.542   2.558   2.568   2.582   2.589   2.594   2.600   2.616
  2.632   2.649   2.654   2.680   2.687   2.694   2.730   2.732
  2.756   2.763   2.782   2.801   2.823   2.832   2.844   2.857
  2.873   2.887   2.889   2.902   2.913   2.938   2.953   2.975
  3.011   3.013   3.026   3.051   3.061   3.075   3.110   3.118
  3.139   3.170   3.179   3.196   3.228   3.239   3.262   3.268
  3.305   3.309   3.371   3.391   3.438   3.441   3.532   3.592
  3.594   3.618   3.671   3.706   3.764   3.778   3.788   3.796
  3.798   3.822   3.850   3.856   3.885   3.944   4.047   4.053
  4.080   4.131   4.136   4.235   4.321   4.332   4.390   4.862
  5.061   5.102   5.122   5.176   5.239   5.263   5.386   5.406
  5.619   5.625   5.859   5.884  23.541  23.845  23.867  23.907
 23.926  23.937  23.942  23.951  23.998  24.063  24.069  24.169
 49.893  49.898  50.009  50.041
 --------------------------------------------------------------
 
          Ground-State Mulliken Net Atomic Charges

     Atom                 Charge (a.u.)
  ----------------------------------------
      1 C                     0.468189
      2 C                     0.445740
      3 C                    -0.734180
      4 C                    -0.576859
      5 O                    -0.006533
      6 O                    -0.172450
      7 O                     0.042389
      8 O                    -0.176003
      9 C                    -0.221925
     10 C                    -0.219971
     11 C                     0.549628
     12 C                    -0.542191
     13 C                    -0.636086
     14 C                     0.567775
     15 H                     0.191792
     16 H                     0.187759
     17 H                     0.124155
     18 H                     0.167232
     19 H                     0.151511
     20 H                     0.156904
     21 H                     0.162977
     22 H                     0.134685
     23 C                    -0.563693
     24 C                    -0.536736
     25 H                     0.166573
     26 H                     0.144936
     27 H                     0.198627
     28 H                     0.203526
     29 H                     0.177167
     30 H                     0.145060
  ----------------------------------------
  Sum of atomic charges =     0.000000

 -----------------------------------------------------------------
                    Cartesian Multipole Moments
 -----------------------------------------------------------------
    Charge (ESU x 10^10)
                 0.0000
    Dipole Moment (Debye)
         X       1.7900      Y      -1.2086      Z       2.5187
       Tot       3.3179
    Quadrupole Moments (Debye-Ang)
        XX     -83.3897     XY       4.1665     YY     -82.6725
        XZ      -2.4153     YZ       6.4553     ZZ    -101.7701
    Octopole Moments (Debye-Ang^2)
       XXX      45.8516    XXY       2.6986    XYY       4.3175
       YYY      31.5162    XXZ      10.9215    XYZ      -1.0276
       YYZ      15.3247    XZZ       7.9822    YZZ       6.5748
       ZZZ      -3.6040
    Hexadecapole Moments (Debye-Ang^3)
      XXXX   -2142.4214   XXXY      77.4613   XXYY    -716.9486
      XYYY      -9.7292   YYYY   -1881.5413   XXXZ      -4.2826
      XXYZ      23.8793   XYYZ     -14.3799   YYYZ      27.3687
      XXZZ    -441.5520   XYZZ      -5.2344   YYZZ    -415.3546
      XZZZ       5.7237   YZZZ       8.1958   ZZZZ    -281.0839
 -----------------------------------------------------------------
 Calculating analytic gradient of the SCF energy
 Gradient of SCF Energy
            1           2           3           4           5           6
    1   0.0000459  -0.0000461   0.0001365  -0.0002783   0.0003716  -0.0000809
    2   0.0000718   0.0001638   0.0007691   0.0003607  -0.0003142  -0.0003718
    3   0.0006293   0.0006911  -0.0006436  -0.0017104  -0.0002540   0.0002135
            7           8           9          10          11          12
    1  -0.0002033   0.0004737   0.0001739  -0.0001162   0.0000271  -0.0003000
    2   0.0003311  -0.0003381  -0.0003466  -0.0001427  -0.0002659   0.0001730
    3   0.0007833   0.0002832   0.0002110   0.0002805  -0.0008198   0.0002986
           13          14          15          16          17          18
    1   0.0003837  -0.0002019  -0.0002520  -0.0001004  -0.0000484  -0.0000173
    2  -0.0000934  -0.0000152  -0.0000336   0.0000220  -0.0000515  -0.0000356
    3  -0.0000846   0.0003087  -0.0000692  -0.0000103  -0.0000617  -0.0000658
           19          20          21          22          23          24
    1   0.0000404  -0.0000729  -0.0000686   0.0000251   0.0000500   0.0001317
    2  -0.0000648   0.0000032  -0.0000344  -0.0000271   0.0001808   0.0002367
    3  -0.0000355   0.0000288  -0.0001810   0.0001294  -0.0001133   0.0001086
           25          26          27          28          29          30
    1  -0.0000474  -0.0000972  -0.0000581   0.0000628   0.0000525   0.0000142
    2   0.0001071  -0.0000543  -0.0001094  -0.0000243  -0.0000048  -0.0000919
    3   0.0002103  -0.0001538  -0.0000166   0.0000515  -0.0000871   0.0000789
 Max gradient component =       1.710E-03
 RMS gradient           =       3.117E-04
 Gradient time:  CPU 490.33 s  wall 30.20 s
 Geometry Optimization Parameters
   NAtoms,    NIC,     NZ,  NCons,   NDum,   NFix, NCnnct, MaxDiis
       30     194       0       2       0       0       0       0

 Cartesian Hessian Update
 Hessian Updated using BFGS Update


** CONSTRAINED OPTIMIZATION IN DELOCALIZED INTERNAL COORDINATES **
   Searching for a Minimum

   Optimization Cycle:   4

                       Coordinates (Angstroms)
     ATOM                X               Y               Z
      1  C         0.3922634497   -0.6510041444   -0.0723581564
      2  C        -0.9417677186   -0.2048515350   -0.0372945864
      3  C         1.4703860521    0.3577277100   -0.3262194703
      4  C        -1.2615222623    1.2538596205   -0.1775621074
      5  O         2.5159229036    0.2020848400    0.5086261093
      6  O         1.4220926593    1.2105532477   -1.1805642458
      7  O        -0.6367820527    1.9838188102    0.7697462406
      8  O        -2.0171046531    1.7170032880   -0.9944012990
      9  C        -0.7942937967    3.4098948169    0.6602344562
     10  C         3.6120443756    1.1144226494    0.3187810034
     11  C         0.6912127838   -2.0230215220    0.0205527403
     12  C        -0.3772768111   -2.9077117770    0.1812808432
     13  C        -1.6906918997   -2.4628923327    0.2382329825
     14  C        -2.0063430128   -1.1085051854    0.1180065537
     15  H        -0.4131421451    3.7532632942   -0.3025912096
     16  H         4.0337588593    0.9998321067   -0.6811126783
     17  H        -2.4926209896   -3.1825113975    0.3663772709
     18  H        -1.8458028335    3.6863454113    0.7519210284
     19  H        -0.2137062280    3.8293552437    1.4787464852
     20  H         4.3433501693    0.8495371837    1.0788644131
     21  H         3.2750187565    2.1437110937    0.4480805279
     22  H        -0.1728442809   -3.9708076945    0.2536591333
     23  C        -3.4494949850   -0.6651589704    0.1539569406
     24  C         2.0937852630   -2.5771956962   -0.0687840097
     25  H         2.6708575715   -2.1052089744   -0.8661586402
     26  H         2.0591263409   -3.6500301235   -0.2687315365
     27  H         2.6426704164   -2.4191029731    0.8625656111
     28  H        -3.7719212838   -0.3051053888   -0.8252574639
     29  H        -3.6075485629    0.1529918684    0.8610138585
     30  H        -4.0934323954   -1.4957123482    0.4495248282
   Point Group: c1    Number of degrees of freedom:    84


   Energy is   -766.874714114

              Constraints and their Current Values
                                        Value     Constraint
   Dihedral:        2   1   3   5      135.200      135.200
   Dihedral:        1   2   4   7      -57.300      -57.300
 Hessian Updated using BFGS Update

 69 Hessian modes will be used to form the next step
  Hessian Eigenvalues:
     0.022849    0.045000    0.045000    0.045000    0.045001    0.045004
     0.045007    0.045010    0.045029    0.045100    0.045346    0.045921
     0.046705    0.091639    0.093890    0.094229    0.094414    0.113812
     0.114668    0.116857    0.116952    0.158107    0.159835    0.159976
     0.159999    0.161142    0.162165    0.224706    0.243921    0.245409
     0.249171    0.249465    0.249619    0.249870    0.249988    0.249996
     0.249998    0.266421    0.307110    0.318949    0.327012    0.341479
     0.341630    0.342183    0.342524    0.342674    0.342927    0.342950
     0.343235    0.343267    0.343496    0.343749    0.344297    0.344343
     0.349002    0.350914    0.358916    0.406763    0.408545    0.413597
     0.432789    0.439225    0.446518    0.458622    0.463457    0.522721
     0.537455    0.947405    0.960329

 Minimum Search - Taking Simple RFO Step
 Searching for Lamda that Minimizes Along All modes
 Value Taken    Lamda =  -0.00003277
 Step Taken.  Stepsize is  0.033114

                             Maximum     Tolerance    Cnvgd?
         Gradient           0.000560      0.000300      NO
         Displacement       0.011365      0.000001      NO
         Energy change     -0.000075      0.000001      NO


 New Cartesian Coordinates Obtained by Inverse Iteration

 Displacement from previous Coordinates is:  0.099028
 Adding empirical dispersion correction 
 ----------------------------------------------------------------
 Doing -D3(op) with
 s6 =   1.00000
 s8 =   0.78311
 a1 =   0.30000
 a2 =   4.25000
 n  =  10.00000
 -D3 energy without 3body term =     -0.0329708852 hartrees
 ----------------------------------------------------------------
             Standard Nuclear Orientation (Angstroms)
    I     Atom           X                Y                Z
 ----------------------------------------------------------------
    1      C       0.3898122103    -0.6505560520    -0.0733818387
    2      C      -0.9443969869    -0.2058488263    -0.0352977534
    3      C       1.4659641572     0.3618921589    -0.3204596843
    4      C      -1.2643429798     1.2532789811    -0.1740118625
    5      O       2.5122731335     0.2035833128     0.5123081787
    6      O       1.4153140095     1.2207706415    -1.1691203654
    7      O      -0.6389185814     1.9834986444     0.7712440373
    8      O      -2.0213803336     1.7158782912    -0.9904712437
    9      C      -0.7842547269     3.4112133961     0.6520460579
   10      C       3.6094869577     1.1162489065     0.3228558044
   11      C       0.6909082405    -2.0222223454     0.0194956344
   12      C      -0.3769292601    -2.9087025613     0.1764161896
   13      C      -1.6909665339    -2.4653315439     0.2356574124
   14      C      -2.0081577025    -1.1109057182     0.1185339077
   15      H      -0.3900191084     3.7449180441    -0.3090042051
   16      H       4.0272857838     1.0060438877    -0.6792425501
   17      H      -2.4920549750    -3.1858115377     0.3640146012
   18      H      -1.8343275781     3.6967655032     0.7312280966
   19      H      -0.2083934957     3.8306213865     1.4737526956
   20      H       4.3430260888     0.8465796990     1.0789232553
   21      H       3.2741756566     2.1453653642     0.4582544832
   22      H      -0.1712858264    -3.9718410671     0.2446949932
[...]
 23.924  23.937  23.943  23.951  23.999  24.062  24.072  24.168
 49.890  49.904  50.014  50.035
 --------------------------------------------------------------
 
          Ground-State Mulliken Net Atomic Charges

     Atom                 Charge (a.u.)
  ----------------------------------------
      1 C                     0.447611
      2 C                     0.569946
      3 C                    -0.935947
      4 C                    -0.450666
      5 O                     0.043523
      6 O                    -0.122632
      7 O                    -0.010540
      8 O                    -0.196525
      9 C                    -0.224841
     10 C                    -0.214056
     11 C                     0.618951
     12 C                    -0.542868
     13 C                    -0.669083
     14 C                     0.512356
     15 H                     0.196214
     16 H                     0.184927
     17 H                     0.125545
     18 H                     0.174765
     19 H                     0.149851
     20 H                     0.158991
     21 H                     0.158804
     22 H                     0.130723
     23 C                    -0.562746
     24 C                    -0.578831
     25 H                     0.175936
     26 H                     0.152869
     27 H                     0.190536
     28 H                     0.203610
     29 H                     0.174232
     30 H                     0.139347
  ----------------------------------------
  Sum of atomic charges =     0.000000

 -----------------------------------------------------------------
                    Cartesian Multipole Moments
 -----------------------------------------------------------------
    Charge (ESU x 10^10)
                 0.0000
    Dipole Moment (Debye)
         X       1.8607      Y      -1.0489      Z       2.4798
       Tot       3.2729
    Quadrupole Moments (Debye-Ang)
        XX     -85.4139     XY       5.1541     YY     -81.7067
        XZ      -1.0414     YZ       5.8480     ZZ    -101.8831
    Octopole Moments (Debye-Ang^2)
       XXX      46.8334    XXY      -0.8097    XYY      10.3040
       YYY      34.7357    XXZ      15.1706    XYZ       1.1143
       YYZ      12.8951    XZZ       4.1024    YZZ       8.8734
       ZZZ       2.9937
    Hexadecapole Moments (Debye-Ang^3)
      XXXX   -2139.6729   XXXY      47.8819   XXYY    -720.1999
      XYYY     -25.5495   YYYY   -1871.9351   XXXZ       5.6792
      XXYZ      23.5473   XYYZ     -11.8366   YYYZ      10.4878
      XXZZ    -436.2017   XYZZ     -20.9991   YYZZ    -413.5270
      XZZZ      15.2199   YZZZ      -5.5125   ZZZZ    -280.5464
 -----------------------------------------------------------------
 Calculating analytic gradient of the SCF energy
 Gradient of SCF Energy
            1           2           3           4           5           6
    1  -0.0000438   0.0000497  -0.0000096   0.0000564  -0.0000094   0.0000070
    2   0.0000451  -0.0000099  -0.0000262   0.0000620   0.0000041   0.0000183
    3  -0.0000024   0.0000104   0.0000242  -0.0000759  -0.0000093  -0.0000378
            7           8           9          10          11          12
    1  -0.0000300   0.0000139  -0.0000028   0.0000014  -0.0000357   0.0000634
    2  -0.0000112  -0.0000212  -0.0000072  -0.0000224  -0.0000577   0.0000173
    3   0.0000059   0.0000487  -0.0000143  -0.0000265  -0.0000028   0.0000143
           13          14          15          16          17          18
    1  -0.0000545  -0.0000224   0.0000098  -0.0000032   0.0000002   0.0000129
    2   0.0000618  -0.0001058  -0.0000035  -0.0000014   0.0000016   0.0000069
    3   0.0000129   0.0000330  -0.0000086  -0.0000194   0.0000272   0.0000070
           19          20          21          22          23          24
    1   0.0000110   0.0000065   0.0000003  -0.0000060  -0.0000044  -0.0000019
    2   0.0000097  -0.0000011   0.0000015   0.0000006   0.0000290   0.0000199
    3  -0.0000125  -0.0000215  -0.0000137   0.0000031  -0.0000131  -0.0000164
           25          26          27          28          29          30
    1  -0.0000123  -0.0000063   0.0000064   0.0000015   0.0000062  -0.0000045
    2  -0.0000002  -0.0000028  -0.0000101  -0.0000017  -0.0000012   0.0000061
    3  -0.0000050   0.0000033   0.0000007   0.0000270   0.0000368   0.0000246
 Max gradient component =       1.058E-04
 RMS gradient           =       2.682E-05
 Gradient time:  CPU 491.56 s  wall 29.66 s
 Geometry Optimization Parameters
   NAtoms,    NIC,     NZ,  NCons,   NDum,   NFix, NCnnct, MaxDiis
       30     194       0       0       0       0       0       0

 Cartesian Hessian Update
 Hessian Updated using BFGS Update


** GEOMETRY OPTIMIZATION IN DELOCALIZED INTERNAL COORDINATES **
   Searching for a Minimum

   Optimization Cycle:  12

                       Coordinates (Angstroms)
     ATOM                X               Y               Z
      1  C         0.3463715812   -0.6753395233   -0.1058905100
      2  C        -0.9738520835   -0.1965302806   -0.0327179424
      3  C         1.4695603186    0.2848473513   -0.3702440013
      4  C        -1.2467298663    1.2716703208   -0.1237120283
      5  O         2.3866850074    0.2598808263    0.6136467221
      6  O         1.5633675123    0.9716076845   -1.3589790443
      7  O        -0.3892102947    1.9804762925    0.6410586412
      8  O        -2.1293927823    1.7753056634   -0.7751755287
      9  C        -0.4698855726    3.4114586782    0.5138523742
     10  C         3.5267737040    1.1194413693    0.4319246253
     11  C         0.6205006203   -2.0514125501   -0.0466123227
     12  C        -0.4607066833   -2.9202943856    0.1072950742
     13  C        -1.7640834546   -2.4488661380    0.1957591889
     14  C        -2.0555944280   -1.0862263215    0.1163213352
     15  H        -0.2393093149    3.7077741514   -0.5107251920
     16  H         4.0751791610    0.8418173761   -0.4697935948
     17  H        -2.5781934001   -3.1547466196    0.3213195286
     18  H        -1.4676747221    3.7635127611    0.7784568067
     19  H         0.2722012969    3.8051562470    1.2048880195
     20  H         4.1426127320    0.9735735476    1.3164261724
     21  H         3.2079474865    2.1596069657    0.3512807991
     22  H        -0.2770519450   -3.9886977865    0.1518840236
     23  C        -3.4921473737   -0.6278375137    0.2004989328
     24  C         2.0202883288   -2.6057336259   -0.1673912168
     25  H         2.5503872825   -2.1800711541   -1.0238959994
     26  H         1.9904074322   -3.6887418349   -0.2993738685
     27  H         2.6112582211   -2.3852527897    0.7247688103
     28  H        -3.8341309542   -0.2312352427   -0.7573367304
     29  H        -3.6249275960    0.1690366410    0.9360453396
     30  H        -4.1366121973   -1.4622497635    0.4837759982
   Point Group: c1    Number of degrees of freedom:    84


   Energy is   -766.875103163

 Hessian Updated using BFGS Update

 84 Hessian modes will be used to form the next step
  Hessian Eigenvalues:
     0.001505    0.002115    0.007720    0.008982    0.009701    0.010759
     0.016019    0.016339    0.018520    0.019015    0.021616    0.022338
     0.022676    0.023217    0.023318    0.023559    0.035138    0.066366
     0.069384    0.071710    0.072115    0.072279    0.072928    0.101403
     0.101740    0.105502    0.106159    0.158477    0.159187    0.159535
     0.159928    0.159979    0.159990    0.159999    0.160004    0.160014
     0.160052    0.160113    0.160174    0.160523    0.160949    0.225042
     0.243549    0.245126    0.249234    0.249537    0.249885    0.250333
     0.250514    0.252507    0.253749    0.262281    0.286349    0.312198
     0.312893    0.319545    0.338657    0.343668    0.345002    0.345654
     0.346048    0.346447    0.346726    0.346779    0.347057    0.347221
     0.348254    0.350659    0.350812    0.351910    0.354069    0.354270
     0.395781    0.397132    0.437060    0.443110    0.458245    0.464480
     0.481168    0.500687    0.553493    0.556193    1.007276    1.018713

 Minimum Search - Taking Simple RFO Step
 Searching for Lamda that Minimizes Along All modes
 Value Taken    Lamda =   0.00000000
 Step Taken.  Stepsize is  0.009609

                             Maximum     Tolerance    Cnvgd?
         Gradient           0.000080      0.000300     YES
         Displacement       0.005546      0.000001      NO
         Energy change      0.000000      0.000001     YES

 Final energy is   -766.875103162769     


 ******************************
 **  OPTIMIZATION CONVERGED  **
 ******************************

                       Coordinates (Angstroms)
     ATOM                X               Y               Z
      1  C         0.3463715812   -0.6753395233   -0.1058905100
      2  C        -0.9738520835   -0.1965302806   -0.0327179424
      3  C         1.4695603186    0.2848473513   -0.3702440013
      4  C        -1.2467298663    1.2716703208   -0.1237120283
      5  O         2.3866850074    0.2598808263    0.6136467221
      6  O         1.5633675123    0.9716076845   -1.3589790443
      7  O        -0.3892102947    1.9804762925    0.6410586412
      8  O        -2.1293927823    1.7753056634   -0.7751755287
      9  C        -0.4698855726    3.4114586782    0.5138523742
     10  C         3.5267737040    1.1194413693    0.4319246253
     11  C         0.6205006203   -2.0514125501   -0.0466123227
     12  C        -0.4607066833   -2.9202943856    0.1072950742
     13  C        -1.7640834546   -2.4488661380    0.1957591889
     14  C        -2.0555944280   -1.0862263215    0.1163213352
     15  H        -0.2393093149    3.7077741514   -0.5107251920
     16  H         4.0751791610    0.8418173761   -0.4697935948
     17  H        -2.5781934001   -3.1547466196    0.3213195286
     18  H        -1.4676747221    3.7635127611    0.7784568067
     19  H         0.2722012969    3.8051562470    1.2048880195
     20  H         4.1426127320    0.9735735476    1.3164261724
     21  H         3.2079474865    2.1596069657    0.3512807991
     22  H        -0.2770519450   -3.9886977865    0.1518840236
     23  C        -3.4921473737   -0.6278375137    0.2004989328
     24  C         2.0202883288   -2.6057336259   -0.1673912168
     25  H         2.5503872825   -2.1800711541   -1.0238959994
     26  H         1.9904074322   -3.6887418349   -0.2993738685
     27  H         2.6112582211   -2.3852527897    0.7247688103
     28  H        -3.8341309542   -0.2312352427   -0.7573367304
     29  H        -3.6249275960    0.1690366410    0.9360453396
     30  H        -4.1366121973   -1.4622497635    0.4837759982

Z-matrix Print:
$molecule
0 1
O 
C  1 1.350044
O  2 1.207123 1 123.443769
C  1 1.438889 2 115.877358 3 -7.597319 0
H  4 1.087760 1 105.398596 2 179.152621 0
H  4 1.090661 1 110.540018 2 59.523531 0
H  4 1.091205 1 109.951070 2 -61.463093 0
C  2 1.496113 1 111.402939 3 -178.910784 0
C  8 1.406273 2 120.145313 1 -44.794865 0
C  9 1.404364 8 120.976052 2 -178.842945 0
C  10 1.395583 9 117.611910 8 -0.941940 0
H  11 1.084990 10 119.108839 9 179.750977 0
C  11 1.388835 10 121.517189 9 0.170363 0
H  13 1.084808 11 119.392272 10 -179.616028 0
C  13 1.395735 11 121.585781 10 0.904131 0
C  9 1.501131 8 119.592080 2 -4.195469 0
O  16 1.207492 9 124.480328 8 -60.067117 0
O  16 1.345281 9 111.680272 8 121.803805 0
C  18 1.439330 16 115.885786 9 178.199056 0
H  19 1.087602 18 105.410979 16 179.482806 0
H  19 1.090916 18 110.319290 16 59.940215 0
H  19 1.091293 18 110.514693 16 -60.883733 0
C  15 1.510262 13 119.459748 11 179.214945 0
H  23 1.091648 15 111.060141 13 -111.161634 0
H  23 1.091707 15 110.120524 13 9.285650 0
H  23 1.092551 15 111.993464 13 129.631443 0
C  10 1.510386 9 122.489314 8 177.943975 0
H  27 1.091430 10 110.393845 9 -168.470296 0
H  27 1.092615 10 111.217992 9 71.301370 0
H  27 1.093524 10 111.656345 9 -48.634921 0
$end

 
 --------------------------------------------------------------
 
                    Orbital Energies (a.u.)
 --------------------------------------------------------------
 
 Alpha MOs
 -- Occupied --
-19.178 -19.173 -19.120 -19.116 -10.312 -10.308 -10.233 -10.228
-10.205 -10.204 -10.201 -10.200 -10.187 -10.185 -10.176 -10.168
 -1.121  -1.114  -1.032  -1.028  -0.885  -0.808  -0.792  -0.748
 -0.733  -0.726  -0.674  -0.648  -0.620  -0.576  -0.568  -0.532
 -0.519  -0.513  -0.489  -0.488  -0.480  -0.477  -0.469  -0.441
 -0.436  -0.428  -0.423  -0.414  -0.412  -0.406  -0.396  -0.387
 -0.380  -0.372  -0.360  -0.358  -0.357  -0.320  -0.312  -0.298
 -0.287  -0.265  -0.253
 -- Virtual --
 -0.055  -0.033  -0.012  -0.004  -0.000   0.007   0.012   0.016
  0.022   0.026   0.033   0.035   0.038   0.039   0.046   0.053
  0.055   0.058   0.067   0.070   0.076   0.081   0.090   0.091
  0.096   0.098   0.103   0.108   0.111   0.115   0.118   0.120
  0.123   0.126   0.131   0.135   0.137   0.142   0.143   0.144
  0.147   0.148   0.153   0.154   0.159   0.162   0.167   0.169
  0.170   0.174   0.176   0.186   0.188   0.194   0.196   0.199
  0.202   0.205   0.208   0.211   0.219   0.225   0.226   0.235
  0.240   0.244   0.247   0.251   0.257   0.261   0.267   0.272
  0.280   0.284   0.288   0.292   0.297   0.302   0.305   0.311
  0.313   0.319   0.322   0.327   0.331   0.341   0.344   0.351
  0.351   0.355   0.362   0.369   0.373   0.377   0.386   0.390
  0.395   0.400   0.405   0.407   0.415   0.424   0.431   0.435
  0.457   0.458   0.477   0.482   0.499   0.504   0.515   0.518
  0.523   0.529   0.549   0.555   0.563   0.567   0.571   0.581
  0.588   0.593   0.597   0.612   0.621   0.629   0.634   0.640
  0.648   0.658   0.658   0.662   0.665   0.669   0.674   0.680
  0.686   0.692   0.696   0.700   0.704   0.716   0.728   0.739
  0.740   0.748   0.756   0.765   0.770   0.785   0.793   0.809
  0.811   0.841   0.855   0.863   0.871   0.889   0.898   0.921
  0.939   0.943   0.963   0.967   0.983   0.985   1.018   1.028
  1.038   1.043   1.058   1.072   1.082   1.086   1.095   1.114
  1.148   1.168   1.179   1.196   1.211   1.224   1.230   1.243
  1.255   1.280   1.295   1.302   1.327   1.332   1.347   1.358
  1.365   1.375   1.386   1.403   1.408   1.421   1.430   1.441
  1.455   1.456   1.478   1.486   1.495   1.504   1.524   1.531
  1.537   1.553   1.561   1.566   1.570   1.585   1.594   1.595
  1.605   1.611   1.623   1.630   1.642   1.651   1.666   1.687
  1.698   1.708   1.719   1.721   1.737   1.744   1.756   1.773
  1.778   1.784   1.794   1.820   1.827   1.835   1.845   1.867
  1.879   1.888   1.891   1.919   1.951   1.961   1.975   1.985
  2.013   2.017   2.023   2.051   2.085   2.092   2.105   2.121
  2.124   2.133   2.141   2.164   2.178   2.188   2.207   2.236
  2.250   2.301   2.315   2.327   2.332   2.410   2.416   2.449
  2.453   2.474   2.477   2.488   2.500   2.512   2.521   2.528
  2.543   2.556   2.570   2.579   2.592   2.596   2.607   2.611
  2.627   2.646   2.661   2.666   2.686   2.698   2.727   2.741
  2.757   2.765   2.783   2.798   2.820   2.834   2.846   2.850
  2.871   2.885   2.894   2.908   2.916   2.934   2.954   2.971
  2.999   3.024   3.039   3.051   3.055   3.077   3.109   3.111
  3.137   3.172   3.180   3.204   3.229   3.243   3.253   3.270
  3.294   3.311   3.375   3.395   3.436   3.444   3.528   3.591
  3.594   3.617   3.665   3.717   3.762   3.776   3.789   3.797
  3.798   3.815   3.850   3.860   3.886   3.947   4.051   4.056
  4.078   4.127   4.138   4.234   4.312   4.339   4.390   4.864
  5.065   5.118   5.123   5.163   5.238   5.254   5.392   5.407
  5.614   5.629   5.864   5.882  23.542  23.849  23.866  23.908
 23.924  23.937  23.943  23.951  23.999  24.062  24.072  24.168
 49.890  49.904  50.014  50.035
 --------------------------------------------------------------
 
          Ground-State Mulliken Net Atomic Charges

     Atom                 Charge (a.u.)
  ----------------------------------------
      1 C                     0.447611
      2 C                     0.569946
      3 C                    -0.935947
      4 C                    -0.450666
      5 O                     0.043523
      6 O                    -0.122632
      7 O                    -0.010540
      8 O                    -0.196525
      9 C                    -0.224841
     10 C                    -0.214056
     11 C                     0.618951
     12 C                    -0.542868
     13 C                    -0.669083
     14 C                     0.512356
     15 H                     0.196214
     16 H                     0.184927
     17 H                     0.125545
     18 H                     0.174765
     19 H                     0.149851
     20 H                     0.158991
     21 H                     0.158804
     22 H                     0.130723
     23 C                    -0.562746
     24 C                    -0.578831
     25 H                     0.175936
     26 H                     0.152869
     27 H                     0.190536
     28 H                     0.203610
     29 H                     0.174232
     30 H                     0.139347
  ----------------------------------------
  Sum of atomic charges =     0.000000

 -----------------------------------------------------------------
                    Cartesian Multipole Moments
 -----------------------------------------------------------------
    Charge (ESU x 10^10)
                 0.0000
    Dipole Moment (Debye)
         X       1.8607      Y      -1.0489      Z       2.4798
       Tot       3.2729
    Quadrupole Moments (Debye-Ang)
        XX     -85.4139     XY       5.1541     YY     -81.7067
        XZ      -1.0414     YZ       5.8480     ZZ    -101.8831
    Octopole Moments (Debye-Ang^2)
       XXX      46.8334    XXY      -0.8097    XYY      10.3040
       YYY      34.7357    XXZ      15.1706    XYZ       1.1143
       YYZ      12.8951    XZZ       4.1024    YZZ       8.8734
       ZZZ       2.9937
    Hexadecapole Moments (Debye-Ang^3)
      XXXX   -2139.6729   XXXY      47.8819   XXYY    -720.1999
      XYYY     -25.5495   YYYY   -1871.9351   XXXZ       5.6792
      XXYZ      23.5473   XYYZ     -11.8366   YYYZ      10.4878
      XXZZ    -436.2017   XYZZ     -20.9991   YYZZ    -413.5270
      XZZZ      15.2199   YZZZ      -5.5125   ZZZZ    -280.5464
 -----------------------------------------------------------------
Archival summary:
1\1\nid05457\OPT\ProcedureUnspecified\BasisUnspecified\41214\junteng\TueOct318:57:272017TueOct318:57:272017\0\\#,OPT,ProcedureUnspecified,BasisUnspecified,\\0,1\O\C,1,1.35004\O,2,1.20712,1,123.444\C,1,1.43889,2,115.877,3,-7.59732,0\H,4,1.08776,1,105.399,2,179.153,0\H,4,1.09066,1,110.54,2,59.5235,0\H,4,1.0912,1,109.951,2,-61.4631,0\C,2,1.49611,1,111.403,3,-178.911,0\C,8,1.40627,2,120.145,1,-44.7949,0\C,9,1.40436,8,120.976,2,-178.843,0\C,10,1.39558,9,117.612,8,-0.94194,0\H,11,1.08499,10,119.109,9,179.751,0\C,11,1.38883,10,121.517,9,0.170363,0\H,13,1.08481,11,119.392,10,-179.616,0\C,13,1.39574,11,121.586,10,0.904131,0\C,9,1.50113,8,119.592,2,-4.19547,0\O,16,1.20749,9,124.48,8,-60.0671,0\O,16,1.34528,9,111.68,8,121.804,0\C,18,1.43933,16,115.886,9,178.199,0\H,19,1.0876,18,105.411,16,179.483,0\H,19,1.09092,18,110.319,16,59.9402,0\H,19,1.09129,18,110.515,16,-60.8837,0\C,15,1.51026,13,119.46,11,179.215,0\H,23,1.09165,15,111.06,13,-111.162,0\H,23,1.09171,15,110.121,13,9.28565,0\H,23,1.09255,15,111.993,13,129.631,0\C,10,1.51039,9,122.489,8,177.944,0\H,27,1.09143,10,110.394,9,-168.47,0\H,27,1.09261,10,111.218,9,71.3014,0\H,27,1.09352,10,111.656,9,-48.6349,0\\\@

 Total job time:  1108.35s(wall), 20974.99s(cpu) 
 Tue Oct  3 18:57:27 2017

        *************************************************************
        *                                                           *
        *  Thank you very much for using Q-Chem.  Have a nice day.  *
        *                                                           *
        *************************************************************


