nid04270 10.128.16
Q-Chem Developer Version! Running on 10.128.16.*
                  Welcome to Q-Chem
     A Quantum Leap Into The Future Of Chemistry


 Q-Chem 5.0, Q-Chem, Inc., Pleasanton, CA (2017)

 Yihan Shao,  Zhengting Gan,  E. Epifanovsky,  A. T. B. Gilbert,  M. Wormit,  
 J. Kussmann,  A. W. Lange,  A. Behn,  Jia Deng,  Xintian Feng,  D. Ghosh,  
 M. Goldey,  P. R. Horn,  L. D. Jacobson,  I. Kaliman,  T. Kus,  A. Landau,  
 Jie Liu,  E. I. Proynov,  R. M. Richard,  R. P. Steele,  E. J. Sundstrom,  
 H. L. Woodcock III,  P. M. Zimmerman,  D. Zuev,  B. Albrecht,  E. Alguire,  
 S. A. Baeppler,  Z. Benda,  Y. A. Bernard,  E. J. Berquist,  K. B. Bravaya,  
 D. Casanova,  Chun-Min Chang,  Yunqing Chen,  A. Chien,  K. D. Closser,  
 M. P. Coons,  S. Dasgupta,  M. Diedenhofen,  Hainam Do,  R. G. Edgar,  
 Po-Tung Fang,  S. Fatehi,  Qingguo Feng,  Qinghui Ge,  A. Ghysels,  
 J. Gomes,  J. Gonthier,  A. Gunina,  M. W. D. Hanson-Heine,  
 P. H. P. Harbach,  A. W. Hauser,  J. E. Herr,  E. G. Hohenstein,  
 Z. C. Holden,  Kerwin Hui,  T.-C. Jagau,  Hyunjun Ji,  B. Kaduk,  
 K. Khistyaev,  Jaehoon Kim,  P. Klunzinger,  K. Koh,  D. Kosenkov,  
 T. Kowalczyk,  C. M. Krauter,  A. Kunitsa,  Ka Un Lao,  A. Laurent,  
 K. V. Lawler,  Joonho Lee,  D. Lefrancois,  S. Lehtola,  D. S. Levine,  
 Yi-Pei Li,  You-Sheng Lin,  Fenglai Liu,  E. Livshits,  A. Luenser,  
 P. Manohar,  E. Mansoor,  S. F. Manzer,  Shan-Ping Mao,  Yuezhi Mao,  
 N. Mardirossian,  A. V. Marenich,  L. A. Martinez-Martinez,  S. A. Maurer,  
 N. J. Mayhall,  S. C. McKenzie,  J.-M. Mewes,  A. F. Morrison,  K. Nanda,  
 T. S. Nguyen-Beck,  R. Olivares-Amaya,  J. A. Parkhill,  T. M. Perrine,  
 F. Plasser,  S. Prager,  A. Prociuk,  D. R. Rehn,  F. Rob,  M. Schneider,  
 N. Sergueev,  S. M. Sharada,  S. Sharma,  D. W. Small,  T. Stauch,  
 T. Stein,  Yu-Chuan Su,  A. J. W. Thom,  T. Tsuchimochi,  L. Vogt,  
 O. Vydrov,  M. A. Watson,  J. Wenzel,  M. de Wergifosse,  T. A. Wesolowski,  
 A. White,  J. Witte,  A. Yamada,  Jun Yang,  K. Yao,  S. Yeganeh,  
 S. R. Yost,  Zhi-Qiang You,  A. Zech,  Igor Ying Zhang,  Xing Zhang,  
 Yan Zhao,  Ying Zhu,  B. R. Brooks,  G. K. L. Chan,  C. J. Cramer,  
 M. S. Gordon,  W. J. Hehre,  A. Klamt,  M. W. Schmidt,  C. D. Sherrill,  
 D. G. Truhlar,  A. Aspuru-Guzik,  R. Baer,  A. T. Bell,  N. A. Besley,  
 Jeng-Da Chai,  A. Dreuw,  B. D. Dunietz,  T. R. Furlani,  Chao-Ping Hsu,  
 Yousung Jung,  Jing Kong,  D. S. Lambrecht,  WanZhen Liang,  C. Ochsenfeld,  
 V. A. Rassolov,  L. V. Slipchenko,  J. E. Subotnik,  T. Van Voorhis,  
 J. M. Herbert,  A. I. Krylov,  P. M. W. Gill,  M. Head-Gordon

 Contributors to earlier versions of Q-Chem not listed above: 
 R. D. Adamson,  B. Austin,  J. Baker,  G. J. O. Beran,  K. Brandhorst,  
 S. T. Brown,  E. F. C. Byrd,  A. K. Chakraborty,  C.-L. Cheng,  
 Siu Hung Chien,  D. M. Chipman,  D. L. Crittenden,  H. Dachsel,  
 R. A. DiStasio Jr.,  R. J. Doerksen,  A. D. Dutoi,  L. Fusti-Molnar,  
 W. A. Goddard III,  A. Golubeva-Zadorozhnaya,  S. R. Gwaltney,  G. Hawkins,  
 A. Heyden,  S. Hirata,  G. Kedziora,  F. J. Keil,  C. Kelley,  Jihan Kim,  
 R. A. King,  R. Z. Khaliullin,  P. P. Korambath,  W. Kurlancheek,  
 A. M. Lee,  M. S. Lee,  S. V. Levchenko,  Ching Yeh Lin,  D. Liotard,  
 R. C. Lochan,  I. Lotan,  P. E. Maslen,  N. Nair,  D. P. O'Neill,  
 D. Neuhauser,  E. Neuscamman,  C. M. Oana,  R. Olson,  B. Peters,  
 R. Peverati,  P. A. Pieniazek,  Y. M. Rhee,  J. Ritchie,  M. A. Rohrdanz,  
 E. Rosta,  N. J. Russ,  H. F. Schaefer III,  N. E. Schultz,  N. Shenvi,  
 A. C. Simmonett,  A. Sodt,  D. Stuck,  K. S. Thanthiriwatte,  V. Vanovschi,  
 Tao Wang,  A. Warshel,  C. F. Williams,  Q. Wu,  X. Xu,  W. Zhang

 Please cite Q-Chem as follows:
 Y. Shao et al., Mol. Phys. 113, 184-215 (2015)
 DOI: 10.1080/00268976.2014.952696

 Q-Chem 5.0.0 for Intel X86 EM64T Linux

 Parts of Q-Chem use Armadillo 5.200.1 (Boston Tea Smuggler).
 http://arma.sourceforge.net/

 Q-Chem begins on Wed Oct  4 17:59:30 2017  

Host: nid04270
0

     Scratch files written to /global/cscratch1/sd/junteng/scratch/15/opt_1111++.save//

Checking the input file for inconsistencies... 	...done.

--------------------------------------------------------------
User input:
--------------------------------------------------------------
$molecule
0  1
C    0.579  -1.978   0.499
C   -0.345  -1.987   1.740
C    0.941  -0.610  -0.048
C   -0.562  -0.630   2.386
O    2.215  -0.645  -0.542
O    0.210   0.366  -0.087
O    0.648  -0.161   2.826
O   -1.631  -0.088   2.617
C    0.572   1.116   3.461
C    2.652   0.593  -1.106
C   -0.242  -2.782  -0.524
C   -0.292  -4.259  -0.098
C   -1.265  -4.223   1.081
C   -1.594  -2.718   1.188
O   -1.591  -2.362  -0.216
H    1.516  -2.494   0.747
H    0.090  -2.606   2.538
H   -0.024   1.052   4.377
H    2.622   1.389  -0.356
H   -0.708  -4.895  -0.888
H    0.690  -4.657   0.174
H   -2.154  -4.811   0.825
H   -0.840  -4.639   1.999
H    1.587   1.422   3.729
H    0.156   1.863   2.777
H    2.039   0.852  -1.975
H    3.687   0.467  -1.436
C   -2.945  -2.478   1.828
H   -3.699  -3.155   1.411
H   -2.911  -2.635   2.910
H   -3.320  -1.473   1.614
C    0.085  -2.603  -1.994
H   -0.579  -3.214  -2.616
H   -0.074  -1.570  -2.320
H    1.119  -2.890  -2.210
$end


$opt
CONSTRAINT
tors    2    1    3    5    152.3
tors    1    2    4    7    -59.6
ENDCONSTRAINT
$end

$rem
JOBTYPE                   OPT
METHOD                    B3LYP
DFT_D                     D3_OP
BASIS                     STO-3G
GEOM_OPT_MAX_CYCLES       500
SYMMETRY                  False
THRESH                    12
SCF_CONVERGENCE           8
MAX_SUB_FILE_NUM          128
MEM_STATIC                400
MEM_TOTAL                 4000
$end

--------------------------------------------------------------
 Adding empirical dispersion correction 
 ----------------------------------------------------------------
 Doing -D3(op) with
 s6 =   1.00000
 s8 =   0.78311
 a1 =   0.30000
 a2 =   4.25000
 n  =  10.00000
 -D3 energy without 3body term =     -0.0411703493 hartrees
 ----------------------------------------------------------------
             Standard Nuclear Orientation (Angstroms)
    I     Atom           X                Y                Z
 ----------------------------------------------------------------
    1      C       0.0405485511     0.6575719166     0.6279970458
    2      C       0.4485580788    -0.8348816956     0.6210370951
    3      C      -1.2236982091     1.0027230799    -0.1363509142
    4      C      -0.5983616521    -1.7818052351     0.0614400192
    5      O      -1.8727982861     2.0215992616     0.5030999569
    6      O      -1.5961984503     0.4914952944    -1.1795899671
    7      O      -1.7171432315    -1.7052423029     0.8489213808
    8      O      -0.4521119641    -2.5882506495    -0.8430724586
    9      C      -2.7784272181    -2.5607562126     0.4228905721
   10      C      -3.0723596472     2.4436939349    -0.1485116050
   11      C       1.2695511140     1.3340043222    -0.0036499292
   12      C       2.4565832498     1.2598809157     0.9715246343
   13      C       2.8623527980    -0.2112841170     0.8761804153
   14      C       1.8144140588    -0.7767714946    -0.1070608698
   15      O       1.6672726917     0.3585939812    -0.9943351534
   16      H      -0.1006442077     0.9849117819     1.6665740614
   17      H       0.6216642017    -1.1903109685     1.6471434747
   18      H      -2.4797608129    -3.6105469360     0.5071865717
   19      H      -3.7802435395     1.6131239838    -0.2264214976
   20      H       3.2933331402     1.8856898890     0.6400661152
   21      H       2.1911460006     1.5619689502     1.9888730929
   22      H       3.8755559769    -0.2734341450     0.4624683269
   23      H       2.8636012425    -0.7181800102     1.8454378604
   24      H      -3.6353600821    -2.3906923623     1.0804841802
   25      H      -3.0783059100    -2.3222438675    -0.6028314328
   26      H      -2.8433670294     2.8555358485    -1.1364182905
   27      H      -3.5276066382     3.2308286629     0.4590820891
   28      C       2.3256610058    -2.0007489527    -0.8370654871
   29      H       3.3506780532    -1.8430305545    -1.1909001368
   30      H       2.3227728949    -2.8841446677    -0.1919820277
   31      H       1.7440132593    -2.2037087567    -1.7409123862
   32      C       1.0880301320     2.7130571330    -0.6079126850
   33      H       2.0289460417     3.0747186755    -1.0380047444
   34      H       0.3716132743     2.6999266795    -1.4356931372
   35      H       0.7526844869     3.4359215512     0.1425480610
 ----------------------------------------------------------------
 Molecular Point Group                 C1    NOp =  1
 Largest Abelian Subgroup              C1    NOp =  1
 Nuclear Repulsion Energy =  1395.7531872986 hartrees
 There are       65 alpha and       65 beta electrons
 Requested basis set is STO-3G
 There are 52 shells and 103 basis functions

 Total QAlloc Memory Limit   4000 MB
 Mega-Array Size       392 MB
 MEM_STATIC part       400 MB
 A cutoff of  1.0D-12 yielded   1204 shell pairs
 There are      5194 function pairs
 
 -------------------------------------------------------
 OpenMP Integral Computing Module                       
 Release: version 1.0, May 2013, Q-Chem Inc. Pittsburgh 
 -------------------------------------------------------
 Integral Job Info:
 Integral job number is                      11
 Integral operator is                         1
 short-range coefficients                     0
 long-range coefficients              100000000
 Omega coefficients                           0
 if combine SR and LR in K                    0
 Integral screening is                        0
 Integral computing path is                   2
 max size of driver memory is            800000
 size of driver memory is                 45569
 size of scratch memory is               945100
 max col of scratch BK array                289
 max len of scratch array in speh3           22
 max len of scratch index in speh4            8
 max int batch size is                      520
 min int batch size is                       52
 fixed nKL is                                52
 max L of basis functions is                  1
 order of int derivative is                   0
 number of shells is                         52
 number of basis is                         103
 number of cartesian basis is               103
 number of contracted shell pairs          1204
 number of primitive shell pairs           6556
 maxK2 (contraction) of shell pair            9
 max number of K2 of shell pair               1
 max number of CS2 of shell pair            185
 max number of PS2 of shell pair            828
 mem total for path MDJ                   33898
 -------------------------------------------------------
 Smallest overlap matrix eigenvalue = 1.95E-01

 Scale SEOQF with 1.000000e-01/1.000000e-01/1.000000e-01

 Standard Electronic Orientation quadrupole field applied
 Nucleus-field energy     =     0.0000000384 hartrees
 Guess from superposition of atomic densities
 Warning:  Energy on first SCF cycle will be non-variational
 A restricted hybrid HF-DFT SCF calculation will be
 performed using Pulay DIIS extrapolation
 Exchange:     0.2000 Hartree-Fock + 0.0800 Slater + 0.7200 B88
 Correlation:  0.1900 VWN1RPA + 0.8100 LYP
 Using SG-1 standard quadrature grid
 Dispersion:   Grimme D3
 SCF converges when DIIS error is below 1.0E-08
 -------------------------------------------------------
 OpenMP Integral computing Module                
 Release: version 1.0, May 2013, Q-Chem Inc. Pittsburgh 
 -------------------------------------------------------
 -------------------------------------------------------
 OpenMP BLAS3 based DFT computing Module                
 Release: version 1.0, May 2013, Q-Chem Inc. Pittsburgh 
 -------------------------------------------------------
 ---------------------------------------
  Cycle       Energy         DIIS Error
 ---------------------------------------
    1    -832.4613427662      1.05E-01
    2    -833.1370762580      1.27E-02
    3    -832.1370895692      3.08E-02
    4    -833.3782765538      4.55E-03
    5    -833.4066960607      1.46E-03
    6    -833.4098473704      2.71E-04
    7    -833.4099544728      7.62E-05
    8    -833.4099606041      4.17E-05
    9    -833.4099632398      4.63E-06
   10    -833.4099632746      1.22E-06
   11    -833.4099632769      3.03E-07
   12    -833.4099632770      8.71E-08
   13    -833.4099632770      1.56E-08
   14    -833.4099632771      3.41E-09 Convergence criterion met
 ---------------------------------------
 SCF time:  CPU 137.97 s  wall 7.02 s
 SCF   energy in the final basis set = -833.4099632771
 Total energy in the final basis set = -833.4099632771
 
 --------------------------------------------------------------
 
                    Orbital Energies (a.u.)
 --------------------------------------------------------------
 
 Alpha MOs
 -- Occupied --
-18.942 -18.934 -18.865 -18.864 -18.861 -10.107 -10.103 -10.074
-10.068 -10.064 -10.060 -10.030 -10.029 -10.013 -10.007 -10.005
-10.002  -1.042  -1.034  -0.985  -0.951  -0.945  -0.773  -0.753
 -0.733  -0.690  -0.680  -0.671  -0.624  -0.593  -0.545  -0.520
 -0.491  -0.482  -0.466  -0.447  -0.439  -0.429  -0.428  -0.422
 -0.411  -0.391  -0.387  -0.379  -0.371  -0.369  -0.364  -0.345
 -0.341  -0.334  -0.309  -0.305  -0.304  -0.292  -0.287  -0.281
 -0.271  -0.247  -0.241  -0.214  -0.181  -0.175  -0.151  -0.141
 -0.130
 -- Virtual --
  0.111   0.129   0.243   0.280   0.295   0.311   0.331   0.354
  0.372   0.379   0.388   0.400   0.403   0.413   0.419   0.432
  0.439   0.444   0.449   0.451   0.456   0.457   0.463   0.467
  0.475   0.480   0.487   0.492   0.498   0.506   0.510   0.513
  0.537   0.546   0.583   0.586   0.707   0.709
 --------------------------------------------------------------
 
          Ground-State Mulliken Net Atomic Charges

     Atom                 Charge (a.u.)
  ----------------------------------------
      1 C                    -0.084595
      2 C                    -0.084928
      3 C                     0.236932
      4 C                     0.238677
      5 O                    -0.187608
      6 O                    -0.231157
      7 O                    -0.194162
      8 O                    -0.225991
      9 C                    -0.126414
     10 C                    -0.126312
     11 C                     0.111091
     12 C                    -0.148495
     13 C                    -0.147098
     14 C                     0.111557
     15 O                    -0.214092
     16 H                     0.087026
     17 H                     0.085427
     18 H                     0.091170
     19 H                     0.093535
     20 H                     0.075293
     21 H                     0.069960
     22 H                     0.075299
     23 H                     0.068530
     24 H                     0.092479
     25 H                     0.096380
     26 H                     0.092817
     27 H                     0.095226
     28 C                    -0.230291
     29 H                     0.078853
     30 H                     0.081177
     31 H                     0.098540
     32 C                    -0.231645
     33 H                     0.084746
     34 H                     0.083765
     35 H                     0.084309
  ----------------------------------------
  Sum of atomic charges =    -0.000000

 -----------------------------------------------------------------
                    Cartesian Multipole Moments
 -----------------------------------------------------------------
    Charge (ESU x 10^10)
                 0.0000
    Dipole Moment (Debye)
         X      -0.8782      Y       1.1630      Z       2.3527
       Tot       2.7675
    Quadrupole Moments (Debye-Ang)
        XX     -83.8071     XY      -0.7113     YY     -88.8934
        XZ       0.9767     YZ      -3.9015     ZZ     -96.9292
    Octopole Moments (Debye-Ang^2)
       XXX     -46.3966    XXY      -1.7284    XYY     -21.3534
       YYY       5.1219    XXZ      -0.4018    XYZ       3.8207
       YYZ       2.3429    XZZ      -3.9993    YZZ      -0.3880
       ZZZ      -3.3241
    Hexadecapole Moments (Debye-Ang^3)
      XXXX   -2091.2066   XXXY      -6.0688   XXYY    -600.9185
      XYYY      -2.1704   YYYY   -1803.7757   XXXZ     -28.9029
      XXYZ      -4.3762   XYYZ      -7.7605   YYYZ     -36.1812
      XXZZ    -448.9289   XYZZ      -3.9821   YYZZ    -373.8865
      XZZZ      -5.3102   YZZZ       4.7161   ZZZZ    -389.6427
 -----------------------------------------------------------------
 Calculating analytic gradient of the SCF energy
 Gradient of SCF Energy
            1           2           3           4           5           6
    1   0.0068753  -0.0046877  -0.0166998  -0.0197001  -0.0083837   0.0221746
    2  -0.0061405   0.0027730   0.0136587  -0.0050542  -0.0333299   0.0277086
    3  -0.0439619  -0.0259477  -0.0049261   0.0059897  -0.0526228   0.0536548
            7           8           9          10          11          12
    1   0.0189254  -0.0015472   0.0137487   0.0155365  -0.0147881  -0.0140183
    2  -0.0354658   0.0374925   0.0122788  -0.0053058  -0.0088645  -0.0163340
    3  -0.0479698   0.0469183   0.0073292   0.0104380   0.0044710  -0.0276032
           13          14          15          16          17          18
    1  -0.0188788  -0.0134132   0.0002181   0.0010425   0.0008687  -0.0002796
    2   0.0098466   0.0013371  -0.0017583  -0.0047971  -0.0026952   0.0134481
    3  -0.0239240   0.0041002   0.0591838  -0.0036425  -0.0066526   0.0045960
           19          20          21          22          23          24
    1   0.0096437   0.0015668   0.0018289  -0.0016174   0.0000789   0.0064180
    2   0.0080000  -0.0065480  -0.0026222   0.0062579   0.0036352  -0.0035888
    3   0.0068064   0.0026614  -0.0056205   0.0037838  -0.0055836  -0.0080883
           25          26          27          28          29          30
    1   0.0035522   0.0029766   0.0019587  -0.0076661  -0.0055637   0.0022017
    2   0.0031584  -0.0020146  -0.0071906   0.0172553  -0.0035201   0.0034711
    3   0.0127123   0.0138624  -0.0075342   0.0224771  -0.0038969  -0.0029576
           31          32          33          34          35
    1   0.0094985   0.0042312  -0.0054129   0.0069380   0.0023733
    2   0.0036308  -0.0187618   0.0004390   0.0011666  -0.0015662
    3  -0.0003602   0.0173100  -0.0021302   0.0011114  -0.0039838
 Max gradient component =       5.918E-02
 RMS gradient           =       1.675E-02
 Gradient time:  CPU 26.48 s  wall 1.18 s
 Geometry Optimization Parameters
   NAtoms,    NIC,     NZ,  NCons,   NDum,   NFix, NCnnct, MaxDiis
       35     275       0       2       0       0       0       0


** CONSTRAINED OPTIMIZATION IN DELOCALIZED INTERNAL COORDINATES **
   Searching for a Minimum

   Optimization Cycle:   1

                       Coordinates (Angstroms)
     ATOM                X               Y               Z
      1  C         0.0405485511    0.6575719166    0.6279970458
      2  C         0.4485580788   -0.8348816956    0.6210370951
      3  C        -1.2236982091    1.0027230799   -0.1363509142
      4  C        -0.5983616521   -1.7818052351    0.0614400192
      5  O        -1.8727982861    2.0215992616    0.5030999569
      6  O        -1.5961984503    0.4914952944   -1.1795899671
      7  O        -1.7171432315   -1.7052423029    0.8489213808
      8  O        -0.4521119641   -2.5882506495   -0.8430724586
      9  C        -2.7784272181   -2.5607562126    0.4228905721
     10  C        -3.0723596472    2.4436939349   -0.1485116050
     11  C         1.2695511140    1.3340043222   -0.0036499292
     12  C         2.4565832498    1.2598809157    0.9715246343
     13  C         2.8623527980   -0.2112841170    0.8761804153
     14  C         1.8144140588   -0.7767714946   -0.1070608698
     15  O         1.6672726917    0.3585939812   -0.9943351534
     16  H        -0.1006442077    0.9849117819    1.6665740614
     17  H         0.6216642017   -1.1903109685    1.6471434747
     18  H        -2.4797608129   -3.6105469360    0.5071865717
     19  H        -3.7802435395    1.6131239838   -0.2264214976
     20  H         3.2933331402    1.8856898890    0.6400661152
     21  H         2.1911460006    1.5619689502    1.9888730929
     22  H         3.8755559769   -0.2734341450    0.4624683269
     23  H         2.8636012425   -0.7181800102    1.8454378604
     24  H        -3.6353600821   -2.3906923623    1.0804841802
     25  H        -3.0783059100   -2.3222438675   -0.6028314328
     26  H        -2.8433670294    2.8555358485   -1.1364182905
     27  H        -3.5276066382    3.2308286629    0.4590820891
     28  C         2.3256610058   -2.0007489527   -0.8370654871
     29  H         3.3506780532   -1.8430305545   -1.1909001368
     30  H         2.3227728949   -2.8841446677   -0.1919820277
     31  H         1.7440132593   -2.2037087567   -1.7409123862
     32  C         1.0880301320    2.7130571330   -0.6079126850
     33  H         2.0289460417    3.0747186755   -1.0380047444
     34  H         0.3716132743    2.6999266795   -1.4356931372
     35  H         0.7526844869    3.4359215512    0.1425480610
   Point Group: c1    Number of degrees of freedom:    99


   Energy is   -833.409963277

              Constraints and their Current Values
                                        Value     Constraint
   Dihedral:        2   1   3   5      145.794      152.300
   Dihedral:        1   2   4   7      -61.913      -59.600

 Attempting to Generate Delocalized Internal Coordinates

   Using Lagrange Multiplier Algorithm


101 Hessian modes will be used to form the next step
  Hessian Eigenvalues:
    -0.977753   -0.977753    0.045000    0.045000    0.045000    0.045000
     0.045000    0.045000    0.045023    0.045263    0.045502    0.048606
     0.060298    0.061777    0.067925    0.070278    0.071449    0.071695
     0.075522    0.076606    0.078244    0.080811    0.081377    0.081808
     0.083396    0.083502    0.083514    0.083675    0.084645    0.090017
     0.091538    0.091907    0.106339    0.109001    0.113820    0.113949
     0.116299    0.116905    0.116996    0.126894    0.131265    0.139894
     0.144501    0.160000    0.160000    0.160000    0.160000    0.160000
     0.160000    0.160000    0.160000    0.160000    0.160000    0.160000
     0.160000    0.165730    0.185925    0.241736    0.248635    0.249881
     0.250000    0.250000    0.250000    0.250000    0.250633    0.260748
     0.267050    0.282050    0.285547    0.305111    0.306449    0.307030
     0.309452    0.327325    0.337229    0.338979    0.340712    0.341060
     0.341086    0.341343    0.341531    0.342465    0.342607    0.342751
     0.342848    0.342936    0.343451    0.343609    0.343704    0.343747
     0.343768    0.343978    0.344143    0.411501    0.412503    0.509233
     0.515826    0.951140    0.953727    1.022753    1.022753

 Minimum Search - Taking P-RFO Step
 Searching for Lamda that Maximizes Along the Constraint modes Only
 Value Taken    Lamda =   0.00669614
 Searching for Lamda that Minimizes Along All other modes
 Value Taken    Lamda =  -0.07125274
 Calculated Step too Large.  Step scaled by  0.707925
 Step Taken.  Stepsize is  0.300000

                             Maximum     Tolerance    Cnvgd?
         Gradient            0.113554       0.000300      NO
         Displacement        0.100325       0.001200      NO
         Energy change     *********       0.000001      NO


 New Cartesian Coordinates Obtained by Inverse Iteration

 Displacement from previous Coordinates is:  0.650996
 Adding empirical dispersion correction 
 ----------------------------------------------------------------
 Doing -D3(op) with
 s6 =   1.00000
 s8 =   0.78311
 a1 =   0.30000
 a2 =   4.25000
 n  =  10.00000
 -D3 energy without 3body term =     -0.0408648915 hartrees
 ----------------------------------------------------------------
             Standard Nuclear Orientation (Angstroms)
    I     Atom           X                Y                Z
 ----------------------------------------------------------------
    1      C       0.0460055310     0.6582326838     0.6849895122
    2      C       0.4834907508    -0.8482657285     0.6498694637
    3      C      -1.2583546169     0.9713251928    -0.0899072712
    4      C      -0.5925466862    -1.8067539053     0.0662722336
    5      O      -1.8977326660     2.0573817743     0.5221587139
    6      O      -1.6503419254     0.4210262161    -1.1338615032
    7      O      -1.7351036628    -1.7079120905     0.8772217265
    8      O      -0.4766851320    -2.6082787621    -0.8760261467
    9      C      -2.8246600528    -2.5549350866     0.4092595434
   10      C      -3.1136995323     2.4565765983    -0.1770387121
   11      C       1.2973043206     1.3476194088     0.0066096018
   12      C       2.5092770849     1.2821050051     1.0045224493
   13      C       2.9271411526    -0.2156085746     0.8992772831
   14      C       1.8603199745    -0.7825006141    -0.1124271085
   15      O       1.6946008896     0.3650327085    -1.0186174986
   16      H      -0.0845079022     1.0085505168     1.7223130179
   17      H       0.6705805586    -1.2050970428     1.6781545910
   18      H      -2.5579024611    -3.6270472621     0.4634224703
   19      H      -3.8442755694     1.6280998649    -0.2255739310
   20      H       3.3339511617     1.9257755910     0.6669988121
   21      H       2.2401788882     1.5866120064     2.0264141121
   22      H       3.9381018924    -0.2908676851     0.4745151938
   23      H       2.9305824271    -0.7329863716     1.8697685367
   24      H      -3.6853073700    -2.3726053696     1.0743933312
   25      H      -3.1195425339    -2.3017305526    -0.6261946334
   26      H      -2.8939999703     2.8128545925    -1.2007508537
   27      H      -3.5592825887     3.2862472430     0.3967649300
   28      C       2.3540754104    -2.0250228980    -0.8732996303
   29      H       3.3799661462    -1.8629160421    -1.2350898313
   30      H       2.3504832308    -2.9132493203    -0.2278735942
   31      H       1.7382146610    -2.2189796977    -1.7622658004
   32      C       1.0780966256     2.7362738144    -0.6201172876
   33      H       2.0148408502     3.1044557768    -1.0621007906
   34      H       0.3404577268     2.6974452478    -1.4348219797
   35      H       0.7388667606     3.4583556957     0.1352832808
 ----------------------------------------------------------------
 Molecular Point Group                 C1    NOp =  1
 Largest Abelian Subgroup              C1    NOp =  1
 Nuclear Repulsion Energy =  1375.6493235887 hartrees
 There are       65 alpha and       65 beta electrons
 Applying Cartesian multipole field
    Component          Value
    ---------          -----
     (2,0,0)        1.00000E-11
     (0,2,0)        2.00000E-11
     (0,0,2)       -3.00000E-11
 Nucleus-field energy     =     0.0000000391 hartrees
 Requested basis set is STO-3G
 There are 52 shells and 103 basis functions
 A cutoff of  1.0D-12 yielded   1202 shell pairs
 There are      5186 function pairs
 Smallest overlap matrix eigenvalue = 2.08E-01
 Guess MOs from SCF MO coefficient file
 Reading MOs from coefficient file
 Reading MOs from coefficient file
 A restricted hybrid HF-DFT SCF calculation will be
 performed using Pulay DIIS extrapolation
 Exchange:     0.2000 Hartree-Fock + 0.0800 Slater + 0.7200 B88
 Correlation:  0.1900 VWN1RPA + 0.8100 LYP
 Using SG-1 standard quadrature grid
 Dispersion:   Grimme D3
 SCF converges when DIIS error is below 1.0E-08
 Geometry optimization detected.  Setting ReadMinima to 0
 Setting SaveMinima to 0
 -------------------------------------------------------
 OpenMP Integral computing Module                
 Release: version 1.0, May 2013, Q-Chem Inc. Pittsburgh 
 -------------------------------------------------------
 -------------------------------------------------------
 OpenMP BLAS3 based DFT computing Module                
 Release: version 1.0, May 2013, Q-Chem Inc. Pittsburgh 
 -------------------------------------------------------
 ---------------------------------------
  Cycle       Energy         DIIS Error
 ---------------------------------------
    1    -833.2785685069      4.90E-03
    2    -833.4353874272      1.79E-03
    3    -833.4295515307      2.70E-03
    4    -833.4397587117      6.00E-04
    5    -833.4403197174      1.01E-04
    6    -833.4403359814      2.54E-05
    7    -833.4403364323      2.03E-05
    8    -833.4403370518      3.88E-06
    9    -833.4403370786      6.35E-07
   10    -833.4403370792      2.80E-07
   11    -833.4403370793      5.77E-08
   12    -833.4403370793      1.90E-08
   13    -833.4403370794      3.66E-09 Convergence criterion met
 ---------------------------------------
 SCF time:  CPU 120.78 s  wall 6.14 s
 SCF   energy in the final basis set = -833.4403370794
 Total energy in the final basis set = -833.4403370794
 
 --------------------------------------------------------------
 
                    Orbital Energies (a.u.)
 --------------------------------------------------------------
 
 Alpha MOs
 -- Occupied --
-18.939 -18.929 -18.868 -18.867 -18.863 -10.101 -10.096 -10.069
-10.063 -10.062 -10.059 -10.032 -10.030 -10.013 -10.010 -10.008
-10.004  -1.022  -1.013  -0.968  -0.939  -0.933  -0.763  -0.741
 -0.722  -0.679  -0.675  -0.661  -0.619  -0.589  -0.536  -0.514
 -0.484  -0.475  -0.455  -0.438  -0.428  -0.419  -0.419  -0.410
 -0.403  -0.385  -0.383  -0.378  -0.368  -0.364  -0.359  -0.341
 -0.338  -0.331  -0.307  -0.299  -0.297  -0.290  -0.287  -0.277
 -0.265  -0.249  -0.243  -0.218  -0.178  -0.171  -0.150  -0.141
 -0.132
 -- Virtual --
  0.102   0.120   0.237   0.262   0.278   0.296   0.315   0.337
  0.356   0.358   0.369   0.378   0.390   0.397   0.409   0.417
  0.426   0.427   0.431   0.432   0.437   0.441   0.446   0.450
  0.453   0.466   0.471   0.479   0.485   0.487   0.493   0.499
  0.520   0.523   0.559   0.564   0.669   0.672
 --------------------------------------------------------------
 
          Ground-State Mulliken Net Atomic Charges

     Atom                 Charge (a.u.)
  ----------------------------------------
      1 C                    -0.081006
      2 C                    -0.081671
      3 C                     0.220723
      4 C                     0.223212
      5 O                    -0.177507
      6 O                    -0.220446
      7 O                    -0.184291
      8 O                    -0.216486
      9 C                    -0.125371
     10 C                    -0.125254
     11 C                     0.107206
     12 C                    -0.146804
     13 C                    -0.145503
     14 C                     0.107501
     15 O                    -0.203198
     16 H                     0.085745
     17 H                     0.083318
     18 H                     0.087742
     19 H                     0.090480
     20 H                     0.074697
     21 H                     0.069973
     22 H                     0.074053
     23 H                     0.068476
     24 H                     0.088953
     25 H                     0.093538
     26 H                     0.089752
     27 H                     0.091952
     28 C                    -0.227476
     29 H                     0.078307
     30 H                     0.080228
     31 H                     0.098077
     32 C                    -0.228712
     33 H                     0.083384
     34 H                     0.083346
     35 H                     0.083063
  ----------------------------------------
  Sum of atomic charges =    -0.000000

 -----------------------------------------------------------------
                    Cartesian Multipole Moments
 -----------------------------------------------------------------
    Charge (ESU x 10^10)
                -0.0000
    Dipole Moment (Debye)
         X      -0.6981      Y       1.1640      Z       2.2508
       Tot       2.6283
    Quadrupole Moments (Debye-Ang)
        XX     -83.6381     XY      -0.9044     YY     -89.0151
        XZ       1.3833     YZ      -3.7953     ZZ     -96.5930
    Octopole Moments (Debye-Ang^2)
       XXX     -47.1507    XXY      -1.4367    XYY     -20.8183
       YYY       5.1128    XXZ      -1.3406    XYZ       4.3491
       YYZ       1.1442    XZZ      -4.0441    YZZ       0.5655
       ZZZ      -5.3269
    Hexadecapole Moments (Debye-Ang^3)
      XXXX   -2158.0633   XXXY      -7.4749   XXYY    -614.0174
      XYYY      -0.5973   YYYY   -1824.5457   XXXZ     -29.5175
      XXYZ      -7.0799   XYYZ      -6.9682   YYYZ     -39.4062
      XXZZ    -462.6576   XYZZ      -4.6941   YYZZ    -380.4389
      XZZZ      -6.6013   YZZZ      -0.4374   ZZZZ    -401.7655
 -----------------------------------------------------------------
 Calculating analytic gradient of the SCF energy
 Gradient of SCF Energy
            1           2           3           4           5           6
    1  -0.0013266   0.0014429  -0.0087783  -0.0124381  -0.0030548   0.0078934
    2  -0.0040600   0.0054860   0.0095770   0.0043693  -0.0153444   0.0086555
    3  -0.0155628  -0.0145104   0.0094769   0.0117809  -0.0232253   0.0118373
            7           8           9          10          11          12
    1   0.0089807   0.0017061   0.0070262   0.0085065  -0.0085356  -0.0040229
    2  -0.0155476   0.0077266   0.0067707  -0.0017584  -0.0021155  -0.0026211
    3  -0.0219505   0.0119627   0.0049377   0.0063783   0.0046113  -0.0107760
           13          14          15          16          17          18
    1  -0.0053051  -0.0093974   0.0042886  -0.0002498   0.0015102  -0.0005136
    2   0.0015620  -0.0036869  -0.0027975  -0.0013010  -0.0011680   0.0031709
    3  -0.0098223   0.0012664   0.0195958  -0.0008574  -0.0022226   0.0022782
           19          20          21          22          23          24
    1   0.0018384   0.0014479   0.0018051  -0.0005405   0.0017976   0.0007023
    2   0.0024572  -0.0033966   0.0001526   0.0029319   0.0013399  -0.0018309
    3   0.0025757   0.0022445  -0.0014650   0.0023251  -0.0013143  -0.0029216
           25          26          27          28          29          30
    1  -0.0001790   0.0006382  -0.0006860  -0.0033046  -0.0019955   0.0013794
    2   0.0012168   0.0008908  -0.0018663   0.0059328  -0.0017269   0.0008969
    3   0.0035699   0.0038502  -0.0027742   0.0118139  -0.0029619  -0.0014136
           31          32          33          34          35
    1   0.0056270   0.0018661  -0.0024381   0.0032111   0.0010983
    2   0.0017160  -0.0074931   0.0003632   0.0015069  -0.0000085
    3  -0.0025136   0.0087077  -0.0019832  -0.0013262  -0.0016114
 Max gradient component =       2.323E-02
 RMS gradient           =       6.770E-03
 Gradient time:  CPU 25.86 s  wall 1.13 s
 Geometry Optimization Parameters
   NAtoms,    NIC,     NZ,  NCons,   NDum,   NFix, NCnnct, MaxDiis
       35     275       0       2       0       0       0       0

 Cartesian Hessian Update
 Hessian Updated using BFGS Update


** CONSTRAINED OPTIMIZATION IN DELOCALIZED INTERNAL COORDINATES **
   Searching for a Minimum

   Optimization Cycle:   2

                       Coordinates (Angstroms)
     ATOM                X               Y               Z
      1  C         0.0460055310    0.6582326838    0.6849895122
      2  C         0.4834907508   -0.8482657285    0.6498694637
      3  C        -1.2583546169    0.9713251928   -0.0899072712
      4  C        -0.5925466862   -1.8067539053    0.0662722336
      5  O        -1.8977326660    2.0573817743    0.5221587139
      6  O        -1.6503419254    0.4210262161   -1.1338615032
      7  O        -1.7351036628   -1.7079120905    0.8772217265
      8  O        -0.4766851320   -2.6082787621   -0.8760261467
      9  C        -2.8246600528   -2.5549350866    0.4092595434
     10  C        -3.1136995323    2.4565765983   -0.1770387121
     11  C         1.2973043206    1.3476194088    0.0066096018
     12  C         2.5092770849    1.2821050051    1.0045224493
     13  C         2.9271411526   -0.2156085746    0.8992772831
     14  C         1.8603199745   -0.7825006141   -0.1124271085
     15  O         1.6946008896    0.3650327085   -1.0186174986
     16  H        -0.0845079022    1.0085505168    1.7223130179
     17  H         0.6705805586   -1.2050970428    1.6781545910
     18  H        -2.5579024611   -3.6270472621    0.4634224703
     19  H        -3.8442755694    1.6280998649   -0.2255739310
     20  H         3.3339511617    1.9257755910    0.6669988121
     21  H         2.2401788882    1.5866120064    2.0264141121
     22  H         3.9381018924   -0.2908676851    0.4745151938
     23  H         2.9305824271   -0.7329863716    1.8697685367
     24  H        -3.6853073700   -2.3726053696    1.0743933312
     25  H        -3.1195425339   -2.3017305526   -0.6261946334
     26  H        -2.8939999703    2.8128545925   -1.2007508537
     27  H        -3.5592825887    3.2862472430    0.3967649300
     28  C         2.3540754104   -2.0250228980   -0.8732996303
     29  H         3.3799661462   -1.8629160421   -1.2350898313
     30  H         2.3504832308   -2.9132493203   -0.2278735942
     31  H         1.7382146610   -2.2189796977   -1.7622658004
     32  C         1.0780966256    2.7362738144   -0.6201172876
     33  H         2.0148408502    3.1044557768   -1.0621007906
     34  H         0.3404577268    2.6974452478   -1.4348219797
     35  H         0.7388667606    3.4583556957    0.1352832808
   Point Group: c1    Number of degrees of freedom:    99


   Energy is   -833.440337079

              Constraints and their Current Values
                                        Value     Constraint
   Dihedral:        2   1   3   5      150.232      152.300
   Dihedral:        1   2   4   7      -60.344      -59.600
 Hessian Updated using BFGS Update

   Using Lagrange Multiplier Algorithm


 85 Hessian modes will be used to form the next step
  Hessian Eigenvalues:
    -0.977845   -0.976475    0.044910    0.045002    0.045007    0.045317
     0.045501    0.048599    0.060299    0.061471    0.067950    0.070203
     0.071466    0.071691    0.075487    0.076591    0.078246    0.080803
     0.081275    0.081778    0.083185    0.083417    0.083517    0.083672
     0.084750    0.089999    0.091418    0.091905    0.106384    0.109030
     0.113717    0.113906    0.116017    0.116905    0.116997    0.126707
     0.131579    0.139919    0.144742    0.158452    0.161640    0.166014
     0.185847    0.240395    0.243928    0.248813    0.249885    0.250069
     0.250992    0.260778    0.268718    0.283554    0.290028    0.305653
     0.306847    0.308778    0.316849    0.326835    0.337249    0.338985
     0.340978    0.341074    0.341340    0.341521    0.342180    0.342564
     0.342655    0.342838    0.342873    0.343325    0.343591    0.343690
     0.343722    0.343759    0.343914    0.344097    0.373729    0.411941
     0.417004    0.497637    0.513489    0.952351    0.971001    1.022715
     1.027712

 Minimum Search - Taking P-RFO Step
 Searching for Lamda that Maximizes Along the Constraint modes Only
 Value Taken    Lamda =   0.00080624
 Searching for Lamda that Minimizes Along All other modes
 Value Taken    Lamda =  -0.01250144
 Step Taken.  Stepsize is  0.268872

                             Maximum     Tolerance    Cnvgd?
         Gradient            0.036101       0.000300      NO
         Displacement        0.080654       0.001200      NO
         Energy change     -0.030374       0.000001      NO


 New Cartesian Coordinates Obtained by Inverse Iteration

 Displacement from previous Coordinates is:  0.822033
 Adding empirical dispersion correction 
 ----------------------------------------------------------------
 Doing -D3(op) with
 s6 =   1.00000
 s8 =   0.78311
 a1 =   0.30000
 a2 =   4.25000
 n  =  10.00000
 -D3 energy without 3body term =     -0.0411588242 hartrees
 ----------------------------------------------------------------
             Standard Nuclear Orientation (Angstroms)
    I     Atom           X                Y                Z
 ----------------------------------------------------------------
    1      C       0.0806824765     0.6627092385     0.7415092401
    2      C       0.5147111037    -0.8525984649     0.6979755650
    3      C      -1.2448083718     0.9348928487    -0.0384825088
    4      C      -0.5854931251    -1.7950168951     0.0893125444
    5      O      -1.8856008553     2.0636566206     0.5491110452
    6      O      -1.6692633627     0.3292784987    -1.0491107075
    7      O      -1.7469324573    -1.6588066428     0.9109854786
    8      O      -0.5103962403    -2.5731519803    -0.8856895419
    9      C      -2.8433508176    -2.4738165077     0.3563025773
   10      C      -3.1195498028     2.3783983681    -0.1971230708
   11      C       1.3208106829     1.3575741587     0.0138698923
   12      C       2.5469002033     1.2975630077     1.0141482832
   13      C       2.9696297968    -0.2112985301     0.9050845266
   14      C       1.8847816955    -0.7765287728    -0.1067559688
   15      O       1.6907710372     0.3720001239    -1.0299186663
   16      H      -0.0313981263     1.0352731932     1.7747215122
   17      H       0.7084707918    -1.2119131802     1.7262161192
   18      H      -2.5991010154    -3.5563968510     0.3666746683
   19      H      -3.8252714416     1.5222972158    -0.2037480390
   20      H       3.3522015016     1.9615703018     0.6607898301
   21      H       2.2736725225     1.5995060984     2.0382165634
   22      H       3.9742364792    -0.3044701553     0.4621011705
   23      H       2.9698282516    -0.7362186938     1.8741543469
   24      H      -3.7196077460    -2.2888676415     1.0053738475
   25      H      -3.0844435566    -2.1763336410    -0.6852171257
   26      H      -2.9011190239     2.6621585698    -1.2475781861
   27      H      -3.5833927122     3.2348043475     0.3268257975
   28      C       2.3306828057    -2.0367843273    -0.8900908003
   29      H       3.3502294765    -1.8858490240    -1.2780842334
   30      H       2.3261235429    -2.9178965830    -0.2311149037
   31      H       1.6508671317    -2.2203248318    -1.7358237672
   32      C       1.0551708780     2.7444176002    -0.6260609349
   33      H       1.9800375193     3.1232257705    -1.0877557082
   34      H       0.2845510393     2.6668412983    -1.4086727542
   35      H       0.7179630924     3.4593183960     0.1400961390
 ----------------------------------------------------------------
 Molecular Point Group                 C1    NOp =  1
 Largest Abelian Subgroup              C1    NOp =  1
 Nuclear Repulsion Energy =  1374.0048998472 hartrees
 There are       65 alpha and       65 beta electrons
 Applying Cartesian multipole field
    Component          Value
    ---------          -----
     (2,0,0)        1.00000E-11
     (0,2,0)        2.00000E-11
     (0,0,2)       -3.00000E-11
 Nucleus-field energy     =     0.0000000384 hartrees
 Requested basis set is STO-3G
 There are 52 shells and 103 basis functions
 A cutoff of  1.0D-12 yielded   1202 shell pairs
 There are      5186 function pairs
 Smallest overlap matrix eigenvalue = 2.13E-01
 Guess MOs from SCF MO coefficient file
 Reading MOs from coefficient file
 Reading MOs from coefficient file
 A restricted hybrid HF-DFT SCF calculation will be
 performed using Pulay DIIS extrapolation
 Exchange:     0.2000 Hartree-Fock + 0.0800 Slater + 0.7200 B88
 Correlation:  0.1900 VWN1RPA + 0.8100 LYP
 Using SG-1 standard quadrature grid
 Dispersion:   Grimme D3
 SCF converges when DIIS error is below 1.0E-08
 Geometry optimization detected.  Setting ReadMinima to 0
 Setting SaveMinima to 0
 -------------------------------------------------------
 OpenMP Integral computing Module                
 Release: version 1.0, May 2013, Q-Chem Inc. Pittsburgh 
 -------------------------------------------------------
 -------------------------------------------------------
 OpenMP BLAS3 based DFT computing Module                
 Release: version 1.0, May 2013, Q-Chem Inc. Pittsburgh 
 -------------------------------------------------------
 ---------------------------------------
  Cycle       Energy         DIIS Error
 ---------------------------------------
    1    -833.3528225525      4.00E-03
    2    -833.4446133417      1.20E-03
    3    -833.4402693909      2.12E-03
    4    -833.4466593086      3.83E-04
    5    -833.4468857686      8.52E-05
    6    -833.4468969307      2.49E-05
    7    -833.4468973546      2.01E-05
    8    -833.4468979602      3.66E-06
    9    -833.4468979842      5.88E-07
   10    -833.4468979848      2.76E-07
   11    -833.4468979849      5.66E-08
   12    -833.4468979849      2.13E-08
   13    -833.4468979850      3.93E-09 Convergence criterion met
 ---------------------------------------
 SCF time:  CPU 121.89 s  wall 6.50 s
 SCF   energy in the final basis set = -833.4468979850
 Total energy in the final basis set = -833.4468979850
 
 --------------------------------------------------------------
 
                    Orbital Energies (a.u.)
 --------------------------------------------------------------
 
 Alpha MOs
 -- Occupied --
-18.937 -18.924 -18.872 -18.871 -18.866 -10.097 -10.092 -10.065
-10.061 -10.057 -10.057 -10.031 -10.029 -10.014 -10.013 -10.010
-10.004  -1.014  -1.003  -0.962  -0.935  -0.928  -0.760  -0.737
 -0.718  -0.674  -0.671  -0.654  -0.616  -0.588  -0.532  -0.511
 -0.480  -0.471  -0.452  -0.435  -0.424  -0.416  -0.414  -0.404
 -0.399  -0.383  -0.381  -0.378  -0.367  -0.362  -0.353  -0.341
 -0.335  -0.329  -0.309  -0.296  -0.292  -0.288  -0.287  -0.275
 -0.263  -0.252  -0.246  -0.223  -0.178  -0.168  -0.152  -0.142
 -0.135
 -- Virtual --
  0.097   0.117   0.237   0.257   0.272   0.288   0.306   0.325
  0.343   0.345   0.359   0.370   0.383   0.391   0.402   0.412
  0.415   0.421   0.425   0.429   0.431   0.433   0.439   0.441
  0.448   0.459   0.464   0.471   0.480   0.482   0.489   0.493
  0.509   0.515   0.549   0.557   0.653   0.659
 --------------------------------------------------------------
 
          Ground-State Mulliken Net Atomic Charges

     Atom                 Charge (a.u.)
  ----------------------------------------
      1 C                    -0.080314
      2 C                    -0.081319
      3 C                     0.214144
      4 C                     0.216162
      5 O                    -0.170201
      6 O                    -0.215347
      7 O                    -0.178263
      8 O                    -0.211812
      9 C                    -0.127692
     10 C                    -0.127399
     11 C                     0.105325
     12 C                    -0.145764
     13 C                    -0.144841
     14 C                     0.104858
     15 O                    -0.198156
     16 H                     0.085187
     17 H                     0.082091
     18 H                     0.086234
     19 H                     0.089531
     20 H                     0.074268
     21 H                     0.070603
     22 H                     0.073895
     23 H                     0.069481
     24 H                     0.086229
     25 H                     0.093109
     26 H                     0.088396
     27 H                     0.089846
     28 C                    -0.227095
     29 H                     0.077835
     30 H                     0.078873
     31 H                     0.099583
     32 C                    -0.227021
     33 H                     0.083127
     34 H                     0.083586
     35 H                     0.082861
  ----------------------------------------
  Sum of atomic charges =    -0.000000

 -----------------------------------------------------------------
                    Cartesian Multipole Moments
 -----------------------------------------------------------------
    Charge (ESU x 10^10)
                -0.0000
    Dipole Moment (Debye)
         X      -0.4937      Y       1.1661      Z       2.1071
       Tot       2.4583
    Quadrupole Moments (Debye-Ang)
        XX     -84.1353     XY      -0.9610     YY     -89.6314
        XZ       1.8575     YZ      -3.6413     ZZ     -96.2719
    Octopole Moments (Debye-Ang^2)
       XXX     -46.6921    XXY      -1.1791    XYY     -18.5277
       YYY       3.3320    XXZ      -3.0320    XYZ       4.1295
       YYZ      -0.4218    XZZ      -4.4868    YZZ       0.9722
       ZZZ      -8.3465
    Hexadecapole Moments (Debye-Ang^3)
      XXXX   -2185.0131   XXXY     -13.3100   XXYY    -617.9120
      XYYY      -3.3317   YYYY   -1788.7859   XXXZ     -33.0938
      XXYZ      -9.7312   XYYZ      -6.4865   YYYZ     -41.5621
      XXZZ    -466.7025   XYZZ      -7.2472   YYZZ    -375.2532
      XZZZ      -8.6508   YZZZ      -7.1498   ZZZZ    -405.3625
 -----------------------------------------------------------------
 Calculating analytic gradient of the SCF energy
 Gradient of SCF Energy
            1           2           3           4           5           6
    1   0.0005025  -0.0004242  -0.0045513  -0.0056309   0.0009894   0.0008034
    2  -0.0013234   0.0032263   0.0022475  -0.0001035  -0.0012373  -0.0005272
    3  -0.0012681  -0.0050102   0.0040730   0.0066015  -0.0023134  -0.0017745
            7           8           9          10          11          12
    1   0.0018423   0.0009845   0.0040226   0.0036138  -0.0030187  -0.0022168
    2   0.0000370  -0.0010941   0.0015803  -0.0024601   0.0000096   0.0000393
    3  -0.0037863  -0.0012933   0.0001347   0.0010419   0.0027211  -0.0014726
           13          14          15          16          17          18
    1  -0.0011443  -0.0038196   0.0030739   0.0006342   0.0008775   0.0000032
    2  -0.0010803  -0.0023352   0.0015007  -0.0000766   0.0002379  -0.0002786
    3  -0.0005427   0.0012438  -0.0002655   0.0004269   0.0004457   0.0001851
           19          20          21          22          23          24
    1  -0.0003340   0.0003446   0.0009240   0.0002935   0.0014249  -0.0000166
    2  -0.0001002  -0.0001952   0.0006394   0.0005149  -0.0001786   0.0002791
    3   0.0000976  -0.0000468   0.0004427   0.0000631   0.0002884   0.0001718
           25          26          27          28          29          30
    1  -0.0003233   0.0001273   0.0000887  -0.0014727   0.0002353  -0.0001321
    2  -0.0000924   0.0002613   0.0000910   0.0000095   0.0004167   0.0000187
    3  -0.0001962  -0.0001754   0.0003143   0.0024902  -0.0003808   0.0000282
           31          32          33          34          35
    1   0.0013503   0.0000738   0.0001668   0.0004094   0.0002983
    2   0.0009498  -0.0010620  -0.0001266   0.0001348   0.0000774
    3  -0.0018307   0.0009151  -0.0006366  -0.0008828   0.0001906
 Max gradient component =       6.602E-03
 RMS gradient           =       1.729E-03
 Gradient time:  CPU 26.99 s  wall 1.21 s
 Geometry Optimization Parameters
   NAtoms,    NIC,     NZ,  NCons,   NDum,   NFix, NCnnct, MaxDiis
       35     275       0       2       0       0       0       0

 Cartesian Hessian Update
 Hessian Updated using BFGS Update


** CONSTRAINED OPTIMIZATION IN DELOCALIZED INTERNAL COORDINATES **
   Searching for a Minimum

   Optimization Cycle:   3

                       Coordinates (Angstroms)
     ATOM                X               Y               Z
      1  C         0.0806824765    0.6627092385    0.7415092401
      2  C         0.5147111037   -0.8525984649    0.6979755650
      3  C        -1.2448083718    0.9348928487   -0.0384825088
      4  C        -0.5854931251   -1.7950168951    0.0893125444
      5  O        -1.8856008553    2.0636566206    0.5491110452
      6  O        -1.6692633627    0.3292784987   -1.0491107075
      7  O        -1.7469324573   -1.6588066428    0.9109854786
      8  O        -0.5103962403   -2.5731519803   -0.8856895419
      9  C        -2.8433508176   -2.4738165077    0.3563025773
     10  C        -3.1195498028    2.3783983681   -0.1971230708
     11  C         1.3208106829    1.3575741587    0.0138698923
     12  C         2.5469002033    1.2975630077    1.0141482832
     13  C         2.9696297968   -0.2112985301    0.9050845266
     14  C         1.8847816955   -0.7765287728   -0.1067559688
     15  O         1.6907710372    0.3720001239   -1.0299186663
     16  H        -0.0313981263    1.0352731932    1.7747215122
     17  H         0.7084707918   -1.2119131802    1.7262161192
     18  H        -2.5991010154   -3.5563968510    0.3666746683
     19  H        -3.8252714416    1.5222972158   -0.2037480390
     20  H         3.3522015016    1.9615703018    0.6607898301
     21  H         2.2736725225    1.5995060984    2.0382165634
     22  H         3.9742364792   -0.3044701553    0.4621011705
     23  H         2.9698282516   -0.7362186938    1.8741543469
     24  H        -3.7196077460   -2.2888676415    1.0053738475
     25  H        -3.0844435566   -2.1763336410   -0.6852171257
     26  H        -2.9011190239    2.6621585698   -1.2475781861
     27  H        -3.5833927122    3.2348043475    0.3268257975
     28  C         2.3306828057   -2.0367843273   -0.8900908003
     29  H         3.3502294765   -1.8858490240   -1.2780842334
     30  H         2.3261235429   -2.9178965830   -0.2311149037
     31  H         1.6508671317   -2.2203248318   -1.7358237672
     32  C         1.0551708780    2.7444176002   -0.6260609349
     33  H         1.9800375193    3.1232257705   -1.0877557082
     34  H         0.2845510393    2.6668412983   -1.4086727542
     35  H         0.7179630924    3.4593183960    0.1400961390
   Point Group: c1    Number of degrees of freedom:    99


   Energy is   -833.446897985

              Constraints and their Current Values
                                        Value     Constraint
   Dihedral:        2   1   3   5      152.287      152.300
   Dihedral:        1   2   4   7      -59.601      -59.600
 Hessian Updated using BFGS Update

   Using Lagrange Multiplier Algorithm


 88 Hessian modes will be used to form the next step
  Hessian Eigenvalues:
    -0.977659   -0.976455    0.044048    0.045000    0.045003    0.045160
     0.045385    0.045506    0.048578    0.059444    0.060597    0.067965
     0.070391    0.071469    0.071736    0.074868    0.076201    0.078084
     0.080494    0.080866    0.081730    0.082925    0.083417    0.083631
     0.083713    0.084990    0.090107    0.091312    0.091919    0.106394
     0.108478    0.113415    0.113891    0.115696    0.116909    0.116997
     0.127938    0.131582    0.139831    0.144739    0.158762    0.160679
     0.161816    0.169782    0.186026    0.240208    0.245345    0.249278
     0.249979    0.250065    0.250583    0.260252    0.268146    0.270889
     0.283362    0.289836    0.305606    0.306901    0.308757    0.313505
     0.327374    0.337245    0.338910    0.340805    0.341073    0.341393
     0.341402    0.341745    0.342534    0.342651    0.342848    0.342862
     0.343271    0.343600    0.343689    0.343713    0.343759    0.343925
     0.344098    0.376861    0.394256    0.412065    0.476718    0.513252
     0.952320    0.982829    1.023027    1.030444

 Minimum Search - Taking P-RFO Step
 Searching for Lamda that Maximizes Along the Constraint modes Only
 Value Taken    Lamda =   0.00001023
 Searching for Lamda that Minimizes Along All other modes
 Value Taken    Lamda =  -0.00103901
 Step Taken.  Stepsize is  0.105399

                             Maximum     Tolerance    Cnvgd?
         Gradient            0.007590       0.000300      NO
         Displacement        0.029351       0.001200      NO
         Energy change     -0.006561       0.000001      NO


 New Cartesian Coordinates Obtained by Inverse Iteration

 Displacement from previous Coordinates is:  0.229816
 Adding empirical dispersion correction 
 ----------------------------------------------------------------
 Doing -D3(op) with
 s6 =   1.00000
 s8 =   0.78311
 a1 =   0.30000
 a2 =   4.25000
 n  =  10.00000
 -D3 energy without 3body term =     -0.0412096040 hartrees
 ----------------------------------------------------------------
             Standard Nuclear Orientation (Angstroms)
    I     Atom           X                Y                Z
 ----------------------------------------------------------------
    1      C       0.0898632867     0.6595836740     0.7517745117
    2      C       0.5298709516    -0.8613508892     0.7104298659
    3      C      -1.2357499600     0.9328543422    -0.0347352849
    4      C      -0.5702298104    -1.8042714079     0.0924792672
    5      O      -1.8887109919     2.0664463314     0.5490382937
    6      O      -1.6684075336     0.3183790121    -1.0360657436
    7      O      -1.7449335884    -1.6691646734     0.9115940257
    8      O      -0.4991908741    -2.5734946821    -0.8889866149
    9      C      -2.8574408436    -2.4626422185     0.3405679842
   10      C      -3.1297963885     2.3851097124    -0.1977123247
   11      C       1.3271233191     1.3552720951     0.0122235010
   12      C       2.5596650978     1.3032182247     1.0091717153
   13      C       2.9874837252    -0.2033446054     0.9015986925
   14      C       1.9005931088    -0.7777777265    -0.1036653045
   15      O       1.6846367509     0.3639416082    -1.0313929569
   16      H      -0.0247164639     1.0362397783     1.7826801149
   17      H       0.7207966984    -1.2217851370     1.7379514296
   18      H      -2.6264901052    -3.5477572748     0.3289440516
   19      H      -3.8334454437     1.5277889565    -0.2040460281
   20      H       3.3586280614     1.9737124137     0.6539159305
   21      H       2.2802285715     1.6024802908     2.0318162795
   22      H       3.9909256360    -0.2995115604     0.4570009766
   23      H       2.9823236800    -0.7266223505     1.8709904020
   24      H      -3.7331861218    -2.2790880364     0.9903566554
   25      H      -3.0883630918    -2.1415794593    -0.6959677727
   26      H      -2.9127542222     2.6657329621    -1.2489445555
   27      H      -3.5936713247     3.2418504271     0.3251906802
   28      C       2.3385741369    -2.0463786805    -0.8838917595
   29      H       3.3509891802    -1.9035996089    -1.2913127384
   30      H       2.3449538560    -2.9183514338    -0.2126898688
   31      H       1.6332842600    -2.2433568029    -1.7045002856
   32      C       1.0412958753     2.7414078804    -0.6259368468
   33      H       1.9564445889     3.1318204442    -1.0959121280
   34      H       0.2585967441     2.6522921138    -1.3943955215
   35      H       0.7034026089     3.4511592138     0.1446735877
 ----------------------------------------------------------------
 Molecular Point Group                 C1    NOp =  1
 Largest Abelian Subgroup              C1    NOp =  1
 Nuclear Repulsion Energy =  1372.0003746427 hartrees
 There are       65 alpha and       65 beta electrons
 Applying Cartesian multipole field
    Component          Value
    ---------          -----
     (2,0,0)        1.00000E-11
     (0,2,0)        2.00000E-11
     (0,0,2)       -3.00000E-11
 Nucleus-field energy     =     0.0000000386 hartrees
 Requested basis set is STO-3G
 There are 52 shells and 103 basis functions
 A cutoff of  1.0D-12 yielded   1201 shell pairs
 There are      5182 function pairs
 Smallest overlap matrix eigenvalue = 2.13E-01
 Guess MOs from SCF MO coefficient file
 Reading MOs from coefficient file
 Reading MOs from coefficient file
 A restricted hybrid HF-DFT SCF calculation will be
 performed using Pulay DIIS extrapolation
 Exchange:     0.2000 Hartree-Fock + 0.0800 Slater + 0.7200 B88
 Correlation:  0.1900 VWN1RPA + 0.8100 LYP
 Using SG-1 standard quadrature grid
 Dispersion:   Grimme D3
 SCF converges when DIIS error is below 1.0E-08
 Geometry optimization detected.  Setting ReadMinima to 0
 Setting SaveMinima to 0
 -------------------------------------------------------
 OpenMP Integral computing Module                
 Release: version 1.0, May 2013, Q-Chem Inc. Pittsburgh 
 -------------------------------------------------------
 -------------------------------------------------------
 OpenMP BLAS3 based DFT computing Module                
 Release: version 1.0, May 2013, Q-Chem Inc. Pittsburgh 
 -------------------------------------------------------
 ---------------------------------------
  Cycle       Energy         DIIS Error
 ---------------------------------------
    1    -833.4330761855      1.12E-03
    2    -833.4472432833      3.30E-04
    3    -833.4466936518      6.92E-04
    4    -833.4474099961      5.60E-05
    5    -833.4474147958      1.57E-05
    6    -833.4474150845      8.28E-06
    7    -833.4474151676      4.04E-06
    8    -833.4474151923      8.02E-07
    9    -833.4474151934      8.83E-08
   10    -833.4474151934      3.85E-08
   11    -833.4474151934      1.21E-08
   12    -833.4474151934      4.19E-09 Convergence criterion met
 ---------------------------------------
 SCF time:  CPU 119.06 s  wall 5.75 s
 SCF   energy in the final basis set = -833.4474151934
 Total energy in the final basis set = -833.4474151934
 
 --------------------------------------------------------------
 
                    Orbital Energies (a.u.)
 --------------------------------------------------------------
 
 Alpha MOs
 -- Occupied --
-18.933 -18.921 -18.873 -18.871 -18.868 -10.096 -10.092 -10.064
-10.061 -10.057 -10.056 -10.032 -10.030 -10.015 -10.013 -10.011
-10.004  -1.010  -0.999  -0.961  -0.933  -0.926  -0.759  -0.736
 -0.718  -0.674  -0.670  -0.653  -0.616  -0.588  -0.531  -0.511
 -0.479  -0.470  -0.451  -0.434  -0.423  -0.415  -0.413  -0.402
 -0.399  -0.384  -0.381  -0.378  -0.367  -0.362  -0.352  -0.341
 -0.335  -0.329  -0.310  -0.296  -0.293  -0.289  -0.287  -0.275
 -0.263  -0.251  -0.245  -0.223  -0.177  -0.167  -0.152  -0.142
 -0.136
 -- Virtual --
  0.097   0.116   0.233   0.253   0.268   0.287   0.305   0.324
  0.340   0.342   0.357   0.369   0.381   0.390   0.401   0.409
  0.414   0.420   0.424   0.428   0.432   0.433   0.439   0.441
  0.448   0.457   0.463   0.471   0.480   0.482   0.487   0.494
  0.507   0.514   0.547   0.556   0.651   0.657
 --------------------------------------------------------------
 
          Ground-State Mulliken Net Atomic Charges

     Atom                 Charge (a.u.)
  ----------------------------------------
      1 C                    -0.079868
      2 C                    -0.080870
      3 C                     0.212618
      4 C                     0.214831
      5 O                    -0.170207
      6 O                    -0.214689
      7 O                    -0.177762
      8 O                    -0.210731
      9 C                    -0.129092
     10 C                    -0.128640
     11 C                     0.105328
     12 C                    -0.145894
     13 C                    -0.145106
     14 C                     0.104961
     15 O                    -0.197587
     16 H                     0.085308
     17 H                     0.082227
     18 H                     0.086022
     19 H                     0.089393
     20 H                     0.074588
     21 H                     0.071155
     22 H                     0.074464
     23 H                     0.070088
     24 H                     0.086402
     25 H                     0.092904
     26 H                     0.088087
     27 H                     0.090111
     28 C                    -0.228139
     29 H                     0.078055
     30 H                     0.078427
     31 H                     0.100699
     32 C                    -0.227304
     33 H                     0.083192
     34 H                     0.083888
     35 H                     0.083140
  ----------------------------------------
  Sum of atomic charges =     0.000000

 -----------------------------------------------------------------
                    Cartesian Multipole Moments
 -----------------------------------------------------------------
    Charge (ESU x 10^10)
                -0.0000
    Dipole Moment (Debye)
         X      -0.4351      Y       1.1796      Z       2.0831
       Tot       2.4331
    Quadrupole Moments (Debye-Ang)
        XX     -84.0201     XY      -0.9908     YY     -89.6492
        XZ       1.9800     YZ      -3.5992     ZZ     -96.2637
    Octopole Moments (Debye-Ang^2)
       XXX     -47.7559    XXY      -0.9128    XYY     -18.7563
       YYY       3.8112    XXZ      -3.3333    XYZ       4.0010
       YYZ      -0.7460    XZZ      -4.8248    YZZ       1.2291
       ZZZ      -8.4808
    Hexadecapole Moments (Debye-Ang^3)
      XXXX   -2194.5706   XXXY     -11.3590   XXYY    -619.3931
      XYYY      -0.9012   YYYY   -1790.8604   XXXZ     -34.8959
      XXYZ     -10.1579   XYYZ      -6.5276   YYYZ     -41.8127
      XXZZ    -468.5980   XYZZ      -6.5599   YYZZ    -375.7359
      XZZZ      -9.8923   YZZZ      -8.3288   ZZZZ    -404.3407
 -----------------------------------------------------------------
 Calculating analytic gradient of the SCF energy
 Gradient of SCF Energy
            1           2           3           4           5           6
    1   0.0001663   0.0011104   0.0009763   0.0010996   0.0004480  -0.0003354
    2  -0.0000710   0.0004068   0.0003082  -0.0013040  -0.0003466  -0.0005614
    3   0.0015371  -0.0021607   0.0016287   0.0031766  -0.0006978  -0.0010821
            7           8           9          10          11          12
    1  -0.0000877   0.0001541  -0.0015292  -0.0013523  -0.0014096  -0.0004636
    2   0.0013005  -0.0006846  -0.0002795   0.0011808   0.0003015   0.0000364
    3  -0.0016787  -0.0007950   0.0005762   0.0003357   0.0012051   0.0006246
           13          14          15          16          17          18
    1   0.0001073  -0.0010083   0.0012020   0.0003032   0.0003477  -0.0000359
    2  -0.0002188  -0.0011731   0.0008559  -0.0000783   0.0002122  -0.0000470
    3   0.0003175   0.0009359  -0.0014328  -0.0000796  -0.0001156  -0.0001307
           19          20          21          22          23          24
    1  -0.0000176   0.0000900   0.0003838   0.0000578   0.0005090  -0.0003731
    2   0.0000068  -0.0000564   0.0003513   0.0002552  -0.0001206  -0.0001425
    3  -0.0002011  -0.0002389   0.0000606  -0.0002426  -0.0000353  -0.0001108
           25          26          27          28          29          30
    1   0.0001048  -0.0001218  -0.0004106  -0.0002989   0.0002963  -0.0004962
    2  -0.0002008  -0.0000864   0.0001493  -0.0007352  -0.0001068  -0.0000599
    3  -0.0000989  -0.0000877  -0.0001428  -0.0003136   0.0003860  -0.0002122
           31          32          33          34          35
    1   0.0006605  -0.0002604   0.0000772  -0.0000016   0.0001080
    2   0.0006690   0.0004625  -0.0001584  -0.0001845   0.0001193
    3  -0.0005667  -0.0004261   0.0000483   0.0000201  -0.0000027
 Max gradient component =       3.177E-03
 RMS gradient           =       7.283E-04
 Gradient time:  CPU 27.72 s  wall 1.20 s
 Geometry Optimization Parameters
   NAtoms,    NIC,     NZ,  NCons,   NDum,   NFix, NCnnct, MaxDiis
       35     275       0       2       0       0       0       0

 Cartesian Hessian Update
 Hessian Updated using BFGS Update


** CONSTRAINED OPTIMIZATION IN DELOCALIZED INTERNAL COORDINATES **
   Searching for a Minimum

   Optimization Cycle:   4

                       Coordinates (Angstroms)
     ATOM                X               Y               Z
      1  C         0.0898632867    0.6595836740    0.7517745117
      2  C         0.5298709516   -0.8613508892    0.7104298659
      3  C        -1.2357499600    0.9328543422   -0.0347352849
      4  C        -0.5702298104   -1.8042714079    0.0924792672
      5  O        -1.8887109919    2.0664463314    0.5490382937
      6  O        -1.6684075336    0.3183790121   -1.0360657436
      7  O        -1.7449335884   -1.6691646734    0.9115940257
      8  O        -0.4991908741   -2.5734946821   -0.8889866149
      9  C        -2.8574408436   -2.4626422185    0.3405679842
     10  C        -3.1297963885    2.3851097124   -0.1977123247
     11  C         1.3271233191    1.3552720951    0.0122235010
     12  C         2.5596650978    1.3032182247    1.0091717153
     13  C         2.9874837252   -0.2033446054    0.9015986925
     14  C         1.9005931088   -0.7777777265   -0.1036653045
     15  O         1.6846367509    0.3639416082   -1.0313929569
     16  H        -0.0247164639    1.0362397783    1.7826801149
     17  H         0.7207966984   -1.2217851370    1.7379514296
     18  H        -2.6264901052   -3.5477572748    0.3289440516
     19  H        -3.8334454437    1.5277889565   -0.2040460281
     20  H         3.3586280614    1.9737124137    0.6539159305
     21  H         2.2802285715    1.6024802908    2.0318162795
     22  H         3.9909256360   -0.2995115604    0.4570009766
     23  H         2.9823236800   -0.7266223505    1.8709904020
     24  H        -3.7331861218   -2.2790880364    0.9903566554
     25  H        -3.0883630918   -2.1415794593   -0.6959677727
     26  H        -2.9127542222    2.6657329621   -1.2489445555
     27  H        -3.5936713247    3.2418504271    0.3251906802
     28  C         2.3385741369   -2.0463786805   -0.8838917595
     29  H         3.3509891802   -1.9035996089   -1.2913127384
     30  H         2.3449538560   -2.9183514338   -0.2126898688
     31  H         1.6332842600   -2.2433568029   -1.7045002856
     32  C         1.0412958753    2.7414078804   -0.6259368468
     33  H         1.9564445889    3.1318204442   -1.0959121280
     34  H         0.2585967441    2.6522921138   -1.3943955215
     35  H         0.7034026089    3.4511592138    0.1446735877
   Point Group: c1    Number of degrees of freedom:    99


   Energy is   -833.447415193

              Constraints and their Current Values
                                        Value     Constraint
   Dihedral:        2   1   3   5      152.300      152.300
   Dihedral:        1   2   4   7      -59.600      -59.600
 Hessian Updated using BFGS Update

   Using Lagrange Multiplier Algorithm


 91 Hessian modes will be used to form the next step
  Hessian Eigenvalues:
    -0.977781   -0.976569    0.033915    0.045000    0.045003    0.045016
     0.045316    0.045498    0.045741    0.048490    0.055018    0.060540
     0.067894    0.070472    0.071457    0.071740    0.073030    0.075959
     0.078214    0.080609    0.080849    0.081738    0.082900    0.083416
     0.083631    0.083729    0.084982    0.090097    0.091426    0.091915
     0.106437    0.107651    0.113878    0.114475    0.116344    0.116911
     0.116998    0.127700    0.131221    0.140124    0.144812    0.158956
     0.160315    0.161151    0.161983    0.169079    0.186467    0.240198
     0.242723    0.249238    0.249994    0.250000    0.250064    0.250570
     0.260231    0.268267    0.282655    0.289467    0.293184    0.305662
     0.306919    0.308783    0.321814    0.327434    0.337530    0.339192
     0.341063    0.341096    0.341391    0.341580    0.342513    0.342640
     0.342825    0.342861    0.343150    0.343528    0.343633    0.343680
     0.343754    0.343883    0.344091    0.346762    0.378435    0.412056
     0.451114    0.511626    0.524340    0.952394    0.978264    1.022929
     1.030458

 Minimum Search - Taking P-RFO Step
 Searching for Lamda that Maximizes Along the Constraint modes Only
 Value Taken    Lamda =   0.00000019
 Searching for Lamda that Minimizes Along All other modes
 Value Taken    Lamda =  -0.00021986
 Step Taken.  Stepsize is  0.063531

                             Maximum     Tolerance    Cnvgd?
         Gradient            0.003195       0.000300      NO
         Displacement        0.021260       0.001200      NO
         Energy change     -0.000517       0.000001      NO


 New Cartesian Coordinates Obtained by Inverse Iteration

 Displacement from previous Coordinates is:  0.175674
 Adding empirical dispersion correction 
 ----------------------------------------------------------------
 Doing -D3(op) with
 s6 =   1.00000
 s8 =   0.78311
 a1 =   0.30000
 a2 =   4.25000
 n  =  10.00000
 -D3 energy without 3body term =     -0.0412990395 hartrees
 ----------------------------------------------------------------
             Standard Nuclear Orientation (Angstroms)
    I     Atom           X                Y                Z
 ----------------------------------------------------------------
    1      C       0.0912725869     0.6570115144     0.7566690562
    2      C       0.5342646094    -0.8631470843     0.7153048143
    3      C      -1.2351737561     0.9271615031    -0.0284339501
    4      C      -0.5675136436    -1.8016446281     0.0945815001
    5      O      -1.8876475270     2.0604059362     0.5581792382
    6      O      -1.6721441500     0.3108337507    -1.0259480921
    7      O      -1.7419017547    -1.6634142836     0.9156237191
    8      O      -0.5024101804    -2.5653899981    -0.8908146204
    9      C      -2.8550997735    -2.4417933561     0.3268009374
   10      C      -3.1257648870     2.3718258579    -0.1949327954
   11      C       1.3266273156     1.3524726493     0.0093690098
   12      C       2.5625133244     1.3056417554     1.0025911122
   13      C       2.9917932717    -0.1993947675     0.8977532219
   14      C       1.9037697264    -0.7781486656    -0.1027227194
   15      O       1.6760029205     0.3575330010    -1.0327948020
   16      H      -0.0241167729     1.0353126849     1.7870366720
   17      H       0.7242457190    -1.2243558970     1.7427759801
   18      H      -2.6301597384    -3.5278567819     0.2990731504
   19      H      -3.8263636225     1.5119788632    -0.2008742598
   20      H       3.3590461424     1.9786528573     0.6472765245
   21      H       2.2799075536     1.6037240578     2.0245774361
   22      H       3.9951163616    -0.2987271638     0.4542083910
   23      H       2.9831189751    -0.7198486517     1.8685446859
   24      H      -3.7308801818    -2.2625552204     0.9772046867
   25      H      -3.0801203641    -2.1015160337    -0.7049554131
   26      H      -2.9050613335     2.6511052872    -1.2457284607
   27      H      -3.5922434074     3.2281437242     0.3256703468
   28      C       2.3391927901    -2.0511551039    -0.8767412141
   29      H       3.3451687969    -1.9093854394    -1.2994350161
   30      H       2.3588216037    -2.9151771998    -0.1953222879
   31      H       1.6202940618    -2.2630981294    -1.6817630901
   32      C       1.0331270245     2.7378896226    -0.6268082032
   33      H       1.9432715238     3.1338471626    -1.1016093882
   34      H       0.2449947728     2.6478392607    -1.3894406823
   35      H       0.6966453863     3.4444418497     0.1473267426
 ----------------------------------------------------------------
 Molecular Point Group                 C1    NOp =  1
 Largest Abelian Subgroup              C1    NOp =  1
 Nuclear Repulsion Energy =  1373.4344225934 hartrees
 There are       65 alpha and       65 beta electrons
 Applying Cartesian multipole field
    Component          Value
    ---------          -----
     (2,0,0)        1.00000E-11
     (0,2,0)        2.00000E-11
     (0,0,2)       -3.00000E-11
 Nucleus-field energy     =     0.0000000384 hartrees
 Requested basis set is STO-3G
 There are 52 shells and 103 basis functions
 A cutoff of  1.0D-12 yielded   1201 shell pairs
 There are      5182 function pairs
 Smallest overlap matrix eigenvalue = 2.13E-01
 Guess MOs from SCF MO coefficient file
 Reading MOs from coefficient file
 Reading MOs from coefficient file
 A restricted hybrid HF-DFT SCF calculation will be
 performed using Pulay DIIS extrapolation
 Exchange:     0.2000 Hartree-Fock + 0.0800 Slater + 0.7200 B88
 Correlation:  0.1900 VWN1RPA + 0.8100 LYP
 Using SG-1 standard quadrature grid
 Dispersion:   Grimme D3
 SCF converges when DIIS error is below 1.0E-08
 Geometry optimization detected.  Setting ReadMinima to 0
 Setting SaveMinima to 0
 -------------------------------------------------------
 OpenMP Integral computing Module                
 Release: version 1.0, May 2013, Q-Chem Inc. Pittsburgh 
 -------------------------------------------------------
 -------------------------------------------------------
 OpenMP BLAS3 based DFT computing Module                
 Release: version 1.0, May 2013, Q-Chem Inc. Pittsburgh 
 -------------------------------------------------------
 ---------------------------------------
  Cycle       Energy         DIIS Error
 ---------------------------------------
    1    -833.4478764491      5.65E-04
    2    -833.4475425339      6.85E-05
    3    -833.4475269916      1.30E-04
    4    -833.4475511332      2.60E-05
    5    -833.4475521101      7.42E-06
    6    -833.4475521878      3.14E-06
    7    -833.4475522021      1.10E-06
    8    -833.4475522038      3.11E-07
    9    -833.4475522040      6.09E-08
   10    -833.4475522040      2.00E-08
   11    -833.4475522040      6.36E-09 Convergence criterion met
 ---------------------------------------
 SCF time:  CPU 104.21 s  wall 4.99 s
 SCF   energy in the final basis set = -833.4475522040
 Total energy in the final basis set = -833.4475522040
 
 --------------------------------------------------------------
 
                    Orbital Energies (a.u.)
 --------------------------------------------------------------
 
 Alpha MOs
 -- Occupied --
-18.933 -18.920 -18.873 -18.872 -18.868 -10.097 -10.092 -10.064
-10.061 -10.058 -10.056 -10.032 -10.030 -10.015 -10.014 -10.012
-10.004  -1.011  -0.999  -0.962  -0.934  -0.926  -0.759  -0.736
 -0.719  -0.674  -0.669  -0.652  -0.616  -0.588  -0.530  -0.511
 -0.479  -0.470  -0.451  -0.435  -0.423  -0.415  -0.413  -0.402
 -0.399  -0.384  -0.381  -0.378  -0.367  -0.362  -0.352  -0.341
 -0.335  -0.329  -0.310  -0.296  -0.293  -0.289  -0.287  -0.275
 -0.263  -0.252  -0.245  -0.223  -0.177  -0.167  -0.152  -0.142
 -0.136
 -- Virtual --
  0.096   0.116   0.234   0.254   0.269   0.288   0.304   0.323
  0.339   0.342   0.356   0.369   0.381   0.390   0.401   0.409
  0.414   0.420   0.424   0.429   0.432   0.433   0.439   0.441
  0.449   0.457   0.463   0.471   0.480   0.482   0.487   0.495
  0.506   0.514   0.547   0.556   0.652   0.658
 --------------------------------------------------------------
 
          Ground-State Mulliken Net Atomic Charges

     Atom                 Charge (a.u.)
  ----------------------------------------
      1 C                    -0.080019
      2 C                    -0.081000
      3 C                     0.212892
      4 C                     0.215051
      5 O                    -0.169919
      6 O                    -0.214785
      7 O                    -0.177629
      8 O                    -0.210574
      9 C                    -0.129356
     10 C                    -0.128793
     11 C                     0.105537
     12 C                    -0.145970
     13 C                    -0.145251
     14 C                     0.105249
     15 O                    -0.197644
     16 H                     0.085174
     17 H                     0.082038
     18 H                     0.086098
     19 H                     0.089433
     20 H                     0.074776
     21 H                     0.071366
     22 H                     0.074669
     23 H                     0.070278
     24 H                     0.086073
     25 H                     0.093010
     26 H                     0.088051
     27 H                     0.089904
     28 C                    -0.228676
     29 H                     0.078144
     30 H                     0.078071
     31 H                     0.101081
     32 C                    -0.227407
     33 H                     0.083165
     34 H                     0.083776
     35 H                     0.083186
[...]
 C          0.000  0.000 -0.000   -0.000  0.000 -0.000   -0.001  0.000 -0.001
 C         -0.000 -0.000  0.000    0.016  0.036  0.022    0.019  0.040  0.019
 C         -0.001  0.001 -0.001   -0.031  0.021 -0.030    0.017 -0.016  0.024
 C          0.000  0.000 -0.000    0.000  0.000  0.000   -0.001 -0.001 -0.001
 O         -0.000  0.000  0.000   -0.000 -0.000 -0.000    0.000 -0.000 -0.000
 H          0.001 -0.002 -0.004   -0.006  0.023  0.063    0.002 -0.007 -0.020
 H         -0.002  0.005 -0.018   -0.032  0.070 -0.242    0.066 -0.146  0.501
 H         -0.115  0.398  0.018    0.006 -0.020 -0.001   -0.005  0.019  0.001
 H          0.283  0.371  0.041    0.002  0.003  0.000    0.002  0.002  0.000
 H          0.002  0.002 -0.001   -0.324 -0.262  0.171   -0.372 -0.302  0.196
 H         -0.000  0.000  0.001    0.147 -0.158 -0.426    0.147 -0.158 -0.420
 H          0.014 -0.001 -0.005    0.402 -0.030 -0.148   -0.224  0.016  0.085
 H         -0.002 -0.007  0.016   -0.050 -0.217  0.492    0.036  0.165 -0.368
 H          0.216 -0.040 -0.197   -0.011  0.002  0.010    0.010 -0.002 -0.009
 H          0.108 -0.133  0.356   -0.006  0.007 -0.018    0.006 -0.006  0.017
 H         -0.101 -0.200  0.446   -0.001 -0.001  0.003   -0.000 -0.001  0.002
 H          0.132 -0.228 -0.207    0.001 -0.001 -0.001    0.000 -0.001 -0.001
 C          0.001 -0.001  0.000   -0.004  0.004 -0.000    0.001 -0.001  0.000
 H         -0.008 -0.002  0.003    0.061  0.017 -0.024   -0.012 -0.004  0.005
 H         -0.001  0.008 -0.007    0.006 -0.058  0.050   -0.001  0.013 -0.011
 H          0.003  0.001  0.003   -0.019 -0.010 -0.026    0.003  0.003  0.006
 C         -0.000  0.000  0.000   -0.001  0.004 -0.002   -0.001  0.003 -0.001
 H         -0.001 -0.000  0.001   -0.040 -0.016  0.021   -0.026 -0.010  0.014
 H          0.002  0.001  0.002    0.035  0.008  0.036    0.027  0.006  0.029
 H          0.002 -0.004 -0.004    0.019 -0.037 -0.034    0.014 -0.026 -0.024
 TransDip  -0.223 -0.014 -0.044   -0.059  0.170 -0.007    0.105  0.101  0.064

 Mode:                88                     89                     90
 Frequency:      3068.90                3090.46                3097.56
 Force Cnst:      5.9645                 6.2278                 6.2293
 Red. Mass:       1.0749                 1.1067                 1.1019
 IR Active:          YES                    YES                    YES
 IR Intens:       25.301                  0.673                 13.747
 Raman Active:       YES                    YES                    YES
               X      Y      Z        X      Y      Z        X      Y      Z
 C         -0.001  0.004  0.011   -0.001  0.003  0.008   -0.001  0.002  0.006
 C         -0.007  0.018 -0.061    0.001 -0.003  0.010    0.001 -0.001  0.001
 C          0.000 -0.000  0.000   -0.000  0.000  0.000   -0.000  0.000  0.000
 C          0.000 -0.000 -0.002   -0.000  0.000  0.000    0.000 -0.000 -0.000
 O         -0.000  0.000 -0.000    0.000 -0.000 -0.000   -0.000 -0.000 -0.000
 O         -0.000 -0.000 -0.000    0.000 -0.000  0.000    0.000 -0.000 -0.000
 O         -0.000 -0.000  0.000    0.000 -0.000 -0.000   -0.000 -0.000  0.000
 O         -0.000  0.000  0.000    0.000 -0.000 -0.000   -0.000  0.000  0.000
 C         -0.001 -0.001 -0.000    0.000  0.000 -0.000   -0.000  0.000  0.000
 C          0.000 -0.000  0.000   -0.000 -0.000  0.000    0.000  0.000  0.000
 C          0.000 -0.001  0.000    0.001  0.000 -0.001    0.000  0.000 -0.000
 C         -0.005 -0.014 -0.009    0.043  0.010 -0.053    0.017  0.004 -0.021
 C         -0.032  0.015 -0.015   -0.040 -0.010  0.043   -0.000  0.000 -0.001
 C         -0.001  0.001 -0.000   -0.000 -0.000  0.000   -0.001 -0.001  0.001
 O          0.000 -0.000  0.000   -0.000  0.000  0.000   -0.000  0.000 -0.000
 H          0.013 -0.049 -0.134    0.007 -0.034 -0.088    0.006 -0.026 -0.069
 H          0.098 -0.214  0.739   -0.015  0.036 -0.121   -0.002  0.005 -0.019
 H         -0.003  0.011  0.000    0.000 -0.001 -0.000    0.001 -0.004 -0.000
 H         -0.004 -0.005 -0.001    0.000  0.000  0.000   -0.001 -0.001 -0.000
 H          0.118  0.095 -0.063   -0.362 -0.303  0.177   -0.147 -0.123  0.072
 H         -0.060  0.065  0.171   -0.148  0.184  0.459   -0.057  0.072  0.178
 H          0.396 -0.032 -0.140    0.456 -0.041 -0.150    0.007  0.001 -0.001
 H         -0.033 -0.142  0.319    0.024  0.161 -0.360   -0.000 -0.006  0.008
 H          0.006 -0.001 -0.005   -0.001  0.000  0.001    0.000 -0.000 -0.000
 H          0.003 -0.003  0.008   -0.000  0.000 -0.001   -0.000 -0.000  0.000
 H          0.001  0.003 -0.007    0.000  0.000 -0.001    0.000  0.000 -0.000
 H         -0.002  0.003  0.003   -0.000  0.000  0.000   -0.000  0.000  0.000
 C         -0.003  0.004  0.000    0.011  0.013 -0.013   -0.043 -0.053  0.056
 H          0.044  0.011 -0.018   -0.145 -0.037  0.052    0.620  0.156 -0.226
 H          0.006 -0.047  0.039    0.018 -0.126  0.109   -0.073  0.501 -0.430
 H         -0.018 -0.009 -0.024    0.001  0.003 -0.007   -0.030 -0.024 -0.012
 C          0.000 -0.001  0.000   -0.006  0.000  0.002   -0.003  0.000  0.001
 H          0.007  0.003 -0.004    0.044  0.017 -0.021    0.022  0.009 -0.011
 H         -0.005 -0.001 -0.006    0.013  0.004  0.016    0.005  0.002  0.007
 H         -0.003  0.005  0.005    0.011 -0.023 -0.021    0.005 -0.012 -0.011
 TransDip  -0.100  0.065 -0.108    0.011  0.014 -0.019   -0.076 -0.062  0.067

 Mode:                91                     92                     93
 Frequency:      3108.34                3110.71                3117.33
 Force Cnst:      6.2764                 6.2743                 6.2973
 Red. Mass:       1.1026                 1.1005                 1.0999
 IR Active:          YES                    YES                    YES
 IR Intens:       16.912                 23.376                 24.144
 Raman Active:       YES                    YES                    YES
               X      Y      Z        X      Y      Z        X      Y      Z
 C          0.003 -0.012 -0.031    0.002 -0.008 -0.023   -0.003  0.012  0.032
 C          0.000 -0.000  0.001   -0.000  0.001 -0.002    0.001 -0.002  0.006
 C          0.001 -0.001 -0.001    0.001 -0.000 -0.000   -0.000  0.001  0.001
 C          0.000  0.000  0.000    0.000  0.000  0.000   -0.000 -0.000  0.000
 O         -0.000  0.000  0.000   -0.000 -0.000  0.000    0.000 -0.000 -0.000
 O          0.000  0.000  0.000    0.000  0.000 -0.000   -0.000 -0.000 -0.000
 O         -0.000 -0.000  0.000   -0.000 -0.000  0.000    0.000 -0.000 -0.000
 O          0.000 -0.000 -0.000    0.000 -0.000 -0.000    0.000 -0.000 -0.000
 C         -0.000  0.000  0.000    0.000 -0.000  0.000    0.000 -0.000  0.000
 C          0.000  0.001 -0.000   -0.001 -0.001  0.001   -0.001 -0.002  0.002
 C         -0.000 -0.000 -0.000   -0.001  0.000  0.002   -0.002 -0.000  0.000
 C         -0.027 -0.008  0.032   -0.011 -0.004  0.012   -0.015 -0.003  0.020
 C         -0.043 -0.011  0.047   -0.012 -0.003  0.013   -0.012 -0.004  0.014
 C         -0.001 -0.001  0.001   -0.000 -0.000  0.000   -0.000 -0.000  0.000
 O          0.000  0.000 -0.000    0.000 -0.000 -0.000    0.000  0.000 -0.000
 H         -0.035  0.139  0.372   -0.026  0.102  0.273    0.038 -0.144 -0.385
 H          0.001  0.002 -0.010    0.004 -0.007  0.023   -0.010  0.023 -0.075
 H          0.001 -0.003 -0.000   -0.000  0.001  0.000   -0.001  0.003  0.000
 H         -0.002 -0.003 -0.001    0.005  0.007  0.001    0.010  0.013  0.002
 H          0.244  0.206 -0.120    0.100  0.084 -0.048    0.128  0.106 -0.061
 H          0.084 -0.106 -0.257    0.031 -0.039 -0.096    0.059 -0.073 -0.181
 H          0.490 -0.045 -0.161    0.138 -0.013 -0.045    0.135 -0.013 -0.044
 H          0.026  0.180 -0.396    0.007  0.049 -0.108    0.008  0.057 -0.124
 H         -0.000 -0.000 -0.000   -0.000 -0.000  0.000   -0.001  0.000  0.001
 H         -0.000 -0.000  0.000   -0.001  0.001 -0.002   -0.001  0.001 -0.003
 H         -0.002 -0.004  0.008    0.002  0.003 -0.008    0.005  0.009 -0.022
 H          0.001 -0.001 -0.001   -0.000 -0.000 -0.000    0.000 -0.001 -0.000
 C         -0.008 -0.009  0.011   -0.002 -0.002  0.003   -0.001 -0.002  0.002
 H          0.122  0.030 -0.046    0.035  0.008 -0.013    0.023  0.005 -0.009
 H         -0.013  0.089 -0.076   -0.004  0.024 -0.020   -0.003  0.017 -0.014
 H         -0.012 -0.008 -0.013   -0.004 -0.002 -0.004   -0.003 -0.002 -0.003
 C          0.028 -0.005 -0.021   -0.050  0.022  0.064   -0.063 -0.032 -0.034
 H         -0.238 -0.100  0.121    0.508  0.218 -0.256    0.360  0.146 -0.202
 H         -0.013 -0.006 -0.024   -0.123 -0.022 -0.100    0.474  0.110  0.488
 H         -0.079  0.170  0.153    0.221 -0.463 -0.419   -0.077  0.124  0.116
 TransDip  -0.093 -0.064  0.068   -0.118 -0.019  0.098   -0.142 -0.038  0.056

 Mode:                94                     95                     96
 Frequency:      3117.88                3122.41                3123.32
 Force Cnst:      6.2609                 6.3585                 6.3625
 Red. Mass:       1.0931                 1.1069                 1.1070
 IR Active:          YES                    YES                    YES
 IR Intens:       24.361                 20.641                 13.406
 Raman Active:       YES                    YES                    YES
               X      Y      Z        X      Y      Z        X      Y      Z
 C          0.005 -0.022 -0.058    0.000  0.000 -0.001   -0.000  0.000  0.000
 C         -0.001  0.003 -0.010   -0.000  0.000 -0.000    0.000 -0.000  0.000
 C          0.001 -0.001 -0.001   -0.000 -0.000  0.000    0.000  0.000  0.000
 C          0.000  0.000 -0.000    0.000  0.000 -0.000   -0.000 -0.000 -0.000
 O         -0.000  0.000  0.000   -0.000 -0.000  0.000   -0.000 -0.000  0.000
 O          0.000  0.000  0.001   -0.000 -0.000  0.000   -0.000 -0.000 -0.000
 O         -0.000 -0.000  0.000   -0.000 -0.000  0.000   -0.000  0.000 -0.000
 O         -0.000  0.000  0.000   -0.000 -0.000  0.000    0.000  0.000 -0.000
 C          0.000 -0.001  0.001   -0.005  0.011 -0.006    0.035 -0.075  0.045
 C         -0.001 -0.001  0.001    0.048  0.065 -0.048    0.007  0.009 -0.007
 C         -0.000 -0.001 -0.001   -0.000 -0.000  0.000    0.000  0.000 -0.000
 C          0.016  0.001 -0.022    0.000 -0.000 -0.000   -0.000  0.000  0.000
 C          0.013  0.004 -0.016    0.000  0.000 -0.000   -0.000 -0.000  0.000
 C         -0.000  0.001 -0.001    0.000  0.000 -0.000    0.000 -0.000  0.000
 O         -0.000  0.000  0.001    0.000 -0.000  0.000   -0.000  0.000 -0.000
 H         -0.068  0.257  0.690   -0.001  0.002  0.004    0.000 -0.002 -0.004
 H          0.016 -0.037  0.120    0.000 -0.001  0.002   -0.000  0.001 -0.001
 H         -0.002  0.007  0.000    0.028 -0.097 -0.006   -0.197  0.670  0.045
 H          0.012  0.015  0.002   -0.419 -0.558 -0.080   -0.059 -0.079 -0.011
 H         -0.117 -0.099  0.059   -0.000 -0.000  0.000    0.000  0.000 -0.000
 H         -0.069  0.085  0.212   -0.000  0.000  0.001    0.000 -0.000 -0.001
 H         -0.150  0.015  0.049   -0.002  0.000  0.001    0.001 -0.000 -0.000
 H         -0.010 -0.067  0.146   -0.000 -0.001  0.002    0.000  0.001 -0.002
 H          0.001 -0.000 -0.001    0.008  0.000 -0.009   -0.041 -0.006  0.052
 H         -0.002  0.002 -0.007    0.025 -0.031  0.088   -0.179  0.219 -0.630
 H          0.003  0.004 -0.010   -0.135 -0.261  0.622   -0.019 -0.038  0.090
 H          0.002 -0.005 -0.004   -0.010  0.045  0.020   -0.002  0.008  0.004
 C          0.002  0.002 -0.002    0.000  0.000 -0.000   -0.000 -0.000  0.000
 H         -0.022 -0.005  0.008   -0.001 -0.000  0.000    0.001  0.000 -0.000
 H          0.003 -0.017  0.014    0.000 -0.001  0.001   -0.000  0.002 -0.002
 H          0.001  0.001  0.001    0.000  0.000  0.000   -0.000 -0.000 -0.000
 C         -0.031 -0.024 -0.032   -0.003 -0.001 -0.001    0.000  0.000  0.000
 H          0.143  0.056 -0.084    0.022  0.009 -0.012   -0.002 -0.001  0.001
 H          0.313  0.071  0.320    0.020  0.005  0.022   -0.002 -0.000 -0.002
 H         -0.089  0.164  0.149   -0.001 -0.001 -0.001    0.000 -0.001 -0.001
 TransDip   0.005 -0.046 -0.151    0.066  0.105 -0.077    0.049 -0.097  0.045

 Mode:                97                     98                     99
 Frequency:      3153.04                3156.56                3164.30
 Force Cnst:      6.4813                 6.4934                 6.4687
 Red. Mass:       1.1065                 1.1061                 1.0965
 IR Active:          YES                    YES                    YES
 IR Intens:       14.151                 14.312                  1.917
 Raman Active:       YES                    YES                    YES
               X      Y      Z        X      Y      Z        X      Y      Z
 C         -0.000  0.000  0.000    0.000  0.000 -0.000    0.000 -0.000 -0.000
 C          0.000 -0.000 -0.000   -0.000  0.000 -0.000    0.000 -0.000 -0.000
 C         -0.000  0.000  0.000   -0.001 -0.000 -0.001    0.000 -0.000 -0.000
 C          0.000  0.001  0.001   -0.000  0.000 -0.000    0.000 -0.000 -0.000
 O          0.000 -0.000 -0.000   -0.000  0.000  0.000   -0.000  0.000 -0.000
 O         -0.000 -0.000 -0.000    0.000  0.000  0.000    0.000  0.000  0.000
 O          0.000 -0.000 -0.000    0.000 -0.000  0.000   -0.000 -0.000  0.000
 O         -0.000 -0.000 -0.000    0.000 -0.000  0.000   -0.001 -0.000  0.000
 C         -0.052  0.021  0.076    0.000  0.000 -0.001    0.000 -0.000 -0.000
 C         -0.000 -0.001 -0.000    0.018 -0.063 -0.068    0.000 -0.000 -0.000
 C          0.000  0.000  0.000   -0.000 -0.000  0.000    0.000 -0.000 -0.000
 C         -0.000  0.000  0.000    0.000 -0.000 -0.000   -0.000  0.000 -0.000
 C         -0.000 -0.000  0.000   -0.000  0.000 -0.000   -0.001  0.000  0.001
 C          0.000  0.000  0.000   -0.000  0.000 -0.000   -0.001  0.000 -0.001
 O         -0.000 -0.000 -0.000    0.000  0.000  0.000    0.000 -0.000  0.000
 H          0.000 -0.001 -0.002    0.000  0.000  0.002   -0.000  0.001  0.002
 H         -0.000 -0.000 -0.001    0.000 -0.000  0.000   -0.000 -0.001  0.003
 H          0.070 -0.264  0.004    0.000 -0.000 -0.000   -0.000  0.002 -0.000
 H          0.003  0.004  0.001    0.205  0.258  0.017    0.000  0.000  0.000
 H         -0.000 -0.000  0.000    0.000  0.000 -0.000    0.000  0.000 -0.000
 H          0.000 -0.000 -0.001   -0.000  0.000  0.001   -0.000  0.000  0.002
 H          0.000 -0.000 -0.000    0.000 -0.000 -0.000    0.012  0.000 -0.003
 H          0.000  0.000 -0.000   -0.000 -0.000  0.000    0.000  0.002 -0.005
 H          0.648 -0.120 -0.595   -0.004  0.001  0.004   -0.003  0.001  0.003
 H         -0.107  0.129 -0.317    0.001 -0.001  0.004    0.000 -0.001  0.001
 H          0.000  0.000 -0.000   -0.057 -0.124  0.239   -0.000 -0.000  0.000
 H         -0.002  0.003  0.003   -0.353  0.612  0.555   -0.000  0.001  0.001
 C         -0.000 -0.000 -0.000    0.000  0.000  0.000   -0.062 -0.017 -0.062
 H         -0.000 -0.000 -0.000    0.000  0.000 -0.000    0.202  0.056 -0.087
 H          0.000 -0.001  0.001   -0.000  0.000 -0.000    0.006 -0.147  0.114
 H          0.003  0.001  0.003   -0.001 -0.000 -0.001    0.551  0.293  0.718
 C         -0.000  0.000  0.000   -0.000 -0.000 -0.000   -0.000 -0.000 -0.000
 H         -0.000 -0.000  0.000    0.001  0.001 -0.001    0.000  0.000 -0.000
 H         -0.000  0.000 -0.000    0.002  0.000  0.002    0.001  0.000  0.001
 H          0.000 -0.000 -0.000   -0.000  0.001  0.001   -0.000  0.001  0.000
 TransDip  -0.083  0.016  0.086    0.043 -0.085 -0.075   -0.019 -0.007 -0.039

 STANDARD THERMODYNAMIC QUANTITIES AT   298.15 K  AND     1.00 ATM

   This Molecule has  0 Imaginary Frequencies
   Zero point vibrational energy:      183.595 kcal/mol

   Atom    1 Element C  Has Mass   12.00000
   Atom    2 Element C  Has Mass   12.00000
   Atom    3 Element C  Has Mass   12.00000
   Atom    4 Element C  Has Mass   12.00000
   Atom    5 Element O  Has Mass   15.99491
   Atom    6 Element O  Has Mass   15.99491
   Atom    7 Element O  Has Mass   15.99491
   Atom    8 Element O  Has Mass   15.99491
   Atom    9 Element C  Has Mass   12.00000
   Atom   10 Element C  Has Mass   12.00000
   Atom   11 Element C  Has Mass   12.00000
   Atom   12 Element C  Has Mass   12.00000
   Atom   13 Element C  Has Mass   12.00000
   Atom   14 Element C  Has Mass   12.00000
   Atom   15 Element O  Has Mass   15.99491
   Atom   16 Element H  Has Mass    1.00783
   Atom   17 Element H  Has Mass    1.00783
   Atom   18 Element H  Has Mass    1.00783
   Atom   19 Element H  Has Mass    1.00783
   Atom   20 Element H  Has Mass    1.00783
   Atom   21 Element H  Has Mass    1.00783
   Atom   22 Element H  Has Mass    1.00783
   Atom   23 Element H  Has Mass    1.00783
   Atom   24 Element H  Has Mass    1.00783
   Atom   25 Element H  Has Mass    1.00783
   Atom   26 Element H  Has Mass    1.00783
   Atom   27 Element H  Has Mass    1.00783
   Atom   28 Element C  Has Mass   12.00000
   Atom   29 Element H  Has Mass    1.00783
   Atom   30 Element H  Has Mass    1.00783
   Atom   31 Element H  Has Mass    1.00783
   Atom   32 Element C  Has Mass   12.00000
   Atom   33 Element H  Has Mass    1.00783
   Atom   34 Element H  Has Mass    1.00783
   Atom   35 Element H  Has Mass    1.00783
   Molecular Mass:   242.115490 amu
   Principal axes and moments of inertia in amu*Bohr^2:
                             1           2           3
    Eigenvalues --     3001.56680  3611.50634  5631.17427
          X               0.99992    -0.01148     0.00567
          Y               0.01151     0.99992    -0.00522
          Z              -0.00561     0.00528     0.99997
   Rotational Symmetry Number is   1
   The Molecule is an Asymmetric Top
   Translational Enthalpy:        0.889 kcal/mol
   Rotational Enthalpy:           0.889 kcal/mol
   Vibrational Enthalpy:        192.690 kcal/mol
   gas constant (RT):             0.592 kcal/mol
   Translational Entropy:        42.354  cal/mol.K
   Rotational Entropy:           32.479  cal/mol.K
   Vibrational Entropy:          58.614  cal/mol.K

   Total Enthalpy:              195.060 kcal/mol
   Total Entropy:               133.447  cal/mol.K
Archival summary:
1\1\nid04270\FREQ\ProcedureUnspecified\BasisUnspecified\51218\junteng\WedOct422:37:372017WedOct422:37:372017\0\\#,FREQ,ProcedureUnspecified,BasisUnspecified,\\0,1\O\C,1,1.43132\C,1,1.44202,2,99.09\C,2,1.51263,1,110.82,3,179.479,0\H,4,1.09143,2,110.86,1,57.4367,0\H,4,1.09187,2,109.603,1,-62.0364,0\H,4,1.09286,2,110.554,1,178.299,0\C,3,1.51345,1,110.884,2,-176.039,0\H,8,1.08664,3,111.196,1,-55.8447,0\H,8,1.09262,3,109.2,1,65.2165,0\H,8,1.09364,3,110.25,1,-175.877,0\C,2,1.54914,1,102.518,3,55.3757,0\H,12,1.09168,2,112.615,1,-156.164,0\H,12,1.09197,2,109.513,1,83.8078,0\C,12,1.54943,2,101.408,1,-33.9994,0\H,15,1.09114,12,111.249,2,117.898,0\H,15,1.09191,12,113.669,2,-120.21,0\C,3,1.56347,1,102.019,2,56.0493,0\H,18,1.09282,3,110.08,1,-148.823,0\C,18,1.5228,3,117.779,1,91.3946,0\O,20,1.20182,18,128.234,3,0.833749,0\O,20,1.35641,18,108.52,3,177.802,0\C,22,1.43892,20,115.677,18,175.036,0\H,23,1.08801,22,105.482,20,-178.89,0\H,23,1.09106,22,109.874,20,-59.4512,0\H,23,1.09107,22,110.676,20,61.5168,0\C,18,1.56743,3,101.709,1,-33.885,0\H,27,1.08844,18,111.433,3,-116.133,0\C,27,1.51279,18,115.768,3,120.859,0\O,29,1.20561,27,126.582,18,-38.4483,0\O,29,1.35295,27,110.073,18,144.557,0\C,31,1.43921,29,115.902,27,176.347,0\H,32,1.08774,31,105.47,29,178.158,0\H,32,1.09084,31,110.431,29,58.5439,0\H,32,1.09126,31,110.445,29,-62.3001,0\\\@

 Total job time:  14013.50s(wall), 84466.38s(cpu) 
 Wed Oct  4 22:37:37 2017

        *************************************************************
        *                                                           *
        *  Thank you very much for using Q-Chem.  Have a nice day.  *
        *                                                           *
        *************************************************************


