nid00339 10.128.1
Q-Chem Developer Version! Running on 10.128.1.*
                  Welcome to Q-Chem
     A Quantum Leap Into The Future Of Chemistry


 Q-Chem 5.0, Q-Chem, Inc., Pleasanton, CA (2017)

 Yihan Shao,  Zhengting Gan,  E. Epifanovsky,  A. T. B. Gilbert,  M. Wormit,  
 J. Kussmann,  A. W. Lange,  A. Behn,  Jia Deng,  Xintian Feng,  D. Ghosh,  
 M. Goldey,  P. R. Horn,  L. D. Jacobson,  I. Kaliman,  T. Kus,  A. Landau,  
 Jie Liu,  E. I. Proynov,  R. M. Richard,  R. P. Steele,  E. J. Sundstrom,  
 H. L. Woodcock III,  P. M. Zimmerman,  D. Zuev,  B. Albrecht,  E. Alguire,  
 S. A. Baeppler,  Z. Benda,  Y. A. Bernard,  E. J. Berquist,  K. B. Bravaya,  
 D. Casanova,  Chun-Min Chang,  Yunqing Chen,  A. Chien,  K. D. Closser,  
 M. P. Coons,  S. Dasgupta,  M. Diedenhofen,  Hainam Do,  R. G. Edgar,  
 Po-Tung Fang,  S. Fatehi,  Qingguo Feng,  Qinghui Ge,  A. Ghysels,  
 J. Gomes,  J. Gonthier,  A. Gunina,  M. W. D. Hanson-Heine,  
 P. H. P. Harbach,  A. W. Hauser,  J. E. Herr,  E. G. Hohenstein,  
 Z. C. Holden,  Kerwin Hui,  T.-C. Jagau,  Hyunjun Ji,  B. Kaduk,  
 K. Khistyaev,  Jaehoon Kim,  P. Klunzinger,  K. Koh,  D. Kosenkov,  
 T. Kowalczyk,  C. M. Krauter,  A. Kunitsa,  Ka Un Lao,  A. Laurent,  
 K. V. Lawler,  Joonho Lee,  D. Lefrancois,  S. Lehtola,  D. S. Levine,  
 Yi-Pei Li,  You-Sheng Lin,  Fenglai Liu,  E. Livshits,  A. Luenser,  
 P. Manohar,  E. Mansoor,  S. F. Manzer,  Shan-Ping Mao,  Yuezhi Mao,  
 N. Mardirossian,  A. V. Marenich,  L. A. Martinez-Martinez,  S. A. Maurer,  
 N. J. Mayhall,  S. C. McKenzie,  J.-M. Mewes,  A. F. Morrison,  K. Nanda,  
 T. S. Nguyen-Beck,  R. Olivares-Amaya,  J. A. Parkhill,  T. M. Perrine,  
 F. Plasser,  S. Prager,  A. Prociuk,  D. R. Rehn,  F. Rob,  M. Schneider,  
 N. Sergueev,  S. M. Sharada,  S. Sharma,  D. W. Small,  T. Stauch,  
 T. Stein,  Yu-Chuan Su,  A. J. W. Thom,  T. Tsuchimochi,  L. Vogt,  
 O. Vydrov,  M. A. Watson,  J. Wenzel,  M. de Wergifosse,  T. A. Wesolowski,  
 A. White,  J. Witte,  A. Yamada,  Jun Yang,  K. Yao,  S. Yeganeh,  
 S. R. Yost,  Zhi-Qiang You,  A. Zech,  Igor Ying Zhang,  Xing Zhang,  
 Yan Zhao,  Ying Zhu,  B. R. Brooks,  G. K. L. Chan,  C. J. Cramer,  
 M. S. Gordon,  W. J. Hehre,  A. Klamt,  M. W. Schmidt,  C. D. Sherrill,  
 D. G. Truhlar,  A. Aspuru-Guzik,  R. Baer,  A. T. Bell,  N. A. Besley,  
 Jeng-Da Chai,  A. Dreuw,  B. D. Dunietz,  T. R. Furlani,  Chao-Ping Hsu,  
 Yousung Jung,  Jing Kong,  D. S. Lambrecht,  WanZhen Liang,  C. Ochsenfeld,  
 V. A. Rassolov,  L. V. Slipchenko,  J. E. Subotnik,  T. Van Voorhis,  
 J. M. Herbert,  A. I. Krylov,  P. M. W. Gill,  M. Head-Gordon

 Contributors to earlier versions of Q-Chem not listed above: 
 R. D. Adamson,  B. Austin,  J. Baker,  G. J. O. Beran,  K. Brandhorst,  
 S. T. Brown,  E. F. C. Byrd,  A. K. Chakraborty,  C.-L. Cheng,  
 Siu Hung Chien,  D. M. Chipman,  D. L. Crittenden,  H. Dachsel,  
 R. A. DiStasio Jr.,  R. J. Doerksen,  A. D. Dutoi,  L. Fusti-Molnar,  
 W. A. Goddard III,  A. Golubeva-Zadorozhnaya,  S. R. Gwaltney,  G. Hawkins,  
 A. Heyden,  S. Hirata,  G. Kedziora,  F. J. Keil,  C. Kelley,  Jihan Kim,  
 R. A. King,  R. Z. Khaliullin,  P. P. Korambath,  W. Kurlancheek,  
 A. M. Lee,  M. S. Lee,  S. V. Levchenko,  Ching Yeh Lin,  D. Liotard,  
 R. C. Lochan,  I. Lotan,  P. E. Maslen,  N. Nair,  D. P. O'Neill,  
 D. Neuhauser,  E. Neuscamman,  C. M. Oana,  R. Olson,  B. Peters,  
 R. Peverati,  P. A. Pieniazek,  Y. M. Rhee,  J. Ritchie,  M. A. Rohrdanz,  
 E. Rosta,  N. J. Russ,  H. F. Schaefer III,  N. E. Schultz,  N. Shenvi,  
 A. C. Simmonett,  A. Sodt,  D. Stuck,  K. S. Thanthiriwatte,  V. Vanovschi,  
 Tao Wang,  A. Warshel,  C. F. Williams,  Q. Wu,  X. Xu,  W. Zhang

 Please cite Q-Chem as follows:
 Y. Shao et al., Mol. Phys. 113, 184-215 (2015)
 DOI: 10.1080/00268976.2014.952696

 Q-Chem 5.0.0 for Intel X86 EM64T Linux

 Parts of Q-Chem use Armadillo 5.200.1 (Boston Tea Smuggler).
 http://arma.sourceforge.net/

 Q-Chem begins on Wed Oct 18 12:22:26 2017  

Host: nid00339
0

     Scratch files written to /global/cscratch1/sd/junteng/scratch/17/opt_11d11.save//

Checking the input file for inconsistencies... 	...done.

--------------------------------------------------------------
User input:
--------------------------------------------------------------
$molecule
0  1
C          1.00100        0.54800       -0.44700
C         -0.58500        0.51700       -0.66900
C          1.58400       -0.68200        0.24700
C         -1.28900       -0.63000        0.05700
O          2.92935       -0.72311        0.09292
O          0.96847       -1.45282        0.94928
O         -0.90757       -1.82877       -0.44459
O         -2.14693       -0.53696        0.90949
C         -1.58236       -2.96656        0.11675
C          3.56634       -1.88974        0.63077
C          1.18700        1.83900        0.44000
C          0.50800        1.60700        1.78200
C         -0.81400        1.63700        1.57600
C         -1.03300        1.85800        0.08600
C          0.15900        2.78600       -0.22000
C          1.82300        0.68400       -1.75400
C         -1.01500        0.54200       -2.14600
H         -1.41709       -3.01541        1.19792
H          3.20214       -2.78088        0.11220
H         -1.59700        1.39300        2.28600
H         -1.15075       -3.83660       -0.37899
H         -2.65818       -2.90554       -0.07057
H          4.63450       -1.75171        0.45310
H          3.36394       -1.98548        1.70092
H         -2.02900        2.18500       -0.22000
H          2.22700        2.16700        0.48200
H         -0.57700        1.39100       -2.67500
H         -0.70800       -0.37300       -2.66300
H         -2.10200        0.62100       -2.22000
H          2.89100        0.67000       -1.50700
H          1.63100       -0.14300       -2.43900
H          1.62100        1.62400       -2.27400
H          0.08000        3.74500        0.29900
H          0.32400        2.97000       -1.28600
H          1.03300        1.34000        2.69000
$end


$opt
CONSTRAINT
tors    1    2    4    8    119.3
tors    2    1    3    6    -21.9
ENDCONSTRAINT
$end

$rem
JOBTYPE                   OPT
METHOD                    B3LYP
DFT_D                     D3_OP
BASIS                     STO-3G
GEOM_OPT_MAX_CYCLES       500
SYMMETRY                  False
THRESH                    12
SCF_CONVERGENCE           8
MAX_SUB_FILE_NUM          128
MEM_STATIC                400
MEM_TOTAL                 4000
$end

--------------------------------------------------------------
 Adding empirical dispersion correction 
 ----------------------------------------------------------------
 Doing -D3(op) with
 s6 =   1.00000
 s8 =   0.78311
 a1 =   0.30000
 a2 =   4.25000
 n  =  10.00000
 -D3 energy without 3body term =     -0.0467550811 hartrees
 ----------------------------------------------------------------
             Standard Nuclear Orientation (Angstroms)
    I     Atom           X                Y                Z
 ----------------------------------------------------------------
    1      C       0.3154877826    -0.8514042343     0.4621610803
    2      C      -1.0510796371    -0.0344650446     0.6375031689
    3      C       1.4756461600    -0.0563331528    -0.1347639692
    4      C      -1.0417763180     1.3385440729    -0.0355944551
    5      O       2.6487989865    -0.7046164433     0.0623109449
    6      O       1.3713726368     0.9465481263    -0.8052816975
    7      O      -0.1406108125     2.1611652570     0.5520499996
    8      O      -1.7796673786     1.7239609088    -0.9178700197
    9      C      -0.1202531418     3.5050343472     0.0435112523
   10      C       3.8147477705     0.0024288327    -0.3812145339
   11      C      -0.1196903513    -2.0242870948    -0.4985739442
   12      C      -0.5117825619    -1.4292474731    -1.8432004898
   13      C      -1.6800834529    -0.7973051786    -1.6796707844
   14      C      -2.0663253121    -0.9363221830    -0.2139308693
   15      C      -1.5201893686    -2.3496406725     0.0688241101
   16      C       0.8811900676    -1.4342563407     1.7822721918
   17      C      -1.5204744411     0.1024578708     2.0962610766
   18      H       0.1096002233     3.5064736411    -1.0269066209
   19      H       3.9169902745     0.9345075446     0.1813356680
   20      H      -2.1925873030    -0.1643859847    -2.3962446450
   21      H       0.6597799229     4.0189265807     0.6060751435
   22      H      -1.0904875515     3.9869333385     0.1939088840
   23      H       4.6574238152    -0.6617438081    -0.1803253050
   24      H       3.7500488094     0.2291065916    -1.4488212818
   25      H      -3.1078662068    -0.7288311709     0.0404724416
   26      H       0.6161775814    -2.8295693419    -0.5296687700
   27      H      -1.5986130839    -0.8716448183     2.5836052091
   28      H      -0.8267145801     0.7170827258     2.6790959956
   29      H      -2.5028043647     0.5789307885     2.1321425458
   30      H       1.8245620336    -1.9504447044     1.5691339572
   31      H       1.0902948876    -0.6508186888     2.5120109258
   32      H       0.2054252014    -2.1641451322     2.2354920036
   33      H      -2.0390520021    -3.1170084406    -0.5118748446
   34      H      -1.5317832538    -2.6334806243     1.1255821068
   35      H       0.1279549629    -1.4275737818    -2.7161902367
 ----------------------------------------------------------------
 Molecular Point Group                 C1    NOp =  1
 Largest Abelian Subgroup              C1    NOp =  1
 Nuclear Repulsion Energy =  1388.4883585293 hartrees
 There are       64 alpha and       64 beta electrons
 Requested basis set is STO-3G
 There are 52 shells and 103 basis functions

 Total QAlloc Memory Limit   4000 MB
 Mega-Array Size       392 MB
 MEM_STATIC part       400 MB
 A cutoff of  1.0D-12 yielded   1233 shell pairs
 There are      5256 function pairs
 
 -------------------------------------------------------
 OpenMP Integral Computing Module                       
 Release: version 1.0, May 2013, Q-Chem Inc. Pittsburgh 
 -------------------------------------------------------
 Integral Job Info:
 Integral job number is                      11
 Integral operator is                         1
 short-range coefficients                     0
 long-range coefficients              100000000
 Omega coefficients                           0
 if combine SR and LR in K                    0
 Integral screening is                        0
 Integral computing path is                   2
 max size of driver memory is            800000
 size of driver memory is                 45569
 size of scratch memory is               945100
 max col of scratch BK array                289
 max len of scratch array in speh3           22
 max len of scratch index in speh4            8
 max int batch size is                      520
 min int batch size is                       52
 fixed nKL is                                52
 max L of basis functions is                  1
 order of int derivative is                   0
 number of shells is                         52
 number of basis is                         103
 number of cartesian basis is               103
 number of contracted shell pairs          1233
 number of primitive shell pairs           6918
 maxK2 (contraction) of shell pair            9
 max number of K2 of shell pair               1
 max number of CS2 of shell pair            203
 max number of PS2 of shell pair            996
 mem total for path MDJ                   36938
 -------------------------------------------------------
 Smallest overlap matrix eigenvalue = 1.83E-01

 Scale SEOQF with 1.000000e-01/1.000000e-01/1.000000e-01

 Standard Electronic Orientation quadrupole field applied
 Nucleus-field energy     =     0.0000000209 hartrees
 Guess from superposition of atomic densities
 Warning:  Energy on first SCF cycle will be non-variational
 A restricted hybrid HF-DFT SCF calculation will be
 performed using Pulay DIIS extrapolation
 Exchange:     0.2000 Hartree-Fock + 0.0800 Slater + 0.7200 B88
 Correlation:  0.1900 VWN1RPA + 0.8100 LYP
 Using SG-1 standard quadrature grid
 Dispersion:   Grimme D3
 SCF converges when DIIS error is below 1.0E-08
 -------------------------------------------------------
 OpenMP Integral computing Module                
 Release: version 1.0, May 2013, Q-Chem Inc. Pittsburgh 
 -------------------------------------------------------
 -------------------------------------------------------
 OpenMP BLAS3 based DFT computing Module                
 Release: version 1.0, May 2013, Q-Chem Inc. Pittsburgh 
 -------------------------------------------------------
 ---------------------------------------
  Cycle       Energy         DIIS Error
 ---------------------------------------
    1    -795.9189415649      1.05E-01
    2    -796.5935053640      1.15E-02
    3    -795.7841745605      2.76E-02
    4    -796.8003105929      3.58E-03
    5    -796.8175345752      1.28E-03
    6    -796.8198690442      3.48E-04
    7    -796.8200424917      1.12E-04
    8    -796.8200605410      3.13E-05
    9    -796.8200615163      1.82E-05
   10    -796.8200620233      2.66E-06
   11    -796.8200620359      5.10E-07
   12    -796.8200620363      1.36E-07
   13    -796.8200620363      4.32E-08
   14    -796.8200620363      1.23E-08
   15    -796.8200620363      2.92E-09 Convergence criterion met
 ---------------------------------------
 SCF time:  CPU 79.15 s  wall 3.35 s
 SCF   energy in the final basis set = -796.8200620363
 Total energy in the final basis set = -796.8200620363
 
 --------------------------------------------------------------
 
                    Orbital Energies (a.u.)
 --------------------------------------------------------------
 
 Alpha MOs
 -- Occupied --
-18.939 -18.922 -18.862 -18.849 -10.102 -10.095 -10.074 -10.060
-10.032 -10.031 -10.020 -10.015 -10.010 -10.008 -10.000  -9.978
 -9.975  -1.045  -1.029  -0.952  -0.936  -0.842  -0.749  -0.727
 -0.678  -0.671  -0.659  -0.640  -0.624  -0.554  -0.530  -0.508
 -0.489  -0.472  -0.471  -0.456  -0.432  -0.419  -0.418  -0.404
 -0.390  -0.389  -0.370  -0.365  -0.362  -0.355  -0.346  -0.341
 -0.333  -0.317  -0.312  -0.309  -0.300  -0.284  -0.284  -0.271
 -0.257  -0.241  -0.228  -0.186  -0.174  -0.163  -0.136  -0.134
 -- Virtual --
  0.121   0.127   0.135   0.268   0.291   0.304   0.329   0.337
  0.377   0.380   0.384   0.400   0.408   0.419   0.424   0.433
  0.434   0.437   0.440   0.444   0.446   0.454   0.462   0.467
  0.471   0.480   0.486   0.498   0.509   0.526   0.528   0.529
  0.539   0.555   0.559   0.604   0.713   0.718   0.780
 --------------------------------------------------------------
 
          Ground-State Mulliken Net Atomic Charges

     Atom                 Charge (a.u.)
  ----------------------------------------
      1 C                     0.007478
      2 C                     0.008059
      3 C                     0.236465
      4 C                     0.244097
      5 O                    -0.192495
      6 O                    -0.234287
      7 O                    -0.190991
      8 O                    -0.241533
      9 C                    -0.123953
     10 C                    -0.125722
     11 C                    -0.060812
     12 C                    -0.098452
     13 C                    -0.083031
     14 C                    -0.057795
     15 C                    -0.131091
     16 C                    -0.226030
     17 C                    -0.224863
     18 H                     0.098011
     19 H                     0.092895
     20 H                     0.089234
     21 H                     0.092565
     22 H                     0.088689
     23 H                     0.097003
     24 H                     0.095507
     25 H                     0.074170
     26 H                     0.074841
     27 H                     0.078532
     28 H                     0.082564
     29 H                     0.078529
     30 H                     0.088261
     31 H                     0.075200
     32 H                     0.069748
     33 H                     0.076194
     34 H                     0.067678
     35 H                     0.075334
  ----------------------------------------
  Sum of atomic charges =    -0.000000

 -----------------------------------------------------------------
                    Cartesian Multipole Moments
 -----------------------------------------------------------------
    Charge (ESU x 10^10)
                 0.0000
    Dipole Moment (Debye)
         X       1.5933      Y      -0.2544      Z       1.3211
       Tot       2.0853
    Quadrupole Moments (Debye-Ang)
        XX     -87.8474     XY       1.5970     YY     -90.2952
        XZ      -3.5373     YZ       1.7047     ZZ     -93.6049
    Octopole Moments (Debye-Ang^2)
       XXX      45.2417    XXY       6.0233    XYY       5.8273
       YYY      42.9196    XXZ       0.2498    XYZ       0.5530
       YYZ       4.2172    XZZ       6.7863    YZZ       5.4576
       ZZZ      -6.9052
    Hexadecapole Moments (Debye-Ang^3)
      XXXX   -1547.7737   XXXY     -16.2918   XXYY    -543.6688
      XYYY     -17.2414   YYYY   -1450.1402   XXXZ     -20.6833
      XXYZ      10.9835   XYYZ      -7.7006   YYYZ      -2.0740
      XXZZ    -409.6324   XYZZ      -4.2618   YYZZ    -390.2519
      XZZZ      -3.1702   YZZZ      -9.8486   ZZZZ    -756.7817
 -----------------------------------------------------------------
 Calculating analytic gradient of the SCF energy
 Gradient of SCF Energy
            1           2           3           4           5           6
    1   0.0053376  -0.0028308   0.0308543  -0.0059449  -0.0330288  -0.0006644
    2   0.0095845   0.0264706   0.0119846   0.0124452   0.0556725  -0.0673012
    3  -0.0243311   0.0106688   0.0000725  -0.0151922  -0.0283468   0.0504565
            7           8           9          10          11          12
    1  -0.0445797   0.0510068   0.0052832  -0.0030244  -0.0058406   0.0017841
    2  -0.0116672  -0.0199592  -0.0023626  -0.0082504   0.0102874  -0.0052508
    3  -0.0619673   0.0597560   0.0088703   0.0056525  -0.0002072   0.0039900
           13          14          15          16          17          18
    1  -0.0050312   0.0060956   0.0073075   0.0017781   0.0003534  -0.0035962
    2  -0.0041060  -0.0038422   0.0122197   0.0141243  -0.0022649  -0.0033496
    3   0.0082800  -0.0115075  -0.0051232  -0.0107554  -0.0107362   0.0116750
           19          20          21          22          23          24
    1  -0.0061958   0.0063183  -0.0078096   0.0101869  -0.0107244  -0.0028807
    2  -0.0125840  -0.0026181  -0.0085964  -0.0097405   0.0045004  -0.0047332
    3  -0.0039787   0.0058300  -0.0044443  -0.0011088  -0.0008899   0.0132231
           25          26          27          28          29          30
    1   0.0082390  -0.0057585   0.0013230  -0.0031635   0.0061927  -0.0013358
    2  -0.0001562   0.0074960   0.0048350  -0.0030510  -0.0031261   0.0001333
    3  -0.0007836  -0.0000593  -0.0017363  -0.0010907   0.0007586   0.0016670
           31          32          33          34          35
    1  -0.0002381   0.0041234   0.0028258  -0.0008857  -0.0054770
    2  -0.0057373   0.0012887   0.0050991   0.0008498   0.0017057
    3  -0.0038261  -0.0028005   0.0038015  -0.0049144   0.0090977
 Max gradient component =       6.730E-02
 RMS gradient           =       1.710E-02
 Gradient time:  CPU 19.77 s  wall 0.84 s
 Geometry Optimization Parameters
   NAtoms,    NIC,     NZ,  NCons,   NDum,   NFix, NCnnct, MaxDiis
       35     275       0       2       0       0       0       0


** CONSTRAINED OPTIMIZATION IN DELOCALIZED INTERNAL COORDINATES **
   Searching for a Minimum

   Optimization Cycle:   1

                       Coordinates (Angstroms)
     ATOM                X               Y               Z
      1  C         0.3154877826   -0.8514042343    0.4621610803
      2  C        -1.0510796371   -0.0344650446    0.6375031689
      3  C         1.4756461600   -0.0563331528   -0.1347639692
      4  C        -1.0417763180    1.3385440729   -0.0355944551
      5  O         2.6487989865   -0.7046164433    0.0623109449
      6  O         1.3713726368    0.9465481263   -0.8052816975
      7  O        -0.1406108125    2.1611652570    0.5520499996
      8  O        -1.7796673786    1.7239609088   -0.9178700197
      9  C        -0.1202531418    3.5050343472    0.0435112523
     10  C         3.8147477705    0.0024288327   -0.3812145339
     11  C        -0.1196903513   -2.0242870948   -0.4985739442
     12  C        -0.5117825619   -1.4292474731   -1.8432004898
     13  C        -1.6800834529   -0.7973051786   -1.6796707844
     14  C        -2.0663253121   -0.9363221830   -0.2139308693
     15  C        -1.5201893686   -2.3496406725    0.0688241101
     16  C         0.8811900676   -1.4342563407    1.7822721918
     17  C        -1.5204744411    0.1024578708    2.0962610766
     18  H         0.1096002233    3.5064736411   -1.0269066209
     19  H         3.9169902745    0.9345075446    0.1813356680
     20  H        -2.1925873030   -0.1643859847   -2.3962446450
     21  H         0.6597799229    4.0189265807    0.6060751435
     22  H        -1.0904875515    3.9869333385    0.1939088840
     23  H         4.6574238152   -0.6617438081   -0.1803253050
     24  H         3.7500488094    0.2291065916   -1.4488212818
     25  H        -3.1078662068   -0.7288311709    0.0404724416
     26  H         0.6161775814   -2.8295693419   -0.5296687700
     27  H        -1.5986130839   -0.8716448183    2.5836052091
     28  H        -0.8267145801    0.7170827258    2.6790959956
     29  H        -2.5028043647    0.5789307885    2.1321425458
     30  H         1.8245620336   -1.9504447044    1.5691339572
     31  H         1.0902948876   -0.6508186888    2.5120109258
     32  H         0.2054252014   -2.1641451322    2.2354920036
     33  H        -2.0390520021   -3.1170084406   -0.5118748446
     34  H        -1.5317832538   -2.6334806243    1.1255821068
     35  H         0.1279549629   -1.4275737818   -2.7161902367
   Point Group: c1    Number of degrees of freedom:    99


   Energy is   -796.820062036

              Constraints and their Current Values
                                        Value     Constraint
   Dihedral:        1   2   4   8      119.347      119.300
   Dihedral:        2   1   3   6      -21.950      -21.900

 Attempting to Generate Delocalized Internal Coordinates

   Using Lagrange Multiplier Algorithm


101 Hessian modes will be used to form the next step
  Hessian Eigenvalues:
    -0.977753   -0.977753    0.045000    0.045000    0.045000    0.045000
     0.045000    0.045000    0.045105    0.045134    0.045224    0.045278
     0.045818    0.052270    0.055554    0.065503    0.066877    0.072964
     0.074362    0.076591    0.076997    0.080167    0.081420    0.082160
     0.082530    0.082645    0.083538    0.084410    0.085203    0.090786
     0.092588    0.100744    0.104356    0.113619    0.114834    0.114937
     0.118187    0.118369    0.119163    0.134621    0.138338    0.150977
     0.156415    0.158468    0.160000    0.160000    0.160000    0.160000
     0.160000    0.160000    0.160000    0.160000    0.160000    0.160000
     0.160000    0.160000    0.171033    0.209841    0.215249    0.244499
     0.246156    0.248937    0.249503    0.250000    0.250000    0.250000
     0.250000    0.252188    0.272494    0.276531    0.286501    0.295020
     0.296198    0.297879    0.340969    0.342547    0.342616    0.343233
     0.343874    0.344142    0.344315    0.344352    0.344602    0.345395
     0.345764    0.345814    0.346287    0.346622    0.347112    0.347642
     0.354241    0.357176    0.399978    0.404343    0.509732    0.540192
     0.541164    0.985397    0.995394    1.022753    1.022753

 Minimum Search - Taking P-RFO Step
 Searching for Lamda that Maximizes Along the Constraint modes Only
 Value Taken    Lamda =   0.00004047
 Searching for Lamda that Minimizes Along All other modes
 Value Taken    Lamda =  -0.06742168
 Calculated Step too Large.  Step scaled by  0.677358
 Step Taken.  Stepsize is  0.300000

                             Maximum     Tolerance    Cnvgd?
         Gradient            0.113873       0.000300      NO
         Displacement        0.116880       0.001200      NO
         Energy change     *********       0.000001      NO


 New Cartesian Coordinates Obtained by Inverse Iteration

 Displacement from previous Coordinates is:  1.277867
 Adding empirical dispersion correction 
 ----------------------------------------------------------------
 Doing -D3(op) with
 s6 =   1.00000
 s8 =   0.78311
 a1 =   0.30000
 a2 =   4.25000
 n  =  10.00000
 -D3 energy without 3body term =     -0.0460485808 hartrees
 ----------------------------------------------------------------
             Standard Nuclear Orientation (Angstroms)
    I     Atom           X                Y                Z
 ----------------------------------------------------------------
    1      C       0.3307311076    -0.8626750046     0.4729505931
    2      C      -1.0524170980    -0.0251934064     0.6202535979
    3      C       1.5311643622    -0.0933962576    -0.1884428500
    4      C      -1.0502471316     1.3978650586    -0.0346082969
    5      O       2.7253141692    -0.7731275644     0.0481052269
    6      O       1.4624060966     0.8971572224    -0.9296683564
    7      O      -0.1850372280     2.2422969144     0.6611351333
    8      O      -1.7965013787     1.7947124895    -0.9426752151
    9      C      -0.2114886677     3.6142220687     0.1673688852
   10      C       3.8933813854    -0.0780755443    -0.4827640655
   11      C      -0.1016709837    -2.0656144764    -0.4780356266
   12      C      -0.4731169329    -1.4796433229    -1.8495030261
   13      C      -1.6449227947    -0.8363607457    -1.7134346092
   14      C      -2.0591370453    -0.9533068476    -0.2372242664
   15      C      -1.5217488017    -2.3786079795     0.0758304600
   16      C       0.8545144159    -1.4275049387     1.8365567256
   17      C      -1.5551818663     0.1338380833     2.0805770473
   18      H       0.0780374138     3.6589545483    -0.8985920190
   19      H       4.0253115197     0.9041735936     0.0061473687
   20      H      -2.1533397760    -0.2141172330    -2.4526823021
   21      H       0.5151613174     4.1716125217     0.7779679405
   22      H      -1.2170988699     4.0613479753     0.2716884661
   23      H       4.7589500552    -0.7228892195    -0.2641114919
   24      H       3.8101017867     0.0815867857    -1.5732838356
   25      H      -3.1117612046    -0.7460879575     0.0014467796
   26      H       0.6327442343    -2.8837956169    -0.4833644149
   27      H      -1.6465964982    -0.8368789725     2.5822356599
   28      H      -0.8682060715     0.7600053825     2.6662492895
   29      H      -2.5424726506     0.6151396294     2.0856362603
   30      H       1.7934551251    -1.9674287530     1.6586154029
   31      H       1.0596196531    -0.6201678488     2.5499414854
   32      H       0.1474114670    -2.1300009753     2.2947974017
   33      H      -2.0364732904    -3.1572187387    -0.5049665721
   34      H      -1.5501820266    -2.6472697475     1.1407213682
   35      H       0.1829562016    -1.4989748099    -2.7212519059
 ----------------------------------------------------------------
 Molecular Point Group                 C1    NOp =  1
 Largest Abelian Subgroup              C1    NOp =  1
 Nuclear Repulsion Energy =  1362.1589797086 hartrees
 There are       64 alpha and       64 beta electrons
 Applying Cartesian multipole field
    Component          Value
    ---------          -----
     (2,0,0)        1.00000E-11
     (0,2,0)        2.00000E-11
     (0,0,2)       -3.00000E-11
 Nucleus-field energy     =     0.0000000219 hartrees
 Requested basis set is STO-3G
 There are 52 shells and 103 basis functions
 A cutoff of  1.0D-12 yielded   1233 shell pairs
 There are      5256 function pairs
 Smallest overlap matrix eigenvalue = 1.88E-01
 Guess MOs from SCF MO coefficient file
 Reading MOs from coefficient file
 Reading MOs from coefficient file
 A restricted hybrid HF-DFT SCF calculation will be
 performed using Pulay DIIS extrapolation
 Exchange:     0.2000 Hartree-Fock + 0.0800 Slater + 0.7200 B88
 Correlation:  0.1900 VWN1RPA + 0.8100 LYP
 Using SG-1 standard quadrature grid
 Dispersion:   Grimme D3
 SCF converges when DIIS error is below 1.0E-08
 Geometry optimization detected.  Setting ReadMinima to 0
 Setting SaveMinima to 0
 -------------------------------------------------------
 OpenMP Integral computing Module                
 Release: version 1.0, May 2013, Q-Chem Inc. Pittsburgh 
 -------------------------------------------------------
 -------------------------------------------------------
 OpenMP BLAS3 based DFT computing Module                
 Release: version 1.0, May 2013, Q-Chem Inc. Pittsburgh 
 -------------------------------------------------------
 ---------------------------------------
  Cycle       Energy         DIIS Error
 ---------------------------------------
    1    -796.6911688082      5.51E-03
    2    -796.8430297674      1.85E-03
    3    -796.8358480550      2.90E-03
    4    -796.8478646335      5.41E-04
    5    -796.8483371323      1.10E-04
    6    -796.8483568380      2.44E-05
    7    -796.8483573282      1.87E-05
    8    -796.8483579028      2.31E-06
    9    -796.8483579133      6.39E-07
   10    -796.8483579142      2.69E-07
   11    -796.8483579143      1.81E-07
   12    -796.8483579144      4.93E-08
   13    -796.8483579144      9.44E-09 Convergence criterion met
 ---------------------------------------
 SCF time:  CPU 67.32 s  wall 2.83 s
 SCF   energy in the final basis set = -796.8483579144
 Total energy in the final basis set = -796.8483579144
 
 --------------------------------------------------------------
 
                    Orbital Energies (a.u.)
 --------------------------------------------------------------
 
 Alpha MOs
 -- Occupied --
-18.936 -18.924 -18.864 -18.854 -10.096 -10.089 -10.069 -10.059
-10.035 -10.033 -10.021 -10.017 -10.010 -10.009 -10.003  -9.980
 -9.978  -1.023  -1.011  -0.937  -0.927  -0.834  -0.741  -0.719
 -0.670  -0.663  -0.656  -0.637  -0.620  -0.548  -0.526  -0.503
 -0.487  -0.467  -0.461  -0.447  -0.420  -0.413  -0.409  -0.397
 -0.388  -0.382  -0.367  -0.362  -0.361  -0.352  -0.344  -0.338
 -0.332  -0.314  -0.309  -0.305  -0.298  -0.283  -0.280  -0.267
 -0.254  -0.244  -0.233  -0.181  -0.173  -0.163  -0.142  -0.136
 -- Virtual --
  0.111   0.122   0.123   0.250   0.275   0.290   0.317   0.326
  0.359   0.361   0.368   0.384   0.389   0.405   0.410   0.418
  0.421   0.424   0.428   0.434   0.435   0.443   0.447   0.452
  0.455   0.459   0.466   0.475   0.498   0.509   0.514   0.517
  0.523   0.540   0.545   0.590   0.667   0.672   0.767
 --------------------------------------------------------------
 
          Ground-State Mulliken Net Atomic Charges

     Atom                 Charge (a.u.)
  ----------------------------------------
      1 C                     0.011796
      2 C                     0.010513
      3 C                     0.217550
      4 C                     0.223625
      5 O                    -0.181932
      6 O                    -0.223449
      7 O                    -0.182018
      8 O                    -0.227323
      9 C                    -0.123350
     10 C                    -0.124183
     11 C                    -0.059268
     12 C                    -0.095442
     13 C                    -0.082733
     14 C                    -0.055975
     15 C                    -0.129853
     16 C                    -0.223547
     17 C                    -0.222059
     18 H                     0.094224
     19 H                     0.089664
     20 H                     0.087487
     21 H                     0.089595
     22 H                     0.086442
     23 H                     0.092912
     24 H                     0.092030
     25 H                     0.072874
     26 H                     0.074039
     27 H                     0.076508
     28 H                     0.082904
     29 H                     0.077360
     30 H                     0.086518
     31 H                     0.075944
     32 H                     0.071216
     33 H                     0.075621
     34 H                     0.067024
     35 H                     0.075285
  ----------------------------------------
  Sum of atomic charges =    -0.000000

 -----------------------------------------------------------------
                    Cartesian Multipole Moments
 -----------------------------------------------------------------
    Charge (ESU x 10^10)
                -0.0000
    Dipole Moment (Debye)
         X       1.3571      Y      -0.3442      Z       1.3222
       Tot       1.9257
    Quadrupole Moments (Debye-Ang)
        XX     -87.8638     XY       1.4553     YY     -89.7051
        XZ      -3.6724     YZ       1.8892     ZZ     -93.6942
    Octopole Moments (Debye-Ang^2)
       XXX      43.1761    XXY       5.9011    XYY       4.5170
       YYY      45.7299    XXZ      -0.7432    XYZ       0.7433
       YYZ       5.4328    XZZ       5.7887    YZZ       4.5209
       ZZZ      -5.8086
    Hexadecapole Moments (Debye-Ang^3)
      XXXX   -1587.1313   XXXY       4.8093   XXYY    -564.9261
      XYYY       4.4970   YYYY   -1509.2983   XXXZ      -9.1423
      XXYZ       6.9686   XYYZ      -2.5529   YYYZ     -14.2847
      XXZZ    -422.3395   XYZZ       2.7177   YYZZ    -407.2112
      XZZZ      14.2879   YZZZ     -24.2752   ZZZZ    -780.9023
 -----------------------------------------------------------------
 Calculating analytic gradient of the SCF energy
 Gradient of SCF Energy
            1           2           3           4           5           6
    1  -0.0016018  -0.0038787   0.0213797   0.0036301  -0.0143238   0.0032246
    2   0.0004084   0.0160557  -0.0052964   0.0042818   0.0264740  -0.0218840
    3  -0.0154769   0.0150669   0.0073783   0.0012165  -0.0182512   0.0132116
            7           8           9          10          11          12
    1  -0.0207343   0.0112836   0.0033121  -0.0009328  -0.0026537   0.0025328
    2  -0.0005600  -0.0046185  -0.0029907  -0.0061654   0.0055596  -0.0045960
    3  -0.0279368   0.0175801   0.0075462   0.0054794  -0.0003205   0.0008712
           13          14          15          16          17          18
    1  -0.0064768   0.0029292   0.0042994  -0.0002802  -0.0001732  -0.0015583
    2  -0.0025970  -0.0050967   0.0049188   0.0043400   0.0001384  -0.0014468
    3   0.0021375  -0.0072322  -0.0022773  -0.0021896  -0.0070600   0.0030775
           19          20          21          22          23          24
    1  -0.0018655   0.0029995  -0.0021117   0.0028093  -0.0029027  -0.0007344
    2  -0.0034712  -0.0003735  -0.0027506  -0.0026711   0.0016545  -0.0008707
    3  -0.0008345   0.0019010  -0.0016410  -0.0006410  -0.0004986   0.0037401
           25          26          27          28          29          30
    1   0.0031538  -0.0019773   0.0009392  -0.0011252   0.0017954  -0.0016657
    2   0.0000141   0.0021952   0.0017237  -0.0012291  -0.0010634   0.0000145
    3   0.0011346  -0.0000427  -0.0001977   0.0003464   0.0010781   0.0011035
           31          32          33          34          35
    1   0.0000871   0.0020047   0.0009817  -0.0009304  -0.0014359
    2  -0.0022536  -0.0004873   0.0011780  -0.0002898   0.0017552
    3  -0.0009569  -0.0002654   0.0015371  -0.0017604   0.0031765
 Max gradient component =       2.794E-02
 RMS gradient           =       7.257E-03
 Gradient time:  CPU 19.78 s  wall 0.83 s
 Geometry Optimization Parameters
   NAtoms,    NIC,     NZ,  NCons,   NDum,   NFix, NCnnct, MaxDiis
       35     275       0       2       0       0       0       0

 Cartesian Hessian Update
 Hessian Updated using BFGS Update


** CONSTRAINED OPTIMIZATION IN DELOCALIZED INTERNAL COORDINATES **
   Searching for a Minimum

   Optimization Cycle:   2

                       Coordinates (Angstroms)
     ATOM                X               Y               Z
      1  C         0.3307311076   -0.8626750046    0.4729505931
      2  C        -1.0524170980   -0.0251934064    0.6202535979
      3  C         1.5311643622   -0.0933962576   -0.1884428500
      4  C        -1.0502471316    1.3978650586   -0.0346082969
      5  O         2.7253141692   -0.7731275644    0.0481052269
      6  O         1.4624060966    0.8971572224   -0.9296683564
      7  O        -0.1850372280    2.2422969144    0.6611351333
      8  O        -1.7965013787    1.7947124895   -0.9426752151
      9  C        -0.2114886677    3.6142220687    0.1673688852
     10  C         3.8933813854   -0.0780755443   -0.4827640655
     11  C        -0.1016709837   -2.0656144764   -0.4780356266
     12  C        -0.4731169329   -1.4796433229   -1.8495030261
     13  C        -1.6449227947   -0.8363607457   -1.7134346092
     14  C        -2.0591370453   -0.9533068476   -0.2372242664
     15  C        -1.5217488017   -2.3786079795    0.0758304600
     16  C         0.8545144159   -1.4275049387    1.8365567256
     17  C        -1.5551818663    0.1338380833    2.0805770473
     18  H         0.0780374138    3.6589545483   -0.8985920190
     19  H         4.0253115197    0.9041735936    0.0061473687
     20  H        -2.1533397760   -0.2141172330   -2.4526823021
     21  H         0.5151613174    4.1716125217    0.7779679405
     22  H        -1.2170988699    4.0613479753    0.2716884661
     23  H         4.7589500552   -0.7228892195   -0.2641114919
     24  H         3.8101017867    0.0815867857   -1.5732838356
     25  H        -3.1117612046   -0.7460879575    0.0014467796
     26  H         0.6327442343   -2.8837956169   -0.4833644149
     27  H        -1.6465964982   -0.8368789725    2.5822356599
     28  H        -0.8682060715    0.7600053825    2.6662492895
     29  H        -2.5424726506    0.6151396294    2.0856362603
     30  H         1.7934551251   -1.9674287530    1.6586154029
     31  H         1.0596196531   -0.6201678488    2.5499414854
     32  H         0.1474114670   -2.1300009753    2.2947974017
     33  H        -2.0364732904   -3.1572187387   -0.5049665721
     34  H        -1.5501820266   -2.6472697475    1.1407213682
     35  H         0.1829562016   -1.4989748099   -2.7212519059
   Point Group: c1    Number of degrees of freedom:    99


   Energy is   -796.848357914

              Constraints and their Current Values
                                        Value     Constraint
   Dihedral:        1   2   4   8      119.321      119.300
   Dihedral:        2   1   3   6      -21.908      -21.900
 Hessian Updated using BFGS Update

   Using Lagrange Multiplier Algorithm


 85 Hessian modes will be used to form the next step
  Hessian Eigenvalues:
    -0.977753   -0.976114    0.044787    0.045000    0.045132    0.045211
     0.045260    0.045615    0.047604    0.052502    0.055567    0.065421
     0.067323    0.072927    0.073650    0.076543    0.076981    0.081375
     0.081969    0.082219    0.082527    0.083536    0.084353    0.084605
     0.085552    0.090807    0.092820    0.101066    0.104570    0.114773
     0.114922    0.115131    0.118192    0.118370    0.118903    0.134354
     0.138722    0.152461    0.156421    0.158494    0.159779    0.161721
     0.175041    0.210944    0.214972    0.240956    0.244599    0.246252
     0.249429    0.249988    0.250788    0.255438    0.272509    0.277475
     0.286244    0.294996    0.297315    0.327419    0.340862    0.342553
     0.342851    0.343259    0.343974    0.344226    0.344343    0.344582
     0.345228    0.345576    0.345799    0.346041    0.346518    0.347030
     0.347425    0.353686    0.356267    0.367042    0.399097    0.408238
     0.506871    0.522643    0.541112    0.981643    0.990656    1.022753
     1.040682

 Minimum Search - Taking P-RFO Step
 Searching for Lamda that Maximizes Along the Constraint modes Only
 Value Taken    Lamda =   0.00010047
 Searching for Lamda that Minimizes Along All other modes
 Value Taken    Lamda =  -0.01591225
 Calculated Step too Large.  Step scaled by  0.928578
 Step Taken.  Stepsize is  0.300000

                             Maximum     Tolerance    Cnvgd?
         Gradient            0.043491       0.000300      NO
         Displacement        0.123533       0.001200      NO
         Energy change     -0.028296       0.000001      NO


 New Cartesian Coordinates Obtained by Inverse Iteration

 Displacement from previous Coordinates is:  1.602822
 Adding empirical dispersion correction 
 ----------------------------------------------------------------
 Doing -D3(op) with
 s6 =   1.00000
 s8 =   0.78311
 a1 =   0.30000
 a2 =   4.25000
 n  =  10.00000
 -D3 energy without 3body term =     -0.0465428842 hartrees
 ----------------------------------------------------------------
             Standard Nuclear Orientation (Angstroms)
    I     Atom           X                Y                Z
 ----------------------------------------------------------------
    1      C       0.3014151286    -0.8931111899     0.5163715357
    2      C      -1.0730567183    -0.0683036796     0.6211037670
    3      C       1.4528869754    -0.0516432990    -0.1720109913
    4      C      -0.9819605881     1.3771198378    -0.0252770284
    5      O       2.7138516458    -0.6770310186     0.0759049752
    6      O       1.3029233941     0.9369587460    -0.9346989116
    7      O      -0.0737667632     2.1643485000     0.7474402439
    8      O      -1.6625645394     1.8216735117    -0.9829521995
    9      C      -0.0042712162     3.5318726968     0.1909153604
   10      C       3.7909474166     0.1058194982    -0.5676962668
   11      C      -0.1057319586    -2.1134672720    -0.4442063911
   12      C      -0.4502756862    -1.5177520399    -1.8310311282
   13      C      -1.6175890279    -0.8620755752    -1.7210806285
   14      C      -2.0748815304    -0.9804050594    -0.2486342360
   15      C      -1.5515095835    -2.4216012616     0.0841943575
   16      C       0.8187290848    -1.4448804313     1.8938371889
   17      C      -1.6194451853     0.1096381031     2.0773861891
   18      H       0.3491821313     3.5295694733    -0.8632445700
   19      H       3.8664165402     1.1306587052    -0.1432024232
   20      H      -2.1139681036    -0.2370137720    -2.4736723860
   21      H       0.7194614036     4.0852272912     0.8204564591
   22      H      -0.9914420180     4.0432086720     0.2246983920
   23      H       4.7304228802    -0.4453033233    -0.3679008766
   24      H       3.6397849640     0.1961198908    -1.6658696674
   25      H      -3.1374374487    -0.7623897909    -0.0423447890
   26      H       0.6351745798    -2.9330806778    -0.4395786627
   27      H      -1.7530086462    -0.8585582568     2.5812280813
   28      H      -0.9317457710     0.7281903758     2.6744394216
   29      H      -2.5972041259     0.6168454419     2.0387403732
   30      H       1.7749939948    -1.9637556546     1.7271928690
   31      H       0.9931716273    -0.6221747658     2.6042315097
   32      H       0.1100146864    -2.1557191821     2.3413041784
   33      H      -2.0595132405    -3.2001857613    -0.5096965220
   34      H      -1.6016685039    -2.6860504530     1.1524406700
   35      H       0.2253241963    -1.5481719673    -2.6951716551
 ----------------------------------------------------------------
 Molecular Point Group                 C1    NOp =  1
 Largest Abelian Subgroup              C1    NOp =  1
 Nuclear Repulsion Energy =  1364.3397049838 hartrees
 There are       64 alpha and       64 beta electrons
 Applying Cartesian multipole field
    Component          Value
    ---------          -----
     (2,0,0)        1.00000E-11
     (0,2,0)        2.00000E-11
     (0,0,2)       -3.00000E-11
 Nucleus-field energy     =     0.0000000207 hartrees
 Requested basis set is STO-3G
 There are 52 shells and 103 basis functions
 A cutoff of  1.0D-12 yielded   1234 shell pairs
 There are      5260 function pairs
 Smallest overlap matrix eigenvalue = 1.89E-01
 Guess MOs from SCF MO coefficient file
 Reading MOs from coefficient file
 Reading MOs from coefficient file
 A restricted hybrid HF-DFT SCF calculation will be
 performed using Pulay DIIS extrapolation
 Exchange:     0.2000 Hartree-Fock + 0.0800 Slater + 0.7200 B88
 Correlation:  0.1900 VWN1RPA + 0.8100 LYP
 Using SG-1 standard quadrature grid
 Dispersion:   Grimme D3
 SCF converges when DIIS error is below 1.0E-08
 Geometry optimization detected.  Setting ReadMinima to 0
 Setting SaveMinima to 0
 -------------------------------------------------------
 OpenMP Integral computing Module                
 Release: version 1.0, May 2013, Q-Chem Inc. Pittsburgh 
 -------------------------------------------------------
 -------------------------------------------------------
 OpenMP BLAS3 based DFT computing Module                
 Release: version 1.0, May 2013, Q-Chem Inc. Pittsburgh 
 -------------------------------------------------------
 ---------------------------------------
  Cycle       Energy         DIIS Error
 ---------------------------------------
    1    -796.7354819474      5.69E-03
    2    -796.8518731348      1.42E-03
    3    -796.8452617089      2.57E-03
    4    -796.8548183354      4.29E-04
    5    -796.8551045609      1.15E-04
    6    -796.8551251487      2.70E-05
    7    -796.8551258457      1.88E-05
    8    -796.8551263518      6.08E-06
    9    -796.8551264071      1.56E-06
   10    -796.8551264103      6.90E-07
   11    -796.8551264112      1.14E-07
   12    -796.8551264112      3.41E-08
   13    -796.8551264113      1.03E-08
   14    -796.8551264113      4.10E-09 Convergence criterion met
 ---------------------------------------
 SCF time:  CPU 73.14 s  wall 3.08 s
 SCF   energy in the final basis set = -796.8551264113
 Total energy in the final basis set = -796.8551264113
 
 --------------------------------------------------------------
 
                    Orbital Energies (a.u.)
 --------------------------------------------------------------
 
 Alpha MOs
 -- Occupied --
-18.938 -18.917 -18.873 -18.853 -10.093 -10.082 -10.066 -10.052
-10.036 -10.031 -10.023 -10.018 -10.011 -10.009 -10.007  -9.981
 -9.978  -1.012  -0.993  -0.933  -0.918  -0.830  -0.738  -0.713
 -0.666  -0.657  -0.650  -0.635  -0.619  -0.544  -0.527  -0.499
 -0.485  -0.463  -0.455  -0.439  -0.416  -0.409  -0.401  -0.391
 -0.389  -0.375  -0.365  -0.362  -0.359  -0.351  -0.344  -0.338
 -0.331  -0.315  -0.306  -0.299  -0.295  -0.279  -0.275  -0.267
 -0.253  -0.251  -0.237  -0.183  -0.174  -0.159  -0.145  -0.134
 -- Virtual --
  0.100   0.120   0.123   0.243   0.268   0.290   0.313   0.317
  0.339   0.346   0.360   0.372   0.381   0.395   0.401   0.408
  0.414   0.418   0.423   0.427   0.429   0.432   0.437   0.442
  0.449   0.451   0.458   0.465   0.489   0.501   0.509   0.512
  0.516   0.530   0.537   0.585   0.638   0.652   0.763
 --------------------------------------------------------------
 
          Ground-State Mulliken Net Atomic Charges

     Atom                 Charge (a.u.)
  ----------------------------------------
      1 C                     0.011695
      2 C                     0.009745
      3 C                     0.208707
      4 C                     0.213169
      5 O                    -0.169119
      6 O                    -0.210551
      7 O                    -0.177011
      8 O                    -0.220467
      9 C                    -0.125266
     10 C                    -0.126086
     11 C                    -0.057596
     12 C                    -0.095663
     13 C                    -0.082049
     14 C                    -0.055420
     15 C                    -0.128236
     16 C                    -0.220541
     17 C                    -0.219393
     18 H                     0.092040
     19 H                     0.088127
     20 H                     0.086930
     21 H                     0.084083
     22 H                     0.083642
     23 H                     0.089684
     24 H                     0.089641
     25 H                     0.072544
     26 H                     0.073321
     27 H                     0.074445
     28 H                     0.082167
     29 H                     0.076092
     30 H                     0.085114
     31 H                     0.077184
     32 H                     0.073014
     33 H                     0.075192
     34 H                     0.066832
     35 H                     0.074030
  ----------------------------------------
  Sum of atomic charges =    -0.000000

 -----------------------------------------------------------------
                    Cartesian Multipole Moments
 -----------------------------------------------------------------
    Charge (ESU x 10^10)
                 0.0000
    Dipole Moment (Debye)
         X       1.3459      Y      -0.5012      Z       1.1797
       Tot       1.8586
    Quadrupole Moments (Debye-Ang)
        XX     -87.9378     XY       2.3972     YY     -90.2242
        XZ      -3.9986     YZ       1.6255     ZZ     -93.8138
    Octopole Moments (Debye-Ang^2)
       XXX      37.5180    XXY       8.9026    XYY       6.3549
       YYY      42.5896    XXZ      -3.6957    XYZ       0.4281
       YYZ       5.1023    XZZ       6.0138    YZZ       4.0693
       ZZZ      -7.8275
    Hexadecapole Moments (Debye-Ang^3)
      XXXX   -1536.7399   XXXY     -37.4904   XXYY    -550.7512
      XYYY     -39.0735   YYYY   -1513.8909   XXXZ      -2.8414
      XXYZ       5.2524   XYYZ      -0.1719   YYYZ      -9.6735
      XXZZ    -413.7319   XYZZ     -13.1896   YYZZ    -409.9732
      XZZZ      21.3254   YZZZ     -19.6194   ZZZZ    -797.9007
 -----------------------------------------------------------------
 Calculating analytic gradient of the SCF energy
 Gradient of SCF Energy
            1           2           3           4           5           6
    1  -0.0053774   0.0048624   0.0073980   0.0065496  -0.0004414  -0.0045446
    2   0.0008014   0.0028959  -0.0000271  -0.0007814  -0.0036000   0.0089948
    3  -0.0074570   0.0054821   0.0099787   0.0077950  -0.0014191  -0.0040314
            7           8           9          10          11          12
    1   0.0036431  -0.0067910  -0.0002880  -0.0036099   0.0016901  -0.0014237
    2  -0.0071566   0.0031615  -0.0026961  -0.0011745   0.0008485  -0.0014430
    3  -0.0064736  -0.0080401   0.0010406   0.0027309   0.0009797  -0.0000139
           13          14          15          16          17          18
    1  -0.0021153   0.0002874   0.0005431  -0.0028340  -0.0003467   0.0002383
    2  -0.0016298  -0.0014339  -0.0008992  -0.0017350  -0.0006333   0.0011050
    3  -0.0002809  -0.0023685   0.0025912   0.0027337  -0.0009339  -0.0019009
           19          20          21          22          23          24
    1   0.0006063   0.0005200   0.0009475  -0.0015728   0.0010905   0.0002629
    2   0.0019781   0.0017192   0.0007483   0.0011977  -0.0006350   0.0007398
    3   0.0001868  -0.0006549   0.0005593  -0.0004240   0.0002163  -0.0020882
           25          26          27          28          29          30
    1  -0.0009388   0.0011882   0.0000467   0.0005731  -0.0009381   0.0002848
    2   0.0006670  -0.0006722  -0.0003002   0.0002036   0.0002593  -0.0002285
    3   0.0010714  -0.0008245   0.0009771   0.0005460   0.0000215  -0.0003922
           31          32          33          34          35
    1  -0.0000217   0.0004042  -0.0004523  -0.0007287   0.0012883
    2   0.0007769  -0.0007867  -0.0007909  -0.0009235   0.0014499
    3   0.0004951   0.0005113  -0.0001073   0.0002437  -0.0007498
 Max gradient component =       9.979E-03
 RMS gradient           =       2.910E-03
 Gradient time:  CPU 19.83 s  wall 0.83 s
 Geometry Optimization Parameters
   NAtoms,    NIC,     NZ,  NCons,   NDum,   NFix, NCnnct, MaxDiis
       35     275       0       2       0       0       0       0

 Cartesian Hessian Update
 Hessian Updated using BFGS Update


** CONSTRAINED OPTIMIZATION IN DELOCALIZED INTERNAL COORDINATES **
   Searching for a Minimum

   Optimization Cycle:   3

                       Coordinates (Angstroms)
     ATOM                X               Y               Z
      1  C         0.3014151286   -0.8931111899    0.5163715357
      2  C        -1.0730567183   -0.0683036796    0.6211037670
      3  C         1.4528869754   -0.0516432990   -0.1720109913
      4  C        -0.9819605881    1.3771198378   -0.0252770284
      5  O         2.7138516458   -0.6770310186    0.0759049752
      6  O         1.3029233941    0.9369587460   -0.9346989116
      7  O        -0.0737667632    2.1643485000    0.7474402439
      8  O        -1.6625645394    1.8216735117   -0.9829521995
      9  C        -0.0042712162    3.5318726968    0.1909153604
     10  C         3.7909474166    0.1058194982   -0.5676962668
     11  C        -0.1057319586   -2.1134672720   -0.4442063911
     12  C        -0.4502756862   -1.5177520399   -1.8310311282
     13  C        -1.6175890279   -0.8620755752   -1.7210806285
     14  C        -2.0748815304   -0.9804050594   -0.2486342360
     15  C        -1.5515095835   -2.4216012616    0.0841943575
     16  C         0.8187290848   -1.4448804313    1.8938371889
     17  C        -1.6194451853    0.1096381031    2.0773861891
     18  H         0.3491821313    3.5295694733   -0.8632445700
     19  H         3.8664165402    1.1306587052   -0.1432024232
     20  H        -2.1139681036   -0.2370137720   -2.4736723860
     21  H         0.7194614036    4.0852272912    0.8204564591
     22  H        -0.9914420180    4.0432086720    0.2246983920
     23  H         4.7304228802   -0.4453033233   -0.3679008766
     24  H         3.6397849640    0.1961198908   -1.6658696674
     25  H        -3.1374374487   -0.7623897909   -0.0423447890
     26  H         0.6351745798   -2.9330806778   -0.4395786627
     27  H        -1.7530086462   -0.8585582568    2.5812280813
     28  H        -0.9317457710    0.7281903758    2.6744394216
     29  H        -2.5972041259    0.6168454419    2.0387403732
     30  H         1.7749939948   -1.9637556546    1.7271928690
     31  H         0.9931716273   -0.6221747658    2.6042315097
     32  H         0.1100146864   -2.1557191821    2.3413041784
     33  H        -2.0595132405   -3.2001857613   -0.5096965220
     34  H        -1.6016685039   -2.6860504530    1.1524406700
     35  H         0.2253241963   -1.5481719673   -2.6951716551
   Point Group: c1    Number of degrees of freedom:    99


   Energy is   -796.855126411

              Constraints and their Current Values
                                        Value     Constraint
   Dihedral:        1   2   4   8      119.300      119.300
   Dihedral:        2   1   3   6      -21.909      -21.900
 Hessian Updated using BFGS Update

   Using Lagrange Multiplier Algorithm


 88 Hessian modes will be used to form the next step
  Hessian Eigenvalues:
    -0.977752   -0.975065    0.039127    0.045000    0.045001    0.045132
     0.045187    0.045260    0.045488    0.048051    0.051761    0.055577
     0.064955    0.067382    0.072096    0.073086    0.076352    0.076951
     0.081363    0.082028    0.082193    0.082525    0.083538    0.084410
     0.084971    0.090003    0.091227    0.092535    0.101624    0.106690
     0.114547    0.114911    0.115202    0.118194    0.118369    0.120827
     0.135018    0.138049    0.156376    0.158110    0.159351    0.159522
     0.161665    0.163976    0.175554    0.210700    0.233432    0.243639
     0.244818    0.247133    0.249952    0.249990    0.250259    0.253997
     0.272435    0.276806    0.284997    0.290989    0.294308    0.299820
     0.339595    0.342543    0.342839    0.343227    0.343694    0.344025
     0.344247    0.344336    0.344678    0.345381    0.345794    0.346013
     0.346243    0.346781    0.347303    0.347423    0.354131    0.356389
     0.367077    0.396480    0.404229    0.487720    0.514694    0.542661
     0.990175    1.022741    1.027900    1.058354

 Minimum Search - Taking P-RFO Step
 Searching for Lamda that Maximizes Along the Constraint modes Only
 Value Taken    Lamda =   0.00007050
 Searching for Lamda that Minimizes Along All other modes
 Value Taken    Lamda =  -0.00546523
 Step Taken.  Stepsize is  0.279994

                             Maximum     Tolerance    Cnvgd?
         Gradient            0.012396       0.000300      NO
         Displacement        0.103821       0.001200      NO
         Energy change     -0.006768       0.000001      NO


 New Cartesian Coordinates Obtained by Inverse Iteration

 Displacement from previous Coordinates is:  1.225907
 Adding empirical dispersion correction 
 ----------------------------------------------------------------
 Doing -D3(op) with
 s6 =   1.00000
 s8 =   0.78311
 a1 =   0.30000
 a2 =   4.25000
 n  =  10.00000
 -D3 energy without 3body term =     -0.0465040024 hartrees
 ----------------------------------------------------------------
             Standard Nuclear Orientation (Angstroms)
    I     Atom           X                Y                Z
 ----------------------------------------------------------------
    1      C       0.3180154322    -0.8904978358     0.5302199881
    2      C      -1.0638396398    -0.0623508728     0.5954606342
    3      C       1.4573776224    -0.0903279052    -0.2128403501
    4      C      -0.9489360991     1.3967765274    -0.0218605559
    5      O       2.7302866300    -0.6921543228     0.0744290693
    6      O       1.3055809852     0.8494912917    -1.0312342557
    7      O      -0.1469756405     2.1981561562     0.8665867694
    8      O      -1.5882936397     1.8612091794    -0.9936102904
    9      C      -0.0778761801     3.5798451102     0.3360445399
   10      C       3.7875862903     0.0305515075    -0.6748336622
   11      C      -0.0887583860    -2.1310764731    -0.4087597607
   12      C      -0.3969185181    -1.5570069296    -1.8140990701
   13      C      -1.5535984081    -0.8801374306    -1.7422870689
   14      C      -2.0491497254    -0.9707614980    -0.2807761062
   15      C      -1.5487939013    -2.4099226131     0.0892026580
   16      C       0.8370220693    -1.3944719203     1.9188437504
   17      C      -1.6472523570     0.1302842506     2.0370235219
   18      H       0.3833878953     3.6029421704    -0.6732803879
   19      H       3.8608792267     1.0914207277    -0.3571558374
   20      H      -2.0337772571    -0.2721016904    -2.5178496346
   21      H       0.5530490558     4.1508203478     1.0432607282
   22      H      -1.0826488199     4.0484127954     0.2763769572
   23      H       4.7356029951    -0.4908767590    -0.4437219881
   24      H       3.6050071061     0.0038159054    -1.7694101233
   25      H      -3.1150544654    -0.7458130394    -0.1063504653
   26      H       0.6414129718    -2.9581932326    -0.3738548195
   27      H      -1.8028962591    -0.8350036783     2.5389514487
   28      H      -0.9709096312     0.7488847656     2.6454206546
   29      H      -2.6181922239     0.6450456667     1.9646380030
   30      H       1.7921699396    -1.9217685190     1.7705213638
   31      H       1.0139012256    -0.5483025753     2.5996184679
   32      H       0.1196705409    -2.0829292493     2.3857601540
   33      H      -2.0505647147    -3.1924717214    -0.5035374658
   34      H      -1.6242334099    -2.6503795770     1.1614190086
   35      H       0.2913792849    -1.6265322463    -2.6646996368
 ----------------------------------------------------------------
 Molecular Point Group                 C1    NOp =  1
 Largest Abelian Subgroup              C1    NOp =  1
 Nuclear Repulsion Energy =  1361.1678454445 hartrees
 There are       64 alpha and       64 beta electrons
 Applying Cartesian multipole field
    Component          Value
    ---------          -----
     (2,0,0)        1.00000E-11
     (0,2,0)        2.00000E-11
     (0,0,2)       -3.00000E-11
 Nucleus-field energy     =     0.0000000204 hartrees
 Requested basis set is STO-3G
 There are 52 shells and 103 basis functions
 A cutoff of  1.0D-12 yielded   1232 shell pairs
 There are      5252 function pairs
 Smallest overlap matrix eigenvalue = 1.89E-01
 Guess MOs from SCF MO coefficient file
 Reading MOs from coefficient file
 Reading MOs from coefficient file
 A restricted hybrid HF-DFT SCF calculation will be
 performed using Pulay DIIS extrapolation
 Exchange:     0.2000 Hartree-Fock + 0.0800 Slater + 0.7200 B88
 Correlation:  0.1900 VWN1RPA + 0.8100 LYP
 Using SG-1 standard quadrature grid
 Dispersion:   Grimme D3
 SCF converges when DIIS error is below 1.0E-08
 Geometry optimization detected.  Setting ReadMinima to 0
 Setting SaveMinima to 0
 -------------------------------------------------------
 OpenMP Integral computing Module                
 Release: version 1.0, May 2013, Q-Chem Inc. Pittsburgh 
 -------------------------------------------------------
 -------------------------------------------------------
 OpenMP BLAS3 based DFT computing Module                
 Release: version 1.0, May 2013, Q-Chem Inc. Pittsburgh 
 -------------------------------------------------------
 ---------------------------------------
  Cycle       Energy         DIIS Error
 ---------------------------------------
    1    -796.8277896493      4.24E-03
    2    -796.8567389732      5.93E-04
    3    -796.8549527683      1.27E-03
    4    -796.8574117340      1.24E-04
    5    -796.8574352167      4.27E-05
    6    -796.8574373123      2.62E-05
    7    -796.8574382652      8.38E-06
    8    -796.8574383715      2.98E-06
    9    -796.8574383857      8.61E-07
   10    -796.8574383871      3.74E-07
   11    -796.8574383873      7.86E-08
   12    -796.8574383874      3.13E-08
   13    -796.8574383875      2.81E-09 Convergence criterion met
 ---------------------------------------
 SCF time:  CPU 67.94 s  wall 2.86 s
 SCF   energy in the final basis set = -796.8574383875
 Total energy in the final basis set = -796.8574383875
 
 --------------------------------------------------------------
 
                    Orbital Energies (a.u.)
 --------------------------------------------------------------
 
 Alpha MOs
 -- Occupied --
-18.936 -18.915 -18.875 -18.855 -10.094 -10.081 -10.065 -10.052
-10.037 -10.032 -10.023 -10.019 -10.012 -10.008 -10.008  -9.982
 -9.979  -1.010  -0.992  -0.934  -0.919  -0.831  -0.739  -0.715
 -0.666  -0.657  -0.649  -0.636  -0.620  -0.544  -0.527  -0.499
 -0.486  -0.463  -0.454  -0.439  -0.416  -0.410  -0.402  -0.391
 -0.389  -0.375  -0.366  -0.364  -0.358  -0.351  -0.344  -0.338
 -0.331  -0.316  -0.307  -0.299  -0.295  -0.281  -0.276  -0.267
 -0.254  -0.251  -0.238  -0.183  -0.173  -0.160  -0.150  -0.135
 -- Virtual --
  0.098   0.120   0.123   0.242   0.265   0.291   0.310   0.316
  0.336   0.344   0.359   0.372   0.380   0.394   0.402   0.408
  0.413   0.420   0.423   0.428   0.429   0.434   0.438   0.441
  0.449   0.452   0.458   0.465   0.489   0.501   0.511   0.512
  0.519   0.527   0.536   0.584   0.639   0.654   0.764
 --------------------------------------------------------------
 
          Ground-State Mulliken Net Atomic Charges

     Atom                 Charge (a.u.)
  ----------------------------------------
      1 C                     0.011575
      2 C                     0.010624
      3 C                     0.208588
      4 C                     0.210979
      5 O                    -0.167977
      6 O                    -0.210753
      7 O                    -0.177838
      8 O                    -0.219193
      9 C                    -0.128338
     10 C                    -0.128362
     11 C                    -0.058213
     12 C                    -0.095265
     13 C                    -0.081634
     14 C                    -0.056060
     15 C                    -0.128041
     16 C                    -0.220979
     17 C                    -0.219871
     18 H                     0.090979
     19 H                     0.088920
     20 H                     0.086751
     21 H                     0.084245
     22 H                     0.085035
     23 H                     0.089708
     24 H                     0.089760
     25 H                     0.073271
     26 H                     0.073448
     27 H                     0.073312
     28 H                     0.084030
     29 H                     0.076001
     30 H                     0.085992
     31 H                     0.078658
     32 H                     0.073953
     33 H                     0.075545
     34 H                     0.066906
     35 H                     0.074241
  ----------------------------------------
  Sum of atomic charges =    -0.000000

 -----------------------------------------------------------------
                    Cartesian Multipole Moments
 -----------------------------------------------------------------
    Charge (ESU x 10^10)
                 0.0000
    Dipole Moment (Debye)
         X       1.2521      Y      -0.5952      Z       1.1462
       Tot       1.7989
    Quadrupole Moments (Debye-Ang)
        XX     -87.7100     XY       2.1287     YY     -90.0836
        XZ      -4.0406     YZ       1.9632     ZZ     -94.1994
    Octopole Moments (Debye-Ang^2)
       XXX      33.8392    XXY       8.6486    XYY       5.7014
       YYY      43.7741    XXZ      -5.4052    XYZ       0.6711
       YYZ       5.9116    XZZ       5.5162    YZZ       3.2953
       ZZZ      -7.5738
    Hexadecapole Moments (Debye-Ang^3)
      XXXX   -1523.2667   XXXY     -21.8615   XXYY    -550.6181
      XYYY     -20.2965   YYYY   -1529.6261   XXXZ       8.6892
      XXYZ      -1.4111   XYYZ       4.4130   YYYZ     -23.9038
      XXZZ    -413.5805   XYZZ      -6.8548   YYZZ    -415.6598
      XZZZ      36.6018   YZZZ     -36.4581   ZZZZ    -814.8505
 -----------------------------------------------------------------
 Calculating analytic gradient of the SCF energy
 Gradient of SCF Energy
            1           2           3           4           5           6
    1  -0.0001680   0.0002040   0.0005973   0.0054275   0.0022826  -0.0004475
    2   0.0009038  -0.0015569   0.0006844  -0.0004274  -0.0063317   0.0024805
    3  -0.0020252   0.0005453   0.0028666   0.0000383   0.0027366  -0.0058139
            7           8           9          10          11          12
    1   0.0010010  -0.0054663  -0.0014913  -0.0010841   0.0025241  -0.0022745
    2  -0.0019701   0.0024478   0.0003322   0.0015511   0.0000398  -0.0002047
    3   0.0040537  -0.0026937  -0.0012425  -0.0001425   0.0007515   0.0005666
           13          14          15          16          17          18
    1  -0.0002735  -0.0002929  -0.0001627  -0.0020745  -0.0012576   0.0003364
    2  -0.0005710  -0.0009265  -0.0001352  -0.0014723   0.0017741   0.0001061
    3  -0.0004526   0.0000812   0.0016052   0.0023183  -0.0006571  -0.0005029
           19          20          21          22          23          24
    1   0.0001826   0.0001459   0.0003225  -0.0005309   0.0005301   0.0000233
    2   0.0006254   0.0009495   0.0004157   0.0005657  -0.0002839   0.0000900
    3   0.0000246  -0.0001446   0.0002594   0.0001269   0.0001217  -0.0007483
           25          26          27          28          29          30
    1  -0.0005513   0.0009054   0.0001933   0.0004375  -0.0003354   0.0008172
    2  -0.0001380  -0.0000575  -0.0002373   0.0004675   0.0001591  -0.0000322
    3   0.0007780  -0.0008985   0.0000539  -0.0000173  -0.0003662  -0.0004956
           31          32          33          34          35
    1   0.0000377   0.0000120  -0.0000135  -0.0003690   0.0008129
    2   0.0003761  -0.0000403  -0.0001933  -0.0002934   0.0009029
    3  -0.0000602  -0.0002154  -0.0004090   0.0000952  -0.0001375
 Max gradient component =       6.332E-03
 RMS gradient           =       1.558E-03
 Gradient time:  CPU 20.17 s  wall 0.85 s
 Geometry Optimization Parameters
   NAtoms,    NIC,     NZ,  NCons,   NDum,   NFix, NCnnct, MaxDiis
       35     275       0       2       0       0       0       0

 Cartesian Hessian Update
 Hessian Updated using BFGS Update


** CONSTRAINED OPTIMIZATION IN DELOCALIZED INTERNAL COORDINATES **
   Searching for a Minimum

   Optimization Cycle:   4

                       Coordinates (Angstroms)
     ATOM                X               Y               Z
      1  C         0.3180154322   -0.8904978358    0.5302199881
      2  C        -1.0638396398   -0.0623508728    0.5954606342
      3  C         1.4573776224   -0.0903279052   -0.2128403501
      4  C        -0.9489360991    1.3967765274   -0.0218605559
      5  O         2.7302866300   -0.6921543228    0.0744290693
      6  O         1.3055809852    0.8494912917   -1.0312342557
      7  O        -0.1469756405    2.1981561562    0.8665867694
      8  O        -1.5882936397    1.8612091794   -0.9936102904
      9  C        -0.0778761801    3.5798451102    0.3360445399
     10  C         3.7875862903    0.0305515075   -0.6748336622
     11  C        -0.0887583860   -2.1310764731   -0.4087597607
     12  C        -0.3969185181   -1.5570069296   -1.8140990701
     13  C        -1.5535984081   -0.8801374306   -1.7422870689
     14  C        -2.0491497254   -0.9707614980   -0.2807761062
     15  C        -1.5487939013   -2.4099226131    0.0892026580
     16  C         0.8370220693   -1.3944719203    1.9188437504
     17  C        -1.6472523570    0.1302842506    2.0370235219
     18  H         0.3833878953    3.6029421704   -0.6732803879
     19  H         3.8608792267    1.0914207277   -0.3571558374
     20  H        -2.0337772571   -0.2721016904   -2.5178496346
     21  H         0.5530490558    4.1508203478    1.0432607282
     22  H        -1.0826488199    4.0484127954    0.2763769572
     23  H         4.7356029951   -0.4908767590   -0.4437219881
     24  H         3.6050071061    0.0038159054   -1.7694101233
     25  H        -3.1150544654   -0.7458130394   -0.1063504653
     26  H         0.6414129718   -2.9581932326   -0.3738548195
     27  H        -1.8028962591   -0.8350036783    2.5389514487
     28  H        -0.9709096312    0.7488847656    2.6454206546
     29  H        -2.6181922239    0.6450456667    1.9646380030
     30  H         1.7921699396   -1.9217685190    1.7705213638
     31  H         1.0139012256   -0.5483025753    2.5996184679
     32  H         0.1196705409   -2.0829292493    2.3857601540
     33  H        -2.0505647147   -3.1924717214   -0.5035374658
     34  H        -1.6242334099   -2.6503795770    1.1614190086
     35  H         0.2913792849   -1.6265322463   -2.6646996368
   Point Group: c1    Number of degrees of freedom:    99


   Energy is   -796.857438388

              Constraints and their Current Values
                                        Value     Constraint
   Dihedral:        1   2   4   8      119.300      119.300
   Dihedral:        2   1   3   6      -21.899      -21.900
 Hessian Updated using BFGS Update

   Using Lagrange Multiplier Algorithm


 91 Hessian modes will be used to form the next step
  Hessian Eigenvalues:
    -0.977468   -0.972263    0.033249    0.045000    0.045001    0.045026
     0.045131    0.045178    0.045258    0.045468    0.051199    0.051588
     0.055567    0.065179    0.067695    0.072460    0.073132    0.076933
     0.076947    0.081334    0.081978    0.082190    0.082533    0.083543
     0.084424    0.084915    0.090325    0.091449    0.092918    0.101564
     0.108978    0.114853    0.114951    0.118167    0.118350    0.118369
     0.123098    0.135145    0.138808    0.156393    0.158110    0.159446
     0.159941    0.160161    0.161537    0.166304    0.181719    0.210454
     0.239810    0.244438    0.247052    0.247489    0.249951    0.249990
     0.250132    0.252669    0.253924    0.272432    0.276665    0.285076
     0.292654    0.295841    0.302068    0.340992    0.342491    0.342826
     0.343243    0.343948    0.344226    0.344333    0.344557    0.345161
     0.345512    0.345784    0.346033    0.346437    0.346813    0.347414
     0.349198    0.354419    0.357175    0.370441    0.399537    0.408775
     0.495422    0.516928    0.540515    0.990188    1.020211    1.024019
     1.033906

 Minimum Search - Taking P-RFO Step
 Searching for Lamda that Maximizes Along the Constraint modes Only
 Value Taken    Lamda =   0.00001291
 Searching for Lamda that Minimizes Along All other modes
 Value Taken    Lamda =  -0.00094178
 Step Taken.  Stepsize is  0.103826

                             Maximum     Tolerance    Cnvgd?
         Gradient            0.009391       0.000300      NO
         Displacement        0.040121       0.001200      NO
         Energy change     -0.002312       0.000001      NO


 New Cartesian Coordinates Obtained by Inverse Iteration

 Displacement from previous Coordinates is:  0.406703
 Adding empirical dispersion correction 
 ----------------------------------------------------------------
 Doing -D3(op) with
 s6 =   1.00000
 s8 =   0.78311
 a1 =   0.30000
 a2 =   4.25000
 n  =  10.00000
 -D3 energy without 3body term =     -0.0465771423 hartrees
 ----------------------------------------------------------------
             Standard Nuclear Orientation (Angstroms)
    I     Atom           X                Y                Z
 ----------------------------------------------------------------
    1      C       0.3088731169    -0.8925407301     0.5377166574
    2      C      -1.0745960971    -0.0680572332     0.5952222769
    3      C       1.4353927150    -0.0787318304    -0.2093607374
    4      C      -0.9466676824     1.3923915134    -0.0153226463
    5      O       2.7236549830    -0.6408263166     0.0758225777
    6      O       1.2646510731     0.8550356495    -1.0265586385
    7      O      -0.1440666877     2.1903557076     0.8761451949
    8      O      -1.5706576449     1.8635810333    -0.9900458170
    9      C      -0.0255885208     3.5655812950     0.3424895809
   10      C       3.7719770368     0.0743723239    -0.6920867239
   11      C      -0.0974763284    -2.1385343259    -0.3987902866
   12      C      -0.3921908890    -1.5760747258    -1.8107571755
   13      C      -1.5461257887    -0.8925923731    -1.7500553267
   14      C      -2.0535512171    -0.9717225766    -0.2913712073
   15      C      -1.5603632787    -2.4099605382     0.0878043647
   16      C       0.8344382068    -1.3863850905     1.9249577079
   17      C      -1.6602969211     0.1107965049     2.0383610287
   18      H       0.4588097681     3.5697400191    -0.6552880227
   19      H       3.8317772316     1.1429244880    -0.4014342689
   20      H      -2.0225123790    -0.2950087449    -2.5348469992
   21      H       0.6029355208     4.1231276414     1.0612729287
   22      H      -1.0157406663     4.0582083076     0.2560585096
   23      H       4.7261777269    -0.4285707741    -0.4496104789
   24      H       3.5878723211     0.0170125283    -1.7842030321
   25      H      -3.1198539457    -0.7447261492    -0.1282719663
   26      H       0.6273740434    -2.9686029992    -0.3519143894
   27      H      -1.8179830745    -0.8593824638     2.5294364000
   28      H      -0.9860946078     0.7213832928     2.6557970160
   29      H      -2.6305808956     0.6264823454     1.9723247191
   30      H       1.7905011331    -1.9104933889     1.7806904952
   31      H       1.0080966294    -0.5374483112     2.6025716164
   32      H       0.1211874744    -2.0755319596     2.3974571060
   33      H      -2.0595146077    -3.1945633332    -0.5035017335
   34      H      -1.6431795881    -2.6430863621     1.1609052480
   35      H       0.2969818347    -1.6635761107    -2.6579977395
 ----------------------------------------------------------------
 Molecular Point Group                 C1    NOp =  1
 Largest Abelian Subgroup              C1    NOp =  1
 Nuclear Repulsion Energy =  1362.5838204265 hartrees
 There are       64 alpha and       64 beta electrons
 Applying Cartesian multipole field
    Component          Value
    ---------          -----
     (2,0,0)        1.00000E-11
     (0,2,0)        2.00000E-11
     (0,0,2)       -3.00000E-11
 Nucleus-field energy     =     0.0000000202 hartrees
 Requested basis set is STO-3G
 There are 52 shells and 103 basis functions
 A cutoff of  1.0D-12 yielded   1232 shell pairs
 There are      5252 function pairs
 Smallest overlap matrix eigenvalue = 1.89E-01
 Guess MOs from SCF MO coefficient file
 Reading MOs from coefficient file
 Reading MOs from coefficient file
 A restricted hybrid HF-DFT SCF calculation will be
 performed using Pulay DIIS extrapolation
 Exchange:     0.2000 Hartree-Fock + 0.0800 Slater + 0.7200 B88
 Correlation:  0.1900 VWN1RPA + 0.8100 LYP
 Using SG-1 standard quadrature grid
 Dispersion:   Grimme D3
 SCF converges when DIIS error is below 1.0E-08
 Geometry optimization detected.  Setting ReadMinima to 0
 Setting SaveMinima to 0
 -------------------------------------------------------
 OpenMP Integral computing Module                
 Release: version 1.0, May 2013, Q-Chem Inc. Pittsburgh 
 -------------------------------------------------------
 -------------------------------------------------------
 OpenMP BLAS3 based DFT computing Module                
 Release: version 1.0, May 2013, Q-Chem Inc. Pittsburgh 
 -------------------------------------------------------
 ---------------------------------------
  Cycle       Energy         DIIS Error
 ---------------------------------------
    1    -796.8656934238      1.31E-03
    2    -796.8579859943      1.63E-04
    3    -796.8579593402      2.26E-04
    4    -796.8580369930      2.98E-05
    5    -796.8580367842      3.24E-05
    6    -796.8580383769      4.00E-06
    7    -796.8580384040      9.37E-07
    8    -796.8580384053      5.05E-07
    9    -796.8580384056      2.01E-07
   10    -796.8580384057      9.15E-08
   11    -796.8580384057      2.63E-08
   12    -796.8580384058      1.07E-08
   13    -796.8580384057      2.12E-09 Convergence criterion met
 ---------------------------------------
 SCF time:  CPU 67.55 s  wall 2.84 s
 SCF   energy in the final basis set = -796.8580384057
 Total energy in the final basis set = -796.8580384057
 
 --------------------------------------------------------------
 
                    Orbital Energies (a.u.)
 --------------------------------------------------------------
 
 Alpha MOs
 -- Occupied --
-18.936 -18.912 -18.876 -18.854 -10.095 -10.081 -10.065 -10.051
-10.038 -10.032 -10.023 -10.020 -10.012 -10.009 -10.008  -9.982
 -9.980  -1.011  -0.991  -0.935  -0.918  -0.832  -0.739  -0.715
 -0.667  -0.658  -0.649  -0.636  -0.620  -0.545  -0.528  -0.500
 -0.486  -0.464  -0.455  -0.438  -0.417  -0.410  -0.401  -0.391
 -0.389  -0.376  -0.367  -0.364  -0.359  -0.352  -0.345  -0.338
 -0.331  -0.317  -0.307  -0.300  -0.295  -0.281  -0.276  -0.267
 -0.253  -0.251  -0.236  -0.183  -0.173  -0.159  -0.149  -0.134
 -- Virtual --
  0.099   0.121   0.124   0.240   0.265   0.292   0.311   0.315
  0.338   0.346   0.360   0.373   0.381   0.395   0.402   0.408
  0.413   0.421   0.423   0.428   0.431   0.436   0.439   0.443
  0.450   0.452   0.459   0.465   0.490   0.501   0.512   0.513
  0.521   0.527   0.536   0.584   0.641   0.658   0.764
 --------------------------------------------------------------
 
          Ground-State Mulliken Net Atomic Charges

     Atom                 Charge (a.u.)
  ----------------------------------------
      1 C                     0.011856
      2 C                     0.010804
      3 C                     0.210493
      4 C                     0.212142
      5 O                    -0.169376
      6 O                    -0.211738
      7 O                    -0.180436
      8 O                    -0.220566
      9 C                    -0.128517
[...]
 C          0.001  0.000 -0.001   -0.008  0.002  0.003   -0.015  0.002  0.006
 C         -0.000 -0.000  0.000   -0.000  0.000 -0.000    0.001  0.000  0.000
 C          0.000  0.000  0.000    0.000  0.000 -0.000    0.001  0.000 -0.001
 C         -0.001 -0.000  0.000    0.008  0.005 -0.001   -0.022 -0.012  0.003
 C         -0.000 -0.007 -0.006    0.005 -0.059 -0.026    0.012 -0.022  0.035
 C          0.001 -0.013  0.046    0.001  0.005 -0.004    0.004  0.009 -0.000
 C          0.018  0.006  0.005   -0.014  0.004  0.003    0.053 -0.012 -0.049
 H          0.002  0.001  0.003   -0.002 -0.001 -0.002    0.000 -0.000  0.000
 H         -0.005  0.010 -0.003    0.001 -0.002  0.001   -0.001  0.002 -0.001
 H         -0.001  0.000  0.001    0.000 -0.002  0.000   -0.007  0.002  0.010
 H         -0.000  0.001 -0.001    0.000 -0.001  0.001    0.000 -0.001  0.001
 H         -0.002 -0.001  0.001    0.001  0.000 -0.001    0.003  0.001 -0.001
 H          0.009 -0.000 -0.003   -0.002  0.000  0.001    0.000 -0.000 -0.000
 H         -0.001 -0.002  0.015    0.000  0.001 -0.006    0.000  0.000 -0.003
 H          0.007  0.003 -0.001   -0.105 -0.059  0.012    0.261  0.138 -0.034
 H         -0.011  0.000  0.004    0.100 -0.019 -0.037    0.181 -0.027 -0.065
 H          0.055 -0.114 -0.062    0.011 -0.035 -0.018   -0.191  0.470  0.241
 H          0.004  0.090 -0.076   -0.004 -0.029  0.029    0.014 -0.241  0.196
 H         -0.266 -0.048  0.082    0.149  0.029 -0.046   -0.456 -0.089  0.136
 H          0.423  0.047 -0.035   -0.050 -0.005  0.004   -0.052 -0.003  0.006
 H         -0.320  0.514 -0.318    0.039 -0.060  0.039    0.029 -0.044  0.029
 H         -0.126 -0.405 -0.189    0.002  0.004  0.000   -0.023 -0.065 -0.034
 H         -0.019  0.056 -0.038   -0.177  0.544 -0.353   -0.103  0.322 -0.194
 H          0.020  0.024  0.106    0.127  0.142  0.666   -0.043 -0.054 -0.223
 H          0.000 -0.000  0.000    0.001 -0.001  0.000   -0.009 -0.004 -0.007
 TransDip   0.033 -0.015  0.143   -0.016 -0.149 -0.097    0.036 -0.082 -0.009

 Mode:                88                     89                     90
 Frequency:      3110.24                3112.57                3114.08
 Force Cnst:      6.2136                 6.2444                 6.2859
 Red. Mass:       1.0902                 1.0940                 1.1002
 IR Active:          YES                    YES                    YES
 IR Intens:       44.058                  7.169                 26.047
 Raman Active:       YES                    YES                    YES
               X      Y      Z        X      Y      Z        X      Y      Z
 C          0.000 -0.000  0.000   -0.000 -0.001  0.001   -0.000 -0.000  0.000
 C         -0.000 -0.000 -0.000    0.000 -0.000  0.000    0.001 -0.000 -0.000
 C         -0.000  0.000  0.000   -0.000 -0.000  0.000   -0.000 -0.000 -0.000
 C         -0.000 -0.000  0.000    0.000 -0.000 -0.000    0.000  0.000 -0.000
 O          0.000 -0.000  0.000    0.000  0.000  0.000    0.000 -0.000  0.000
 O          0.000 -0.000 -0.000    0.000  0.000 -0.000    0.000  0.000  0.000
 O          0.000 -0.000 -0.000   -0.000  0.000 -0.000   -0.000  0.000  0.000
 O          0.000  0.000 -0.000   -0.000 -0.000  0.000   -0.000 -0.000  0.000
 C          0.001  0.000  0.000   -0.000 -0.000 -0.000   -0.001 -0.000 -0.000
 C          0.000 -0.000  0.001    0.000  0.001 -0.001    0.001 -0.002  0.002
 C         -0.040  0.006  0.014   -0.050  0.007  0.018   -0.036  0.006  0.012
 C          0.002  0.001  0.001    0.002  0.001  0.001    0.002  0.001  0.001
 C          0.002 -0.000 -0.002   -0.001  0.000  0.001   -0.001 -0.000  0.000
 C         -0.057 -0.030  0.006    0.040  0.020 -0.005    0.018  0.010 -0.003
 C         -0.004  0.007 -0.018    0.005 -0.000  0.024   -0.016  0.027 -0.051
 C          0.013 -0.017  0.001    0.024 -0.041  0.001   -0.008  0.047  0.003
 C         -0.020  0.009  0.014   -0.001  0.003  0.002    0.018 -0.004 -0.017
 H         -0.004 -0.002 -0.005    0.002  0.001  0.003    0.004  0.002  0.005
 H         -0.002  0.003 -0.001    0.004 -0.007  0.002   -0.010  0.019 -0.006
 H         -0.017  0.005  0.025    0.011 -0.003 -0.015    0.004 -0.002 -0.005
 H          0.000 -0.001  0.001   -0.000 -0.000  0.001   -0.000  0.001 -0.001
 H         -0.008 -0.002  0.003    0.002  0.000 -0.001    0.004  0.001 -0.002
 H         -0.002  0.000  0.001   -0.003  0.000  0.001    0.001 -0.000  0.000
 H          0.000  0.001 -0.007   -0.000 -0.001  0.008    0.001  0.002 -0.020
 H          0.660  0.349 -0.083   -0.457 -0.241  0.058   -0.207 -0.110  0.027
 H          0.471 -0.071 -0.166    0.579 -0.087 -0.206    0.416 -0.063 -0.145
 H          0.069 -0.170 -0.087    0.018 -0.042 -0.023   -0.064  0.160  0.083
 H         -0.004  0.032 -0.022   -0.001  0.000 -0.001    0.003 -0.086  0.071
 H          0.171  0.034 -0.050   -0.006  0.000  0.001   -0.157 -0.030  0.045
 H         -0.117 -0.018  0.011   -0.202 -0.034  0.019    0.059  0.019 -0.007
 H         -0.075  0.123 -0.080   -0.167  0.267 -0.175    0.151 -0.233  0.154
 H          0.034  0.093  0.048    0.090  0.255  0.130   -0.116 -0.343 -0.173
 H          0.035 -0.120  0.072   -0.022  0.071 -0.042    0.129 -0.412  0.247
 H          0.024  0.034  0.144   -0.044 -0.058 -0.239    0.067  0.088  0.366
 H         -0.021 -0.011 -0.015   -0.029 -0.013 -0.021   -0.018 -0.009 -0.012
 TransDip  -0.207 -0.042  0.024    0.021  0.005  0.083   -0.041  0.133 -0.086

 Mode:                91                     92                     93
 Frequency:      3118.70                3119.38                3122.23
 Force Cnst:      6.2911                 6.3455                 6.3577
 Red. Mass:       1.0978                 1.1068                 1.1069
 IR Active:          YES                    YES                    YES
 IR Intens:       39.034                 19.105                 15.729
 Raman Active:       YES                    YES                    YES
               X      Y      Z        X      Y      Z        X      Y      Z
 C          0.000 -0.001 -0.000   -0.000  0.000 -0.000    0.000  0.000  0.000
 C          0.000  0.000 -0.000    0.000 -0.000 -0.000   -0.000 -0.000 -0.000
 C          0.000  0.000  0.000   -0.000 -0.000  0.000    0.000 -0.000 -0.000
 C         -0.000  0.000 -0.000   -0.000  0.000 -0.000    0.000  0.000  0.000
 O         -0.000  0.000  0.000    0.000 -0.000  0.000   -0.000  0.000  0.000
 O         -0.000  0.000  0.000    0.000 -0.000  0.000   -0.000  0.000  0.000
 O          0.000  0.000  0.000    0.000 -0.000  0.000    0.000  0.000  0.000
 O         -0.000 -0.000  0.000    0.000 -0.000  0.000    0.000 -0.000 -0.000
 C          0.001  0.000  0.000   -0.001 -0.001 -0.000   -0.086 -0.035 -0.020
 C         -0.001  0.002 -0.003   -0.021  0.057 -0.073    0.000 -0.001  0.001
 C          0.025 -0.003 -0.009   -0.002  0.000  0.001    0.001 -0.000 -0.000
 C         -0.001 -0.000 -0.001    0.000  0.000  0.000    0.000  0.000  0.000
 C         -0.000  0.000  0.000    0.000  0.000 -0.000    0.000  0.000 -0.000
 C          0.000  0.001 -0.000   -0.000 -0.000  0.000   -0.001 -0.000  0.000
 C         -0.013  0.013 -0.046   -0.000  0.000 -0.000   -0.000  0.000 -0.001
 C          0.034 -0.046 -0.001   -0.002  0.003 -0.000    0.001 -0.001  0.000
 C          0.022  0.016 -0.031   -0.000 -0.001  0.001   -0.000 -0.000  0.000
 H         -0.006 -0.003 -0.007    0.005  0.003  0.007    0.398  0.236  0.528
 H          0.011 -0.021  0.006    0.326 -0.606  0.173   -0.004  0.008 -0.002
 H          0.000 -0.001 -0.000   -0.000  0.000  0.001   -0.000  0.000  0.000
 H          0.000 -0.000  0.000   -0.000  0.001 -0.002   -0.018  0.017 -0.031
 H         -0.009 -0.002  0.003    0.010  0.003 -0.004    0.635  0.169 -0.255
 H         -0.000  0.000 -0.000   -0.043  0.013 -0.001    0.002 -0.000 -0.001
 H         -0.001 -0.003  0.027   -0.037 -0.077  0.689    0.001  0.001 -0.010
 H         -0.011 -0.006  0.002    0.006  0.003 -0.001    0.010  0.005 -0.001
 H         -0.289  0.044  0.101    0.021 -0.003 -0.007   -0.006  0.001  0.002
 H         -0.049  0.129  0.062   -0.001  0.002  0.001   -0.000  0.000  0.000
 H          0.006 -0.283  0.243   -0.000  0.008 -0.007   -0.000  0.001 -0.001
 H         -0.232 -0.039  0.067    0.004  0.000 -0.001    0.003  0.001 -0.001
 H         -0.336 -0.052  0.036    0.017  0.003 -0.002   -0.011 -0.002  0.001
 H         -0.182  0.292 -0.189    0.014 -0.021  0.014   -0.004  0.007 -0.005
 H          0.109  0.309  0.157   -0.008 -0.022 -0.011    0.002  0.005  0.003
 H          0.081 -0.257  0.153    0.001 -0.003  0.002    0.001 -0.002  0.001
 H          0.075  0.096  0.398    0.000  0.000  0.002    0.001  0.001  0.006
 H          0.014  0.006  0.011   -0.003 -0.001 -0.002    0.000 -0.000  0.000
 TransDip   0.091 -0.049 -0.171   -0.029  0.093 -0.100   -0.118 -0.041 -0.024

 Mode:                94                     95                     96
 Frequency:      3133.16                3140.60                3151.32
 Force Cnst:      6.3712                 6.4097                 6.4734
 Red. Mass:       1.1016                 1.1030                 1.1064
 IR Active:          YES                    YES                    YES
 IR Intens:       15.798                 22.151                 15.658
 Raman Active:       YES                    YES                    YES
               X      Y      Z        X      Y      Z        X      Y      Z
 C         -0.001 -0.001 -0.000   -0.000 -0.000  0.000    0.000  0.000  0.000
 C          0.000  0.000 -0.001    0.000 -0.001  0.000   -0.000 -0.000  0.000
 C         -0.001  0.000  0.001   -0.000  0.000  0.000    0.000  0.000 -0.000
 C         -0.000  0.000 -0.000   -0.000 -0.000  0.001    0.001 -0.001 -0.001
 O          0.000 -0.000 -0.000    0.000 -0.000 -0.000   -0.000 -0.000  0.000
 O          0.000 -0.000 -0.000    0.000  0.000 -0.000   -0.000  0.000  0.000
 O          0.000  0.000  0.000   -0.000 -0.000 -0.000   -0.000 -0.000  0.000
 O         -0.000  0.000  0.000    0.000  0.000 -0.000   -0.000  0.000  0.000
 C         -0.001 -0.000 -0.000    0.000  0.000  0.001    0.001  0.044 -0.084
 C         -0.000  0.000  0.001   -0.000 -0.000  0.000   -0.001  0.000  0.000
 C         -0.008  0.001  0.003   -0.000  0.000 -0.000    0.000 -0.000 -0.000
 C          0.001  0.000  0.000    0.000  0.000  0.000   -0.000 -0.000 -0.000
 C         -0.000 -0.000 -0.000   -0.000  0.000  0.000   -0.000  0.000  0.000
 C          0.000  0.000  0.000   -0.002 -0.001 -0.000    0.000  0.000 -0.000
 C         -0.002  0.002 -0.007   -0.004  0.002 -0.016   -0.000 -0.000 -0.000
 C         -0.078 -0.036 -0.016   -0.012 -0.025 -0.004    0.000 -0.000 -0.000
 C          0.004  0.022 -0.014    0.013 -0.084  0.018    0.000 -0.001  0.000
 H          0.004  0.003  0.006   -0.005 -0.004 -0.007    0.204  0.127  0.238
 H          0.002 -0.004  0.001   -0.000 -0.000  0.000    0.002 -0.004  0.001
 H         -0.000  0.000  0.001    0.000 -0.001 -0.000    0.000 -0.000 -0.001
 H         -0.000 -0.001  0.001   -0.000  0.004 -0.005    0.051 -0.583  0.670
 H          0.002  0.001 -0.001    0.003  0.001 -0.001   -0.272 -0.065  0.085
 H          0.004 -0.000 -0.001    0.003 -0.000 -0.001    0.007 -0.000 -0.002
 H         -0.000  0.001 -0.008    0.000  0.000 -0.004   -0.000  0.000 -0.001
 H         -0.000 -0.000  0.000    0.020  0.011 -0.003   -0.000 -0.000  0.000
 H          0.095 -0.016 -0.033    0.004 -0.001 -0.001   -0.002  0.000  0.001
 H          0.024 -0.049 -0.031   -0.215  0.488  0.271   -0.002  0.005  0.003
 H          0.002 -0.203  0.177    0.003  0.530 -0.473   -0.000  0.005 -0.005
 H         -0.080 -0.010  0.023    0.045 -0.009 -0.009    0.000 -0.000 -0.000
 H          0.763  0.086 -0.082    0.119  0.010 -0.013   -0.001 -0.000  0.000
 H          0.044 -0.105  0.056   -0.050  0.071 -0.049    0.000 -0.000  0.000
 H          0.134  0.458  0.224    0.072  0.223  0.111    0.000  0.000  0.000
 H          0.012 -0.038  0.022    0.020 -0.064  0.038    0.000 -0.000  0.000
 H          0.012  0.015  0.065    0.029  0.040  0.163    0.000  0.001  0.002
 H         -0.005 -0.003 -0.003   -0.001 -0.001 -0.001    0.000  0.000  0.000
 TransDip  -0.117 -0.021 -0.045    0.005 -0.150 -0.018   -0.007  0.079 -0.099

 Mode:                97                     98                     99
 Frequency:      3153.14                3199.27                3239.92
 Force Cnst:      6.4791                 6.5760                 6.8172
 Red. Mass:       1.1061                 1.0905                 1.1023
 IR Active:          YES                    YES                    YES
 IR Intens:       14.728                  7.007                  4.016
 Raman Active:       YES                    YES                    YES
               X      Y      Z        X      Y      Z        X      Y      Z
 C          0.000 -0.000 -0.000    0.000 -0.000  0.000   -0.000  0.000  0.000
 C          0.000  0.000  0.000    0.000  0.000  0.000    0.000 -0.000  0.000
 C         -0.000  0.001  0.001   -0.000 -0.000 -0.000   -0.000 -0.000 -0.000
 C          0.000  0.000  0.000   -0.000 -0.000  0.000    0.000 -0.000 -0.001
 O          0.000 -0.000 -0.000    0.000 -0.000  0.000    0.000  0.000  0.000
 O          0.000 -0.000 -0.000    0.000  0.000  0.000   -0.000  0.000  0.000
 O         -0.000 -0.000 -0.000    0.000  0.000 -0.000   -0.000 -0.000  0.000
 O         -0.000 -0.000  0.000   -0.000  0.000 -0.000    0.000 -0.000  0.000
 C          0.000 -0.000  0.001   -0.000 -0.000  0.000   -0.000  0.000 -0.000
 C         -0.083  0.022  0.040    0.000  0.000 -0.000    0.000  0.000 -0.000
 C         -0.000  0.000  0.000   -0.004  0.001  0.003   -0.001  0.000  0.002
 C         -0.000 -0.000 -0.000   -0.061 -0.029 -0.049   -0.026 -0.010 -0.014
 C          0.000 -0.000 -0.000   -0.008  0.005  0.021    0.045 -0.013 -0.074
 C          0.000  0.000 -0.000   -0.001 -0.001  0.000    0.004  0.002  0.002
 C          0.000  0.000  0.000    0.000  0.001  0.000   -0.000  0.001  0.001
 C          0.001  0.000  0.000   -0.000 -0.000  0.000    0.000 -0.000 -0.000
 C         -0.000  0.000  0.000    0.000 -0.000 -0.000    0.000 -0.000  0.000
 H         -0.002 -0.001 -0.003    0.000  0.000  0.000    0.000  0.000  0.000
 H          0.136 -0.281  0.099    0.001 -0.001  0.000    0.000 -0.000  0.000
 H         -0.000  0.000  0.000    0.139 -0.055 -0.261   -0.447  0.170  0.822
 H         -0.000  0.005 -0.005   -0.000  0.000 -0.001   -0.000 -0.000  0.000
 H          0.001  0.000 -0.000    0.000  0.000 -0.000   -0.000  0.000 -0.000
 H          0.845 -0.029 -0.298   -0.001  0.000  0.000   -0.000  0.000  0.000
 H         -0.004  0.044 -0.279   -0.000  0.000  0.001    0.000 -0.000  0.000
 H         -0.001 -0.000  0.000    0.009  0.006 -0.001   -0.031 -0.016 -0.001
 H          0.002 -0.000 -0.001    0.049 -0.008 -0.022    0.011 -0.001 -0.007
 H          0.001 -0.002 -0.001   -0.000  0.001  0.001   -0.000  0.001  0.001
 H         -0.000 -0.001  0.001    0.000  0.001 -0.000   -0.000  0.001 -0.002
 H          0.000  0.000 -0.000    0.000 -0.000  0.000   -0.000 -0.000  0.000
 H         -0.007 -0.001  0.001    0.001  0.000 -0.000    0.000 -0.000 -0.000
 H         -0.000  0.001 -0.000   -0.001  0.001 -0.001   -0.000  0.001 -0.000
 H         -0.001 -0.004 -0.002    0.000  0.001  0.000    0.000  0.001  0.000
 H         -0.000 -0.000  0.000    0.000 -0.002  0.001    0.001 -0.003  0.001
 H         -0.000 -0.000 -0.002   -0.002 -0.001 -0.004   -0.000 -0.001 -0.004
 H          0.000  0.000  0.000    0.674  0.341  0.573    0.211  0.106  0.175
 TransDip  -0.115  0.009  0.042   -0.067 -0.027 -0.044   -0.010 -0.009 -0.063

 STANDARD THERMODYNAMIC QUANTITIES AT   298.15 K  AND     1.00 ATM

   This Molecule has  1 Imaginary Frequencies
   Zero point vibrational energy:      183.662 kcal/mol

   Atom    1 Element C  Has Mass   12.00000
   Atom    2 Element C  Has Mass   12.00000
   Atom    3 Element C  Has Mass   12.00000
   Atom    4 Element C  Has Mass   12.00000
   Atom    5 Element O  Has Mass   15.99491
   Atom    6 Element O  Has Mass   15.99491
   Atom    7 Element O  Has Mass   15.99491
   Atom    8 Element O  Has Mass   15.99491
   Atom    9 Element C  Has Mass   12.00000
   Atom   10 Element C  Has Mass   12.00000
   Atom   11 Element C  Has Mass   12.00000
   Atom   12 Element C  Has Mass   12.00000
   Atom   13 Element C  Has Mass   12.00000
   Atom   14 Element C  Has Mass   12.00000
   Atom   15 Element C  Has Mass   12.00000
   Atom   16 Element C  Has Mass   12.00000
   Atom   17 Element C  Has Mass   12.00000
   Atom   18 Element H  Has Mass    1.00783
   Atom   19 Element H  Has Mass    1.00783
   Atom   20 Element H  Has Mass    1.00783
   Atom   21 Element H  Has Mass    1.00783
   Atom   22 Element H  Has Mass    1.00783
   Atom   23 Element H  Has Mass    1.00783
   Atom   24 Element H  Has Mass    1.00783
   Atom   25 Element H  Has Mass    1.00783
   Atom   26 Element H  Has Mass    1.00783
   Atom   27 Element H  Has Mass    1.00783
   Atom   28 Element H  Has Mass    1.00783
   Atom   29 Element H  Has Mass    1.00783
   Atom   30 Element H  Has Mass    1.00783
   Atom   31 Element H  Has Mass    1.00783
   Atom   32 Element H  Has Mass    1.00783
   Atom   33 Element H  Has Mass    1.00783
   Atom   34 Element H  Has Mass    1.00783
   Atom   35 Element H  Has Mass    1.00783
   Molecular Mass:   238.120580 amu
   Principal axes and moments of inertia in amu*Bohr^2:
                             1           2           3
    Eigenvalues --     3023.83077  3367.92414  4475.75285
          X               0.99949     0.02743     0.01645
          Y              -0.02785     0.99928     0.02561
          Z              -0.01574    -0.02605     0.99954
   Rotational Symmetry Number is   1
   The Molecule is an Asymmetric Top
   Translational Enthalpy:        0.889 kcal/mol
   Rotational Enthalpy:           0.889 kcal/mol
   Vibrational Enthalpy:        191.988 kcal/mol
   gas constant (RT):             0.592 kcal/mol
   Translational Entropy:        42.304  cal/mol.K
   Rotational Entropy:           32.188  cal/mol.K
   Vibrational Entropy:          50.006  cal/mol.K

   Total Enthalpy:              194.357 kcal/mol
   Total Entropy:               124.498  cal/mol.K
Archival summary:
1\1\nid00339\FREQ\ProcedureUnspecified\BasisUnspecified\41318\junteng\WedOct1817:33:422017WedOct1817:33:422017\0\\#,FREQ,ProcedureUnspecified,BasisUnspecified,\\0,1\O\C,1,1.20548\O,2,1.35483,1,122.036\C,3,1.43819,2,115.977,1,-1.76996,0\H,4,1.08799,3,105.403,2,-178.739,0\H,4,1.09096,3,110.631,2,61.6638,0\H,4,1.09139,3,110.431,2,-59.2224,0\C,2,1.53045,1,127.579,3,-175.586,0\C,8,1.53861,2,109.233,1,-133.733,0\H,9,1.08942,8,109.936,2,-55.6997,0\H,9,1.08987,8,111.225,2,-175.431,0\H,9,1.09239,8,111.329,2,64.0575,0\C,8,1.60048,2,114.398,1,-4.17611,0\C,13,1.53087,8,115.628,2,-10.5776,0\O,14,1.206,13,125.205,8,117.443,0\O,14,1.35003,13,111.06,8,-68.8097,0\C,16,1.43716,14,115.56,13,174.786,0\H,17,1.08812,16,105.585,14,179.299,0\H,17,1.09093,16,110.737,14,59.4692,0\H,17,1.09109,16,109.502,14,-61.4882,0\C,13,1.55016,8,114.025,2,-132.235,0\H,21,1.08882,13,111.71,8,60.9652,0\H,21,1.08918,13,112.141,8,-61.3679,0\H,21,1.09341,13,108.916,8,179.843,0\C,13,1.57972,8,101.996,2,110.198,0\H,25,1.08917,13,112.519,8,166.149,0\C,25,1.52007,13,108.632,8,-64.3736,0\H,27,1.07948,25,124.399,13,-101.914,0\C,27,1.336,25,107.592,13,71.8416,0\H,29,1.08223,27,127.304,25,-173.525,0\C,29,1.52048,27,107.289,25,-1.23585,0\H,31,1.08876,29,116.713,27,163.501,0\C,31,1.53876,29,99.8747,27,34.9961,0\H,33,1.09063,31,114.393,29,-170.689,0\H,33,1.0911,31,111.942,29,64.5476,0\\\@

 Total job time:  14789.53s(wall), 89446.63s(cpu) 
 Wed Oct 18 17:33:42 2017

        *************************************************************
        *                                                           *
        *  Thank you very much for using Q-Chem.  Have a nice day.  *
        *                                                           *
        *************************************************************


