nid04377 10.128.17
Q-Chem Developer Version! Running on 10.128.17.*
                  Welcome to Q-Chem
     A Quantum Leap Into The Future Of Chemistry


 Q-Chem 5.0, Q-Chem, Inc., Pleasanton, CA (2017)

 Yihan Shao,  Zhengting Gan,  E. Epifanovsky,  A. T. B. Gilbert,  M. Wormit,  
 J. Kussmann,  A. W. Lange,  A. Behn,  Jia Deng,  Xintian Feng,  D. Ghosh,  
 M. Goldey,  P. R. Horn,  L. D. Jacobson,  I. Kaliman,  T. Kus,  A. Landau,  
 Jie Liu,  E. I. Proynov,  R. M. Richard,  R. P. Steele,  E. J. Sundstrom,  
 H. L. Woodcock III,  P. M. Zimmerman,  D. Zuev,  B. Albrecht,  E. Alguire,  
 S. A. Baeppler,  Z. Benda,  Y. A. Bernard,  E. J. Berquist,  K. B. Bravaya,  
 D. Casanova,  Chun-Min Chang,  Yunqing Chen,  A. Chien,  K. D. Closser,  
 M. P. Coons,  S. Dasgupta,  M. Diedenhofen,  Hainam Do,  R. G. Edgar,  
 Po-Tung Fang,  S. Fatehi,  Qingguo Feng,  Qinghui Ge,  A. Ghysels,  
 J. Gomes,  J. Gonthier,  A. Gunina,  M. W. D. Hanson-Heine,  
 P. H. P. Harbach,  A. W. Hauser,  J. E. Herr,  E. G. Hohenstein,  
 Z. C. Holden,  Kerwin Hui,  T.-C. Jagau,  Hyunjun Ji,  B. Kaduk,  
 K. Khistyaev,  Jaehoon Kim,  P. Klunzinger,  K. Koh,  D. Kosenkov,  
 T. Kowalczyk,  C. M. Krauter,  A. Kunitsa,  Ka Un Lao,  A. Laurent,  
 K. V. Lawler,  Joonho Lee,  D. Lefrancois,  S. Lehtola,  D. S. Levine,  
 Yi-Pei Li,  You-Sheng Lin,  Fenglai Liu,  E. Livshits,  A. Luenser,  
 P. Manohar,  E. Mansoor,  S. F. Manzer,  Shan-Ping Mao,  Yuezhi Mao,  
 N. Mardirossian,  A. V. Marenich,  L. A. Martinez-Martinez,  S. A. Maurer,  
 N. J. Mayhall,  S. C. McKenzie,  J.-M. Mewes,  A. F. Morrison,  K. Nanda,  
 T. S. Nguyen-Beck,  R. Olivares-Amaya,  J. A. Parkhill,  T. M. Perrine,  
 F. Plasser,  S. Prager,  A. Prociuk,  D. R. Rehn,  F. Rob,  M. Schneider,  
 N. Sergueev,  S. M. Sharada,  S. Sharma,  D. W. Small,  T. Stauch,  
 T. Stein,  Yu-Chuan Su,  A. J. W. Thom,  T. Tsuchimochi,  L. Vogt,  
 O. Vydrov,  M. A. Watson,  J. Wenzel,  M. de Wergifosse,  T. A. Wesolowski,  
 A. White,  J. Witte,  A. Yamada,  Jun Yang,  K. Yao,  S. Yeganeh,  
 S. R. Yost,  Zhi-Qiang You,  A. Zech,  Igor Ying Zhang,  Xing Zhang,  
 Yan Zhao,  Ying Zhu,  B. R. Brooks,  G. K. L. Chan,  C. J. Cramer,  
 M. S. Gordon,  W. J. Hehre,  A. Klamt,  M. W. Schmidt,  C. D. Sherrill,  
 D. G. Truhlar,  A. Aspuru-Guzik,  R. Baer,  A. T. Bell,  N. A. Besley,  
 Jeng-Da Chai,  A. Dreuw,  B. D. Dunietz,  T. R. Furlani,  Chao-Ping Hsu,  
 Yousung Jung,  Jing Kong,  D. S. Lambrecht,  WanZhen Liang,  C. Ochsenfeld,  
 V. A. Rassolov,  L. V. Slipchenko,  J. E. Subotnik,  T. Van Voorhis,  
 J. M. Herbert,  A. I. Krylov,  P. M. W. Gill,  M. Head-Gordon

 Contributors to earlier versions of Q-Chem not listed above: 
 R. D. Adamson,  B. Austin,  J. Baker,  G. J. O. Beran,  K. Brandhorst,  
 S. T. Brown,  E. F. C. Byrd,  A. K. Chakraborty,  C.-L. Cheng,  
 Siu Hung Chien,  D. M. Chipman,  D. L. Crittenden,  H. Dachsel,  
 R. A. DiStasio Jr.,  R. J. Doerksen,  A. D. Dutoi,  L. Fusti-Molnar,  
 W. A. Goddard III,  A. Golubeva-Zadorozhnaya,  S. R. Gwaltney,  G. Hawkins,  
 A. Heyden,  S. Hirata,  G. Kedziora,  F. J. Keil,  C. Kelley,  Jihan Kim,  
 R. A. King,  R. Z. Khaliullin,  P. P. Korambath,  W. Kurlancheek,  
 A. M. Lee,  M. S. Lee,  S. V. Levchenko,  Ching Yeh Lin,  D. Liotard,  
 R. C. Lochan,  I. Lotan,  P. E. Maslen,  N. Nair,  D. P. O'Neill,  
 D. Neuhauser,  E. Neuscamman,  C. M. Oana,  R. Olson,  B. Peters,  
 R. Peverati,  P. A. Pieniazek,  Y. M. Rhee,  J. Ritchie,  M. A. Rohrdanz,  
 E. Rosta,  N. J. Russ,  H. F. Schaefer III,  N. E. Schultz,  N. Shenvi,  
 A. C. Simmonett,  A. Sodt,  D. Stuck,  K. S. Thanthiriwatte,  V. Vanovschi,  
 Tao Wang,  A. Warshel,  C. F. Williams,  Q. Wu,  X. Xu,  W. Zhang

 Please cite Q-Chem as follows:
 Y. Shao et al., Mol. Phys. 113, 184-215 (2015)
 DOI: 10.1080/00268976.2014.952696

 Q-Chem 5.0.0 for Intel X86 EM64T Linux

 Parts of Q-Chem use Armadillo 5.200.1 (Boston Tea Smuggler).
 http://arma.sourceforge.net/

 Q-Chem begins on Wed Oct  4 18:02:43 2017  

Host: nid04377
0

     Scratch files written to /global/cscratch1/sd/junteng/scratch/16/opt_10n01o+.save//

Checking the input file for inconsistencies... 	...done.

--------------------------------------------------------------
User input:
--------------------------------------------------------------
$molecule
0  1
C    0.355  -2.424   0.293
C   -0.264  -2.685   1.524
C    0.749  -1.045  -0.086
C   -0.385  -1.681   2.598
O    1.805  -1.090  -0.938
O    0.175  -0.038   0.291
O    0.833  -1.128   2.820
O   -1.397  -1.517   3.259
C    0.836  -0.152   3.862
C    2.258   0.195  -1.365
C    0.489  -3.469  -0.639
C    0.011  -4.748  -0.345
C   -0.620  -4.996   0.872
C   -0.760  -3.969   1.804
H    0.142   0.662   3.629
H    1.480   0.699  -1.947
H   -1.003  -5.990   1.096
H    0.581  -0.616   4.820
H    1.845   0.263   3.935
H    3.132   0.050  -2.006
H    2.557   0.804  -0.506
H    0.116  -5.548  -1.075
H   -1.248  -4.169   2.757
H    0.945  -3.290  -1.611
$end


$opt
CONSTRAINT
tors    2    1    3    5    155.0
tors    1    2    4    7    -45.0
ENDCONSTRAINT
$end

$rem
JOBTYPE                   OPT
METHOD                    B3LYP
DFT_D                     D3_OP
BASIS                     STO-3G
GEOM_OPT_MAX_CYCLES       500
SYMMETRY                  False
THRESH                    12
SCF_CONVERGENCE           8
MAX_SUB_FILE_NUM          128
MEM_STATIC                400
MEM_TOTAL                 4000
$end

--------------------------------------------------------------
 Adding empirical dispersion correction 
 ----------------------------------------------------------------
 Doing -D3(op) with
 s6 =   1.00000
 s8 =   0.78311
 a1 =   0.30000
 a2 =   4.25000
 n  =  10.00000
 -D3 energy without 3body term =     -0.0235264244 hartrees
 ----------------------------------------------------------------
             Standard Nuclear Orientation (Angstroms)
    I     Atom           X                Y                Z
 ----------------------------------------------------------------
    1      C       0.0048685472    -0.8715632622    -0.0674007052
    2      C      -1.0919198482     0.0016590604    -0.1017662538
    3      C       1.3789608532    -0.3820370773    -0.3371273238
    4      C      -0.9567219841     1.4673235547    -0.2001640574
    5      O       2.2778658221    -1.1635542316     0.3142295632
    6      O       1.6428666882     0.5580963624    -1.0666181229
    7      O      -0.0793961891     1.8906553810     0.7430785488
    8      O      -1.6538448556     2.1636006328    -0.9193155941
    9      C       0.1112497942     3.3055484230     0.7520668044
   10      C       3.6362803702    -0.7724170820     0.1130215962
   11      C      -0.2239907215    -2.2487533468     0.1045757645
   12      C      -1.5242777058    -2.7411486134     0.2370961776
   13      C      -2.6105318253    -1.8705883996     0.1829583704
   14      C      -2.3975725218    -0.5036921638     0.0120899544
   15      H       0.4798571535     3.6504889134    -0.2193577541
   16      H       3.9131930930    -0.8856432273    -0.9398426800
   17      H      -3.6244084650    -2.2560700247     0.2743863539
   18      H      -0.8213882332     3.8144524380     1.0152929683
   19      H       0.8618027747     3.5417630810     1.5113479505
   20      H       4.2706392529    -1.4319291517     0.7116990033
   21      H       3.7952127220     0.2573747806     0.4483307479
   22      H      -1.6901414468    -3.8088449794     0.3653096299
   23      H      -3.2494252071     0.1741533752    -0.0229161569
   24      H       0.6066568830    -2.9521169215     0.1126528134
 ----------------------------------------------------------------
 Molecular Point Group                 C1    NOp =  1
 Largest Abelian Subgroup              C1    NOp =  1
 Nuclear Repulsion Energy =   889.7605996999 hartrees
 There are       51 alpha and       51 beta electrons
 Requested basis set is STO-3G
 There are 38 shells and 80 basis functions

 Total QAlloc Memory Limit   4000 MB
 Mega-Array Size       392 MB
 MEM_STATIC part       400 MB
 A cutoff of  1.0D-12 yielded    631 shell pairs
 There are      3151 function pairs
 
 -------------------------------------------------------
 OpenMP Integral Computing Module                       
 Release: version 1.0, May 2013, Q-Chem Inc. Pittsburgh 
 -------------------------------------------------------
 Integral Job Info:
 Integral job number is                      11
 Integral operator is                         1
 short-range coefficients                     0
 long-range coefficients              100000000
 Omega coefficients                           0
 if combine SR and LR in K                    0
 Integral screening is                        0
 Integral computing path is                   2
 max size of driver memory is            800000
 size of driver memory is                 45569
 size of scratch memory is               945100
 max col of scratch BK array                289
 max len of scratch array in speh3           22
 max len of scratch index in speh4            8
 max int batch size is                      520
 min int batch size is                       52
 fixed nKL is                                52
 max L of basis functions is                  1
 order of int derivative is                   0
 number of shells is                         38
 number of basis is                          80
 number of cartesian basis is                80
 number of contracted shell pairs           631
 number of primitive shell pairs           3502
 maxK2 (contraction) of shell pair            9
 max number of K2 of shell pair               1
 max number of CS2 of shell pair             91
 max number of PS2 of shell pair            468
 mem total for path MDJ                   25386
 -------------------------------------------------------
 Smallest overlap matrix eigenvalue = 1.73E-01

 Scale SEOQF with 1.000000e-01/1.000000e-01/1.000000e+00

 Standard Electronic Orientation quadrupole field applied
 Nucleus-field energy     =     0.0000000031 hartrees
 Guess from superposition of atomic densities
 Warning:  Energy on first SCF cycle will be non-variational
 A restricted hybrid HF-DFT SCF calculation will be
 performed using Pulay DIIS extrapolation
 Exchange:     0.2000 Hartree-Fock + 0.0800 Slater + 0.7200 B88
 Correlation:  0.1900 VWN1RPA + 0.8100 LYP
 Using SG-1 standard quadrature grid
 Dispersion:   Grimme D3
 SCF converges when DIIS error is below 1.0E-08
 -------------------------------------------------------
 OpenMP Integral computing Module                
 Release: version 1.0, May 2013, Q-Chem Inc. Pittsburgh 
 -------------------------------------------------------
 -------------------------------------------------------
 OpenMP BLAS3 based DFT computing Module                
 Release: version 1.0, May 2013, Q-Chem Inc. Pittsburgh 
 -------------------------------------------------------
 ---------------------------------------
  Cycle       Energy         DIIS Error
 ---------------------------------------
    1    -679.1330742783      1.26E-01
    2    -678.8427567625      1.47E-02
    3    -677.8244880427      3.88E-02
    4    -679.0444374619      5.12E-03
    5    -679.0653698754      1.92E-03
    6    -679.0685893525      4.89E-04
    7    -679.0688086880      1.64E-04
    8    -679.0688325245      6.17E-05
    9    -679.0688352391      2.86E-05
   10    -679.0688361181      3.14E-06
   11    -679.0688361278      1.13E-06
   12    -679.0688361290      2.41E-07
   13    -679.0688361291      1.07E-07
   14    -679.0688361291      3.14E-08
   15    -679.0688361291      6.94E-09 Convergence criterion met
 ---------------------------------------
 SCF time:  CPU 49.63 s  wall 2.12 s
 SCF   energy in the final basis set = -679.0688361291
 Total energy in the final basis set = -679.0688361291
 
 --------------------------------------------------------------
 
                    Orbital Energies (a.u.)
 --------------------------------------------------------------
 
 Alpha MOs
 -- Occupied --
-18.949 -18.946 -18.869 -18.865 -10.118 -10.113 -10.077 -10.071
-10.028 -10.026 -10.017 -10.017 -10.016 -10.015  -1.049  -1.042
 -0.958  -0.954  -0.822  -0.734  -0.725  -0.683  -0.674  -0.597
 -0.581  -0.532  -0.505  -0.479  -0.455  -0.439  -0.432  -0.426
 -0.417  -0.402  -0.389  -0.379  -0.356  -0.354  -0.340  -0.329
 -0.320  -0.310  -0.300  -0.254  -0.248  -0.203  -0.202  -0.186
 -0.179  -0.155  -0.149
 -- Virtual --
  0.048   0.070   0.134   0.148   0.250   0.283   0.307   0.353
  0.381   0.390   0.398   0.417   0.436   0.441   0.443   0.453
  0.454   0.455   0.457   0.470   0.480   0.565   0.570   0.592
  0.607   0.692   0.707   0.784   0.805
 --------------------------------------------------------------
 
          Ground-State Mulliken Net Atomic Charges

     Atom                 Charge (a.u.)
  ----------------------------------------
      1 C                    -0.016460
      2 C                    -0.013193
      3 C                     0.236815
      4 C                     0.239331
      5 O                    -0.184254
      6 O                    -0.228518
      7 O                    -0.182816
      8 O                    -0.225997
      9 C                    -0.125951
     10 C                    -0.125656
     11 C                    -0.071459
     12 C                    -0.077394
     13 C                    -0.076184
     14 C                    -0.071171
     15 H                     0.097497
     16 H                     0.093769
     17 H                     0.085582
     18 H                     0.092573
     19 H                     0.095187
     20 H                     0.096656
     21 H                     0.094826
     22 H                     0.084752
     23 H                     0.090621
     24 H                     0.091440
  ----------------------------------------
  Sum of atomic charges =     0.000000

 -----------------------------------------------------------------
                    Cartesian Multipole Moments
 -----------------------------------------------------------------
    Charge (ESU x 10^10)
                -0.0000
    Dipole Moment (Debye)
         X       1.2481      Y      -0.8457      Z       1.4685
       Tot       2.1046
    Quadrupole Moments (Debye-Ang)
        XX     -65.3011     XY       2.1209     YY     -67.3113
        XZ      -1.3115     YZ       4.6689     ZZ     -77.0076
    Octopole Moments (Debye-Ang^2)
       XXX      32.6486    XXY     -10.3188    XYY       7.7006
       YYY      22.5743    XXZ       7.0980    XYZ      -0.6038
       YYZ      10.9090    XZZ       8.2910    YZZ       6.2845
       ZZZ      -3.3968
    Hexadecapole Moments (Debye-Ang^3)
      XXXX   -1419.9863   XXXY     -32.5552   XXYY    -506.4431
      XYYY      11.8858   YYYY   -1399.1191   XXXZ       1.8789
      XXYZ      10.6306   XYYZ     -13.3076   YYYZ      18.6340
      XXZZ    -302.3897   XYZZ      -9.9894   YYZZ    -286.2151
      XZZZ       2.4642   YZZZ      -0.6197   ZZZZ    -173.6954
 -----------------------------------------------------------------
 Calculating analytic gradient of the SCF energy
 Gradient of SCF Energy
            1           2           3           4           5           6
    1   0.0189467   0.0093829   0.0257808   0.0081785  -0.0074890  -0.0217180
    2   0.0223592   0.0288567   0.0007986   0.0175880   0.0516881  -0.0565203
    3  -0.0065385  -0.0046518  -0.0033992   0.0079344  -0.0409363   0.0412028
            7           8           9          10          11          12
    1  -0.0442633   0.0324227  -0.0030645  -0.0197333   0.0015887  -0.0032796
    2   0.0162203  -0.0474403  -0.0223198  -0.0061442   0.0052309   0.0074133
    3  -0.0457045   0.0399112   0.0002509   0.0040683   0.0000763  -0.0004771
           13          14          15          16          17          18
    1   0.0091845   0.0031285  -0.0006871  -0.0066692   0.0075847   0.0097128
    2   0.0006146   0.0015510  -0.0080860  -0.0039866   0.0028168  -0.0100635
    3  -0.0000973   0.0000466   0.0104685   0.0118894  -0.0007431   0.0009652
           19          20          21          22          23          24
    1  -0.0071448  -0.0035130  -0.0048494   0.0009058   0.0042493  -0.0086547
    2   0.0005358   0.0078508  -0.0127042   0.0083381  -0.0067165   0.0021193
    3  -0.0078565  -0.0064892   0.0011465  -0.0011694   0.0005009  -0.0003980
 Max gradient component =       5.652E-02
 RMS gradient           =       1.839E-02
 Gradient time:  CPU 10.47 s  wall 0.45 s
 Geometry Optimization Parameters
   NAtoms,    NIC,     NZ,  NCons,   NDum,   NFix, NCnnct, MaxDiis
       24     152       0       2       0       0       0       0


** CONSTRAINED OPTIMIZATION IN DELOCALIZED INTERNAL COORDINATES **
   Searching for a Minimum

   Optimization Cycle:   1

                       Coordinates (Angstroms)
     ATOM                X               Y               Z
      1  C         0.0048685472   -0.8715632622   -0.0674007052
      2  C        -1.0919198482    0.0016590604   -0.1017662538
      3  C         1.3789608532   -0.3820370773   -0.3371273238
      4  C        -0.9567219841    1.4673235547   -0.2001640574
      5  O         2.2778658221   -1.1635542316    0.3142295632
      6  O         1.6428666882    0.5580963624   -1.0666181229
      7  O        -0.0793961891    1.8906553810    0.7430785488
      8  O        -1.6538448556    2.1636006328   -0.9193155941
      9  C         0.1112497942    3.3055484230    0.7520668044
     10  C         3.6362803702   -0.7724170820    0.1130215962
     11  C        -0.2239907215   -2.2487533468    0.1045757645
     12  C        -1.5242777058   -2.7411486134    0.2370961776
     13  C        -2.6105318253   -1.8705883996    0.1829583704
     14  C        -2.3975725218   -0.5036921638    0.0120899544
     15  H         0.4798571535    3.6504889134   -0.2193577541
     16  H         3.9131930930   -0.8856432273   -0.9398426800
     17  H        -3.6244084650   -2.2560700247    0.2743863539
     18  H        -0.8213882332    3.8144524380    1.0152929683
     19  H         0.8618027747    3.5417630810    1.5113479505
     20  H         4.2706392529   -1.4319291517    0.7116990033
     21  H         3.7952127220    0.2573747806    0.4483307479
     22  H        -1.6901414468   -3.8088449794    0.3653096299
     23  H        -3.2494252071    0.1741533752   -0.0229161569
     24  H         0.6066568830   -2.9521169215    0.1126528134
   Point Group: c1    Number of degrees of freedom:    66


   Energy is   -679.068836129

              Constraints and their Current Values
                                        Value     Constraint
   Dihedral:        2   1   3   5      152.312      155.000
   Dihedral:        1   2   4   7      -50.252      -45.000

 Attempting to Generate Delocalized Internal Coordinates

   Using Lagrange Multiplier Algorithm


 68 Hessian modes will be used to form the next step
  Hessian Eigenvalues:
    -0.977753   -0.977753    0.045000    0.045000    0.045000    0.045000
     0.045000    0.045000    0.045001    0.045001    0.045002    0.045005
     0.045013    0.045027    0.045031    0.045181    0.045530    0.113864
     0.113915    0.116869    0.116916    0.159954    0.159981    0.159993
     0.160000    0.160000    0.160000    0.160000    0.160000    0.160000
     0.160000    0.219995    0.224790    0.244310    0.248434    0.248766
     0.249810    0.249910    0.250000    0.250000    0.250000    0.250000
     0.341816    0.342672    0.342857    0.342897    0.342929    0.344092
     0.344169    0.349054    0.349829    0.349904    0.350351    0.351283
     0.412994    0.413052    0.413205    0.417941    0.448645    0.456536
     0.460014    0.465920    0.534366    0.537734    0.954630    0.958839
     1.022753    1.022753

 Minimum Search - Taking P-RFO Step
 Searching for Lamda that Maximizes Along the Constraint modes Only
 Value Taken    Lamda =   0.00488633
 Searching for Lamda that Minimizes Along All other modes
 Value Taken    Lamda =  -0.05767208
 Calculated Step too Large.  Step scaled by  0.870432
 Step Taken.  Stepsize is  0.300000

                             Maximum     Tolerance    Cnvgd?
         Gradient            0.091660       0.000300      NO
         Displacement        0.149549       0.001200      NO
         Energy change     *********       0.000001      NO


 New Cartesian Coordinates Obtained by Inverse Iteration

 Displacement from previous Coordinates is:  0.869123
 Adding empirical dispersion correction 
 ----------------------------------------------------------------
 Doing -D3(op) with
 s6 =   1.00000
 s8 =   0.78311
 a1 =   0.30000
 a2 =   4.25000
 n  =  10.00000
 -D3 energy without 3body term =     -0.0234693929 hartrees
 ----------------------------------------------------------------
             Standard Nuclear Orientation (Angstroms)
    I     Atom           X                Y                Z
 ----------------------------------------------------------------
    1      C      -0.0461539344    -0.9110506128    -0.0372411167
    2      C      -1.1628041212    -0.0332610434    -0.0788150377
    3      C       1.3657355366    -0.3679035363    -0.2857641847
    4      C      -1.0107456921     1.4930901444    -0.1601755075
    5      O       2.3133877224    -1.1949322328     0.3450214652
    6      O       1.6458404627     0.6253144855    -0.9945647142
    7      O      -0.0403048487     1.9176756024     0.7657867198
    8      O      -1.6863206920     2.2489842073    -0.8936085026
    9      C       0.1875364389     3.3656501310     0.7184122093
   10      C       3.6893009040    -0.7423410318     0.1206085487
   11      C      -0.2651372057    -2.3044996581     0.1034566196
   12      C      -1.5705434203    -2.8200333292     0.2103958593
   13      C      -2.6773590977    -1.9492594185     0.1606521845
   14      C      -2.4727892961    -0.5641407338     0.0158875785
   15      H       0.5172723149     3.6958678985    -0.2872556366
   16      H       3.9694206347    -0.7913627237    -0.9514818932
   17      H      -3.6970846462    -2.3488953302     0.2343199706
   18      H      -0.7213438722     3.9333137041     1.0048201477
   19      H       0.9889760974     3.5894909536     1.4457440561
   20      H       4.3472027799    -1.4240154226     0.6900624196
   21      H       3.8469433006     0.2921843928     0.4870289846
   22      H      -1.7251796356    -3.9013455212     0.3183568337
   23      H      -3.3317826338     0.1183857602    -0.0194914220
   24      H       0.5917678546    -2.9901591639     0.1114720165
 ----------------------------------------------------------------
 Molecular Point Group                 C1    NOp =  1
 Largest Abelian Subgroup              C1    NOp =  1
 Nuclear Repulsion Energy =   872.3166653274 hartrees
 There are       51 alpha and       51 beta electrons
 Applying Cartesian multipole field
    Component          Value
    ---------          -----
     (2,0,0)        1.00000E-11
     (0,2,0)        2.00000E-11
     (0,0,2)       -3.00000E-10
 Nucleus-field energy     =     0.0000000071 hartrees
 Requested basis set is STO-3G
 There are 38 shells and 80 basis functions
 A cutoff of  1.0D-12 yielded    629 shell pairs
 There are      3146 function pairs
 Smallest overlap matrix eigenvalue = 1.81E-01
 Guess MOs from SCF MO coefficient file
 Reading MOs from coefficient file
 Reading MOs from coefficient file
 A restricted hybrid HF-DFT SCF calculation will be
 performed using Pulay DIIS extrapolation
 Exchange:     0.2000 Hartree-Fock + 0.0800 Slater + 0.7200 B88
 Correlation:  0.1900 VWN1RPA + 0.8100 LYP
 Using SG-1 standard quadrature grid
 Dispersion:   Grimme D3
 SCF converges when DIIS error is below 1.0E-08
 Geometry optimization detected.  Setting ReadMinima to 0
 Setting SaveMinima to 0
 -------------------------------------------------------
 OpenMP Integral computing Module                
 Release: version 1.0, May 2013, Q-Chem Inc. Pittsburgh 
 -------------------------------------------------------
 -------------------------------------------------------
 OpenMP BLAS3 based DFT computing Module                
 Release: version 1.0, May 2013, Q-Chem Inc. Pittsburgh 
 -------------------------------------------------------
 ---------------------------------------
  Cycle       Energy         DIIS Error
 ---------------------------------------
    1    -678.9280561284      7.79E-03
    2    -679.0866220290      2.95E-03
    3    -679.0713052841      5.04E-03
    4    -679.0942263785      7.35E-04
    5    -679.0947502859      1.89E-04
    6    -679.0947841010      5.53E-05
    7    -679.0947868935      2.42E-05
    8    -679.0947873652      1.32E-05
    9    -679.0947875250      2.53E-06
   10    -679.0947875323      4.68E-07
   11    -679.0947875326      1.63E-07
   12    -679.0947875327      4.81E-08
   13    -679.0947875327      2.31E-08
   14    -679.0947875327      5.96E-09 Convergence criterion met
 ---------------------------------------
 SCF time:  CPU 43.20 s  wall 1.82 s
 SCF   energy in the final basis set = -679.0947875327
 Total energy in the final basis set = -679.0947875327
 
 --------------------------------------------------------------
 
                    Orbital Energies (a.u.)
 --------------------------------------------------------------
 
 Alpha MOs
 -- Occupied --
-18.943 -18.938 -18.871 -18.868 -10.108 -10.105 -10.071 -10.066
-10.031 -10.030 -10.020 -10.019 -10.019 -10.018  -1.020  -1.014
 -0.940  -0.935  -0.815  -0.724  -0.716  -0.671  -0.663  -0.589
 -0.576  -0.524  -0.498  -0.466  -0.444  -0.423  -0.418  -0.416
 -0.408  -0.398  -0.379  -0.372  -0.354  -0.349  -0.334  -0.320
 -0.317  -0.306  -0.293  -0.255  -0.249  -0.202  -0.199  -0.182
 -0.173  -0.153  -0.149
 -- Virtual --
  0.042   0.066   0.123   0.135   0.237   0.253   0.276   0.328
  0.352   0.358   0.380   0.396   0.419   0.421   0.426   0.430
  0.434   0.438   0.442   0.447   0.453   0.540   0.547   0.568
  0.580   0.652   0.653   0.749   0.774
 --------------------------------------------------------------
 
          Ground-State Mulliken Net Atomic Charges

     Atom                 Charge (a.u.)
  ----------------------------------------
      1 C                    -0.014126
      2 C                    -0.011309
      3 C                     0.216041
      4 C                     0.217967
      5 O                    -0.172291
      6 O                    -0.213415
      7 O                    -0.170623
      8 O                    -0.211924
      9 C                    -0.123507
     10 C                    -0.123863
     11 C                    -0.071640
     12 C                    -0.074785
     13 C                    -0.073766
     14 C                    -0.071362
     15 H                     0.093934
     16 H                     0.089734
     17 H                     0.085277
     18 H                     0.088462
     19 H                     0.091494
     20 H                     0.092480
     21 H                     0.091100
     22 H                     0.084676
     23 H                     0.089734
     24 H                     0.091714
  ----------------------------------------
  Sum of atomic charges =    -0.000000

 -----------------------------------------------------------------
                    Cartesian Multipole Moments
 -----------------------------------------------------------------
    Charge (ESU x 10^10)
                -0.0000
    Dipole Moment (Debye)
         X       1.0721      Y      -0.9382      Z       1.2644
       Tot       1.9048
    Quadrupole Moments (Debye-Ang)
        XX     -65.0085     XY       2.7773     YY     -67.2188
        XZ      -1.3330     YZ       4.3870     ZZ     -76.8754
    Octopole Moments (Debye-Ang^2)
       XXX      35.4334    XXY      -9.9770    XYY       8.0812
       YYY      23.0279    XXZ       5.4774    XYZ      -0.5944
       YYZ       9.8220    XZZ       9.6698    YZZ       7.1262
       ZZZ      -6.9256
    Hexadecapole Moments (Debye-Ang^3)
      XXXX   -1468.4460   XXXY     -47.0232   XXYY    -528.3246
      XYYY      -1.6642   YYYY   -1456.9696   XXXZ      -4.9145
      XXYZ      10.6861   XYYZ     -14.4511   YYYZ      19.7483
      XXZZ    -311.2099   XYZZ     -16.7637   YYZZ    -298.2914
      XZZZ      -4.6855   YZZZ      -1.7959   ZZZZ    -165.3194
 -----------------------------------------------------------------
 Calculating analytic gradient of the SCF energy
 Gradient of SCF Energy
            1           2           3           4           5           6
    1   0.0019735   0.0032317   0.0077046   0.0095283  -0.0023747  -0.0036325
    2   0.0054158   0.0034818  -0.0092384   0.0010157   0.0174933  -0.0050086
    3   0.0004725  -0.0061799   0.0085772   0.0131143  -0.0131457   0.0018072
            7           8           9          10          11          12
    1  -0.0137526   0.0014444   0.0011255  -0.0073718   0.0006217  -0.0004072
    2   0.0061670  -0.0052525  -0.0086213  -0.0046125   0.0001167  -0.0005189
    3  -0.0153222   0.0017298   0.0025581   0.0030109   0.0003215   0.0001912
           13          14          15          16          17          18
    1  -0.0000351  -0.0013498   0.0011685   0.0004441   0.0006867   0.0010468
    2  -0.0005633   0.0006784  -0.0000821  -0.0014657   0.0001340  -0.0003309
    3   0.0004914   0.0005730   0.0011589   0.0008918  -0.0000946   0.0012980
           19          20          21          22          23          24
    1  -0.0004528   0.0015362   0.0004800  -0.0000093   0.0003230  -0.0019293
    2   0.0023311   0.0015437  -0.0012481   0.0007055  -0.0012144  -0.0009262
    3  -0.0010221  -0.0009450   0.0012204  -0.0001665  -0.0000253  -0.0005149
 Max gradient component =       1.749E-02
 RMS gradient           =       5.000E-03
 Gradient time:  CPU 9.75 s  wall 0.41 s
 Geometry Optimization Parameters
   NAtoms,    NIC,     NZ,  NCons,   NDum,   NFix, NCnnct, MaxDiis
       24     152       0       2       0       0       0       0

 Cartesian Hessian Update
 Hessian Updated using BFGS Update


** CONSTRAINED OPTIMIZATION IN DELOCALIZED INTERNAL COORDINATES **
   Searching for a Minimum

   Optimization Cycle:   2

                       Coordinates (Angstroms)
     ATOM                X               Y               Z
      1  C        -0.0461539344   -0.9110506128   -0.0372411167
      2  C        -1.1628041212   -0.0332610434   -0.0788150377
      3  C         1.3657355366   -0.3679035363   -0.2857641847
      4  C        -1.0107456921    1.4930901444   -0.1601755075
      5  O         2.3133877224   -1.1949322328    0.3450214652
      6  O         1.6458404627    0.6253144855   -0.9945647142
      7  O        -0.0403048487    1.9176756024    0.7657867198
      8  O        -1.6863206920    2.2489842073   -0.8936085026
      9  C         0.1875364389    3.3656501310    0.7184122093
     10  C         3.6893009040   -0.7423410318    0.1206085487
     11  C        -0.2651372057   -2.3044996581    0.1034566196
     12  C        -1.5705434203   -2.8200333292    0.2103958593
     13  C        -2.6773590977   -1.9492594185    0.1606521845
     14  C        -2.4727892961   -0.5641407338    0.0158875785
     15  H         0.5172723149    3.6958678985   -0.2872556366
     16  H         3.9694206347   -0.7913627237   -0.9514818932
     17  H        -3.6970846462   -2.3488953302    0.2343199706
     18  H        -0.7213438722    3.9333137041    1.0048201477
     19  H         0.9889760974    3.5894909536    1.4457440561
     20  H         4.3472027799   -1.4240154226    0.6900624196
     21  H         3.8469433006    0.2921843928    0.4870289846
     22  H        -1.7251796356   -3.9013455212    0.3183568337
     23  H        -3.3317826338    0.1183857602   -0.0194914220
     24  H         0.5917678546   -2.9901591639    0.1114720165
   Point Group: c1    Number of degrees of freedom:    66


   Energy is   -679.094787533

              Constraints and their Current Values
                                        Value     Constraint
   Dihedral:        2   1   3   5      154.584      155.000
   Dihedral:        1   2   4   7      -45.819      -45.000
 Hessian Updated using BFGS Update

   Using Lagrange Multiplier Algorithm


 60 Hessian modes will be used to form the next step
  Hessian Eigenvalues:
    -0.977782   -0.977192    0.044984    0.045000    0.045000    0.045000
     0.045001    0.045002    0.045005    0.045011    0.045016    0.045027
     0.045034    0.045179    0.045929    0.113790    0.113903    0.116869
     0.116916    0.158658    0.159962    0.159981    0.159993    0.160000
     0.161932    0.219995    0.224875    0.237530    0.244375    0.248682
     0.249335    0.249851    0.249975    0.252087    0.342409    0.342734
     0.342874    0.342916    0.343858    0.344135    0.345983    0.349080
     0.349851    0.349937    0.350377    0.373161    0.412916    0.413052
     0.415734    0.421940    0.449409    0.456784    0.465882    0.473562
     0.518525    0.536677    0.956591    0.986681    1.022741    1.025591

 Minimum Search - Taking P-RFO Step
 Searching for Lamda that Maximizes Along the Constraint modes Only
 Value Taken    Lamda =   0.00015195
 Searching for Lamda that Minimizes Along All other modes
 Value Taken    Lamda =  -0.00367739
 Step Taken.  Stepsize is  0.127626

                             Maximum     Tolerance    Cnvgd?
         Gradient            0.016028       0.000300      NO
         Displacement        0.045939       0.001200      NO
         Energy change     -0.025951       0.000001      NO


 New Cartesian Coordinates Obtained by Inverse Iteration

 Displacement from previous Coordinates is:  0.338193
 Adding empirical dispersion correction 
 ----------------------------------------------------------------
 Doing -D3(op) with
 s6 =   1.00000
 s8 =   0.78311
 a1 =   0.30000
 a2 =   4.25000
 n  =  10.00000
 -D3 energy without 3body term =     -0.0234525761 hartrees
 ----------------------------------------------------------------
             Standard Nuclear Orientation (Angstroms)
    I     Atom           X                Y                Z
 ----------------------------------------------------------------
    1      C      -0.0501914007    -0.9165598000    -0.0248278710
    2      C      -1.1679231687    -0.0352541631    -0.0576853402
    3      C       1.3708829113    -0.3714282782    -0.2573125123
    4      C      -1.0055300092     1.4982302347    -0.1329744622
    5      O       2.3140615803    -1.2367760597     0.3697118363
    6      O       1.6802566481     0.6418022865    -0.9319091228
    7      O      -0.0017973290     1.9049507309     0.7919994236
    8      O      -1.6737531929     2.2825192123    -0.8490639386
    9      C       0.1936390948     3.3640999316     0.6906949947
   10      C       3.6800901664    -0.7367900274     0.1199931861
   11      C      -0.2663293564    -2.3096982644     0.0978264462
   12      C      -1.5729134958    -2.8259683849     0.1921014945
   13      C      -2.6808793467    -1.9531569478     0.1484385358
   14      C      -2.4767837155    -0.5653616363     0.0248408036
   15      H       0.4916001087     3.6642211877    -0.3353487930
   16      H       3.9319805358    -0.7522055940    -0.9611364875
   17      H      -3.7021377084    -2.3534076122     0.2134089427
   18      H      -0.7242339216     3.9222964800     0.9709646044
   19      H       1.0064910022     3.6078650948     1.3999203755
   20      H       4.3557971433    -1.4206089542     0.6670887369
   21      H       3.8132095553     0.2984869696     0.4970181215
   22      H      -1.7277172853    -3.9094988602     0.2883514420
   23      H      -3.3335338948     0.1228736028    -0.0057657446
   24      H       0.6015500296    -2.9838736270     0.1072929268
 ----------------------------------------------------------------
 Molecular Point Group                 C1    NOp =  1
 Largest Abelian Subgroup              C1    NOp =  1
 Nuclear Repulsion Energy =   871.5228257690 hartrees
 There are       51 alpha and       51 beta electrons
 Applying Cartesian multipole field
    Component          Value
    ---------          -----
     (2,0,0)        1.00000E-11
     (0,2,0)        2.00000E-11
     (0,0,2)       -3.00000E-10
 Nucleus-field energy     =     0.0000000091 hartrees
 Requested basis set is STO-3G
 There are 38 shells and 80 basis functions
 A cutoff of  1.0D-12 yielded    629 shell pairs
 There are      3146 function pairs
 Smallest overlap matrix eigenvalue = 1.81E-01
 Guess MOs from SCF MO coefficient file
 Reading MOs from coefficient file
 Reading MOs from coefficient file
 A restricted hybrid HF-DFT SCF calculation will be
 performed using Pulay DIIS extrapolation
 Exchange:     0.2000 Hartree-Fock + 0.0800 Slater + 0.7200 B88
 Correlation:  0.1900 VWN1RPA + 0.8100 LYP
 Using SG-1 standard quadrature grid
 Dispersion:   Grimme D3
 SCF converges when DIIS error is below 1.0E-08
 Geometry optimization detected.  Setting ReadMinima to 0
 Setting SaveMinima to 0
 -------------------------------------------------------
 OpenMP Integral computing Module                
 Release: version 1.0, May 2013, Q-Chem Inc. Pittsburgh 
 -------------------------------------------------------
 -------------------------------------------------------
 OpenMP BLAS3 based DFT computing Module                
 Release: version 1.0, May 2013, Q-Chem Inc. Pittsburgh 
 -------------------------------------------------------
 ---------------------------------------
  Cycle       Energy         DIIS Error
 ---------------------------------------
    1    -679.0590301342      3.15E-03
    2    -679.0957623580      9.14E-04
    3    -679.0936003424      1.81E-03
    4    -679.0965039563      2.37E-04
    5    -679.0965583055      6.35E-05
    6    -679.0965620236      2.01E-05
    7    -679.0965624087      8.06E-06
    8    -679.0965624703      3.84E-06
    9    -679.0965624825      1.44E-06
   10    -679.0965624846      1.75E-07
   11    -679.0965624847      5.06E-08
   12    -679.0965624847      1.75E-08
   13    -679.0965624847      8.49E-09 Convergence criterion met
 ---------------------------------------
 SCF time:  CPU 39.77 s  wall 1.68 s
 SCF   energy in the final basis set = -679.0965624847
 Total energy in the final basis set = -679.0965624847
 
 --------------------------------------------------------------
 
                    Orbital Energies (a.u.)
 --------------------------------------------------------------
 
 Alpha MOs
 -- Occupied --
-18.940 -18.937 -18.874 -18.872 -10.105 -10.103 -10.067 -10.062
-10.032 -10.031 -10.021 -10.020 -10.020 -10.019  -1.016  -1.009
 -0.938  -0.933  -0.816  -0.723  -0.717  -0.667  -0.659  -0.588
 -0.576  -0.523  -0.496  -0.464  -0.444  -0.420  -0.417  -0.413
 -0.407  -0.398  -0.375  -0.367  -0.356  -0.349  -0.333  -0.318
 -0.316  -0.305  -0.292  -0.260  -0.254  -0.203  -0.199  -0.183
 -0.172  -0.155  -0.151
 -- Virtual --
  0.040   0.064   0.121   0.133   0.237   0.252   0.274   0.318
  0.340   0.352   0.376   0.391   0.416   0.420   0.425   0.429
  0.433   0.435   0.439   0.444   0.450   0.535   0.544   0.566
  0.578   0.645   0.647   0.746   0.772
 --------------------------------------------------------------
 
          Ground-State Mulliken Net Atomic Charges

     Atom                 Charge (a.u.)
  ----------------------------------------
      1 C                    -0.014198
      2 C                    -0.011868
      3 C                     0.211207
      4 C                     0.213081
      5 O                    -0.167417
      6 O                    -0.209653
      7 O                    -0.165247
      8 O                    -0.208630
      9 C                    -0.125615
     10 C                    -0.126324
     11 C                    -0.071872
     12 C                    -0.074263
     13 C                    -0.073200
     14 C                    -0.071634
     15 H                     0.093620
     16 H                     0.089160
     17 H                     0.085453
     18 H                     0.088197
     19 H                     0.089951
     20 H                     0.090819
     21 H                     0.091040
     22 H                     0.084962
     23 H                     0.089715
     24 H                     0.092717
  ----------------------------------------
  Sum of atomic charges =    -0.000000

 -----------------------------------------------------------------
                    Cartesian Multipole Moments
 -----------------------------------------------------------------
    Charge (ESU x 10^10)
                -0.0000
    Dipole Moment (Debye)
         X       0.8901      Y      -0.9773      Z       1.0955
       Tot       1.7168
    Quadrupole Moments (Debye-Ang)
        XX     -65.4109     XY       2.8056     YY     -67.6364
        XZ      -1.3599     YZ       4.1107     ZZ     -76.6865
    Octopole Moments (Debye-Ang^2)
       XXX      32.0571    XXY      -9.4462    XYY       7.1434
       YYY      21.7463    XXZ       4.2311    XYZ      -0.5760
       YYZ       8.1844    XZZ       9.3125    YZZ       7.5020
       ZZZ      -9.7590
    Hexadecapole Moments (Debye-Ang^3)
      XXXX   -1477.4156   XXXY     -46.8898   XXYY    -530.2185
      XYYY      -3.0660   YYYY   -1470.6769   XXXZ      -6.0318
      XXYZ      10.1764   XYYZ     -14.1642   YYYZ      17.3539
      XXZZ    -309.7634   XYZZ     -17.4871   YYZZ    -298.8509
      XZZZ      -6.3020   YZZZ      -3.7711   ZZZZ    -158.1824
 -----------------------------------------------------------------
 Calculating analytic gradient of the SCF energy
 Gradient of SCF Energy
            1           2           3           4           5           6
    1  -0.0004607   0.0008661   0.0054784   0.0046576  -0.0011736  -0.0002034
    2  -0.0013407  -0.0007526  -0.0043537   0.0033482   0.0018764   0.0030004
    3   0.0024923  -0.0033456   0.0040998   0.0068889  -0.0016453  -0.0022703
            7           8           9          10          11          12
    1  -0.0008571  -0.0018265  -0.0022599  -0.0045450  -0.0002534   0.0006959
    2  -0.0003458   0.0014286  -0.0040530   0.0003286   0.0005938  -0.0001366
    3  -0.0023328  -0.0023524  -0.0013302  -0.0002871  -0.0002025  -0.0000562
           13          14          15          16          17          18
    1  -0.0003348   0.0000018   0.0001389   0.0002235  -0.0001789  -0.0003689
    2   0.0007330  -0.0001553   0.0002278  -0.0000307   0.0000620   0.0003839
    3  -0.0000114   0.0006756  -0.0005674  -0.0005162   0.0000095   0.0002507
           19          20          21          22          23          24
    1   0.0003081  -0.0002192   0.0002114   0.0001013  -0.0001812   0.0001795
    2  -0.0006145  -0.0004647   0.0005005  -0.0001625   0.0002551  -0.0003283
    3   0.0002831   0.0003761   0.0001834   0.0000267  -0.0001067  -0.0002620
 Max gradient component =       6.889E-03
 RMS gradient           =       1.881E-03
 Gradient time:  CPU 9.51 s  wall 0.40 s
 Geometry Optimization Parameters
   NAtoms,    NIC,     NZ,  NCons,   NDum,   NFix, NCnnct, MaxDiis
       24     152       0       2       0       0       0       0

 Cartesian Hessian Update
 Hessian Updated using BFGS Update


** CONSTRAINED OPTIMIZATION IN DELOCALIZED INTERNAL COORDINATES **
   Searching for a Minimum

   Optimization Cycle:   3

                       Coordinates (Angstroms)
     ATOM                X               Y               Z
      1  C        -0.0501914007   -0.9165598000   -0.0248278710
      2  C        -1.1679231687   -0.0352541631   -0.0576853402
      3  C         1.3708829113   -0.3714282782   -0.2573125123
      4  C        -1.0055300092    1.4982302347   -0.1329744622
      5  O         2.3140615803   -1.2367760597    0.3697118363
      6  O         1.6802566481    0.6418022865   -0.9319091228
      7  O        -0.0017973290    1.9049507309    0.7919994236
      8  O        -1.6737531929    2.2825192123   -0.8490639386
      9  C         0.1936390948    3.3640999316    0.6906949947
     10  C         3.6800901664   -0.7367900274    0.1199931861
     11  C        -0.2663293564   -2.3096982644    0.0978264462
     12  C        -1.5729134958   -2.8259683849    0.1921014945
     13  C        -2.6808793467   -1.9531569478    0.1484385358
     14  C        -2.4767837155   -0.5653616363    0.0248408036
     15  H         0.4916001087    3.6642211877   -0.3353487930
     16  H         3.9319805358   -0.7522055940   -0.9611364875
     17  H        -3.7021377084   -2.3534076122    0.2134089427
     18  H        -0.7242339216    3.9222964800    0.9709646044
     19  H         1.0064910022    3.6078650948    1.3999203755
     20  H         4.3557971433   -1.4206089542    0.6670887369
     21  H         3.8132095553    0.2984869696    0.4970181215
     22  H        -1.7277172853   -3.9094988602    0.2883514420
     23  H        -3.3335338948    0.1228736028   -0.0057657446
     24  H         0.6015500296   -2.9838736270    0.1072929268
   Point Group: c1    Number of degrees of freedom:    66


   Energy is   -679.096562485

              Constraints and their Current Values
                                        Value     Constraint
   Dihedral:        2   1   3   5      154.999      155.000
   Dihedral:        1   2   4   7      -45.001      -45.000
 Hessian Updated using BFGS Update

   Using Lagrange Multiplier Algorithm


 63 Hessian modes will be used to form the next step
  Hessian Eigenvalues:
    -0.977775   -0.977090    0.043947    0.045000    0.045000    0.045000
     0.045001    0.045001    0.045003    0.045005    0.045011    0.045017
     0.045030    0.045127    0.045252    0.045993    0.112550    0.113898
     0.116870    0.116916    0.158093    0.159974    0.159991    0.159999
     0.160000    0.161123    0.163034    0.219949    0.223356    0.225720
     0.244355    0.249148    0.249597    0.249913    0.249993    0.251165
     0.300833    0.342721    0.342819    0.342875    0.342916    0.343866
     0.344140    0.346174    0.349173    0.349847    0.350095    0.350415
     0.377709    0.396671    0.413084    0.413434    0.422220    0.450476
     0.456761    0.466839    0.470384    0.475548    0.536375    0.956591
     1.008099    1.022772    1.031208

 Minimum Search - Taking P-RFO Step
 Searching for Lamda that Maximizes Along the Constraint modes Only
 Value Taken    Lamda =   0.00000022
 Searching for Lamda that Minimizes Along All other modes
 Value Taken    Lamda =  -0.00049543
 Step Taken.  Stepsize is  0.046044

                             Maximum     Tolerance    Cnvgd?
         Gradient            0.007206       0.000300      NO
         Displacement        0.017940       0.001200      NO
         Energy change     -0.001775       0.000001      NO


 New Cartesian Coordinates Obtained by Inverse Iteration

 Displacement from previous Coordinates is:  0.195708
 Adding empirical dispersion correction 
 ----------------------------------------------------------------
 Doing -D3(op) with
 s6 =   1.00000
 s8 =   0.78311
 a1 =   0.30000
 a2 =   4.25000
 n  =  10.00000
 -D3 energy without 3body term =     -0.0233958243 hartrees
 ----------------------------------------------------------------
             Standard Nuclear Orientation (Angstroms)
    I     Atom           X                Y                Z
 ----------------------------------------------------------------
    1      C      -0.0515591816    -0.9092858258    -0.0287971801
    2      C      -1.1737090529    -0.0318355531    -0.0581653713
    3      C       1.3721538540    -0.3699112336    -0.2609512913
    4      C      -1.0205475532     1.5026604934    -0.1351483719
    5      O       2.3163586073    -1.2456700438     0.3687850125
    6      O       1.6945102010     0.6402448722    -0.9310723278
    7      O      -0.0107193037     1.9228893298     0.7895192717
    8      O      -1.6966178321     2.2855233168    -0.8427920760
    9      C       0.1825979650     3.3892884763     0.6949086121
   10      C       3.6956715190    -0.7645567572     0.1184354616
   11      C      -0.2629627727    -2.3029777742     0.0980949577
   12      C      -1.5671950885    -2.8252668144     0.1925648959
   13      C      -2.6780176433    -1.9579020049     0.1458500871
   14      C      -2.4795815765    -0.5690565327     0.0223525110
   15      H       0.4775949850     3.6921553491    -0.3301780625
   16      H       3.9444409480    -0.7835837912    -0.9624931661
   17      H      -3.6972495402    -2.3629441997     0.2105996876
   18      H      -0.7383660985     3.9410713901     0.9743257230
   19      H       0.9935128133     3.6363735230     1.4045555708
   20      H       4.3636364183    -1.4552077394     0.6653991001
   21      H       3.8399143991     0.2695653339     0.4920327929
   22      H      -1.7179643385    -3.9089862218     0.2913701552
   23      H      -3.3393208210     0.1150090305    -0.0077773148
   24      H       0.6092540430    -2.9708391019     0.1122089210
 ----------------------------------------------------------------
 Molecular Point Group                 C1    NOp =  1
 Largest Abelian Subgroup              C1    NOp =  1
 Nuclear Repulsion Energy =   869.4562918724 hartrees
 There are       51 alpha and       51 beta electrons
 Applying Cartesian multipole field
    Component          Value
    ---------          -----
     (2,0,0)        1.00000E-11
     (0,2,0)        2.00000E-11
     (0,0,2)       -3.00000E-10
 Nucleus-field energy     =     0.0000000095 hartrees
 Requested basis set is STO-3G
 There are 38 shells and 80 basis functions
 A cutoff of  1.0D-12 yielded    629 shell pairs
 There are      3146 function pairs
 Smallest overlap matrix eigenvalue = 1.81E-01
 Guess MOs from SCF MO coefficient file
 Reading MOs from coefficient file
 Reading MOs from coefficient file
 A restricted hybrid HF-DFT SCF calculation will be
 performed using Pulay DIIS extrapolation
 Exchange:     0.2000 Hartree-Fock + 0.0800 Slater + 0.7200 B88
 Correlation:  0.1900 VWN1RPA + 0.8100 LYP
 Using SG-1 standard quadrature grid
 Dispersion:   Grimme D3
 SCF converges when DIIS error is below 1.0E-08
 Geometry optimization detected.  Setting ReadMinima to 0
 Setting SaveMinima to 0
 -------------------------------------------------------
 OpenMP Integral computing Module                
 Release: version 1.0, May 2013, Q-Chem Inc. Pittsburgh 
 -------------------------------------------------------
 -------------------------------------------------------
 OpenMP BLAS3 based DFT computing Module                
 Release: version 1.0, May 2013, Q-Chem Inc. Pittsburgh 
 -------------------------------------------------------
 ---------------------------------------
  Cycle       Energy         DIIS Error
 ---------------------------------------
    1    -679.0901333234      1.14E-03
    2    -679.0966585710      3.66E-04
    3    -679.0962212791      7.73E-04
    4    -679.0967848553      6.71E-05
    5    -679.0967889648      1.82E-05
    6    -679.0967892698      6.03E-06
    7    -679.0967893100      2.03E-06
    8    -679.0967893142      6.14E-07
    9    -679.0967893144      4.43E-07
   10    -679.0967893145      6.52E-08
   11    -679.0967893146      1.40E-08
   12    -679.0967893146      6.39E-09 Convergence criterion met
 ---------------------------------------
 SCF time:  CPU 38.28 s  wall 1.62 s
 SCF   energy in the final basis set = -679.0967893146
 Total energy in the final basis set = -679.0967893146
 
 --------------------------------------------------------------
 
                    Orbital Energies (a.u.)
 --------------------------------------------------------------
 
 Alpha MOs
 -- Occupied --
-18.937 -18.934 -18.875 -18.874 -10.105 -10.103 -10.066 -10.062
-10.033 -10.032 -10.021 -10.021 -10.021 -10.020  -1.012  -1.006
 -0.937  -0.932  -0.816  -0.723  -0.717  -0.666  -0.658  -0.589
 -0.576  -0.523  -0.495  -0.462  -0.443  -0.419  -0.417  -0.411
 -0.406  -0.398  -0.374  -0.367  -0.356  -0.349  -0.334  -0.318
 -0.317  -0.305  -0.292  -0.259  -0.253  -0.204  -0.199  -0.181
 -0.172  -0.155  -0.151
 -- Virtual --
  0.040   0.064   0.120   0.133   0.235   0.247   0.270   0.317
  0.337   0.351   0.375   0.389   0.415   0.421   0.426   0.430
  0.434   0.436   0.440   0.444   0.450   0.535   0.543   0.565
  0.577   0.645   0.648   0.746   0.771
 --------------------------------------------------------------
 
          Ground-State Mulliken Net Atomic Charges

     Atom                 Charge (a.u.)
  ----------------------------------------
      1 C                    -0.013659
      2 C                    -0.011676
      3 C                     0.210371
      4 C                     0.212015
      5 O                    -0.167501
      6 O                    -0.208529
      7 O                    -0.164947
      8 O                    -0.207978
      9 C                    -0.127125
     10 C                    -0.127889
     11 C                    -0.071558
     12 C                    -0.074231
     13 C                    -0.073060
     14 C                    -0.071441
     15 H                     0.093323
     16 H                     0.088940
     17 H                     0.085708
     18 H                     0.088161
     19 H                     0.090415
     20 H                     0.091054
     21 H                     0.090954
     22 H                     0.085229
     23 H                     0.090031
     24 H                     0.093394
  ----------------------------------------
  Sum of atomic charges =     0.000000

 -----------------------------------------------------------------
                    Cartesian Multipole Moments
 -----------------------------------------------------------------
    Charge (ESU x 10^10)
                -0.0000
    Dipole Moment (Debye)
         X       0.8468      Y      -1.0008      Z       1.0685
       Tot       1.6913
    Quadrupole Moments (Debye-Ang)
        XX     -65.4256     XY       2.8018     YY     -67.5196
        XZ      -1.3502     YZ       4.0675     ZZ     -76.6503
    Octopole Moments (Debye-Ang^2)
       XXX      32.6420    XXY     -10.0721    XYY       7.3271
       YYY      21.9840    XXZ       4.3648    XYZ      -0.5580
       YYZ       8.3130    XZZ       9.3659    YZZ       7.4677
       ZZZ      -9.6793
    Hexadecapole Moments (Debye-Ang^3)
      XXXX   -1484.2465   XXXY     -42.5956   XXYY    -533.2548
      XYYY       2.4979   YYYY   -1478.5882   XXXZ      -5.8333
      XXYZ      10.0091   XYYZ     -14.0130   YYYZ      16.6922
      XXZZ    -311.3292   XYZZ     -15.8230   YYZZ    -300.3422
      XZZZ      -6.1111   YZZZ      -4.7048   ZZZZ    -157.9487
 -----------------------------------------------------------------
 Calculating analytic gradient of the SCF energy
 Gradient of SCF Energy
            1           2           3           4           5           6
    1  -0.0005866  -0.0007347   0.0000291  -0.0001595  -0.0007296   0.0004023
    2  -0.0008893  -0.0009551  -0.0014006  -0.0003885   0.0001441   0.0011995
    3   0.0017461  -0.0027320   0.0009420   0.0020719  -0.0002632  -0.0011068
            7           8           9          10          11          12
    1   0.0000475  -0.0004520   0.0006788   0.0012743  -0.0001398   0.0000979
    2  -0.0002100   0.0007764   0.0009835  -0.0001565   0.0002917   0.0001533
    3  -0.0005198  -0.0006624   0.0004068   0.0003029  -0.0001235  -0.0000564
           13          14          15          16          17          18
    1   0.0000235   0.0001992  -0.0003034  -0.0000399  -0.0000250   0.0000574
    2   0.0001946  -0.0001728   0.0000058   0.0002052  -0.0000419   0.0000241
    3  -0.0000703   0.0004150  -0.0000009   0.0000421   0.0000557  -0.0001294
           19          20          21          22          23          24
    1   0.0001492   0.0001563  -0.0000496  -0.0000100   0.0000027   0.0001119
    2   0.0001379  -0.0000385   0.0000242  -0.0000293   0.0000906   0.0000514
    3   0.0000388   0.0000406  -0.0002458   0.0000090  -0.0000730  -0.0000872
 Max gradient component =       2.732E-03
 RMS gradient           =       6.405E-04
 Gradient time:  CPU 10.22 s  wall 0.43 s
 Geometry Optimization Parameters
   NAtoms,    NIC,     NZ,  NCons,   NDum,   NFix, NCnnct, MaxDiis
       24     152       0       2       0       0       0       0

 Cartesian Hessian Update
 Hessian Updated using BFGS Update


** CONSTRAINED OPTIMIZATION IN DELOCALIZED INTERNAL COORDINATES **
   Searching for a Minimum

   Optimization Cycle:   4

                       Coordinates (Angstroms)
     ATOM                X               Y               Z
      1  C        -0.0515591816   -0.9092858258   -0.0287971801
      2  C        -1.1737090529   -0.0318355531   -0.0581653713
      3  C         1.3721538540   -0.3699112336   -0.2609512913
      4  C        -1.0205475532    1.5026604934   -0.1351483719
      5  O         2.3163586073   -1.2456700438    0.3687850125
      6  O         1.6945102010    0.6402448722   -0.9310723278
      7  O        -0.0107193037    1.9228893298    0.7895192717
      8  O        -1.6966178321    2.2855233168   -0.8427920760
      9  C         0.1825979650    3.3892884763    0.6949086121
     10  C         3.6956715190   -0.7645567572    0.1184354616
     11  C        -0.2629627727   -2.3029777742    0.0980949577
     12  C        -1.5671950885   -2.8252668144    0.1925648959
     13  C        -2.6780176433   -1.9579020049    0.1458500871
     14  C        -2.4795815765   -0.5690565327    0.0223525110
     15  H         0.4775949850    3.6921553491   -0.3301780625
     16  H         3.9444409480   -0.7835837912   -0.9624931661
     17  H        -3.6972495402   -2.3629441997    0.2105996876
     18  H        -0.7383660985    3.9410713901    0.9743257230
     19  H         0.9935128133    3.6363735230    1.4045555708
     20  H         4.3636364183   -1.4552077394    0.6653991001
     21  H         3.8399143991    0.2695653339    0.4920327929
     22  H        -1.7179643385   -3.9089862218    0.2913701552
     23  H        -3.3393208210    0.1150090305   -0.0077773148
     24  H         0.6092540430   -2.9708391019    0.1122089210
   Point Group: c1    Number of degrees of freedom:    66


   Energy is   -679.096789315

              Constraints and their Current Values
                                        Value     Constraint
   Dihedral:        2   1   3   5      155.000      155.000
   Dihedral:        1   2   4   7      -45.000      -45.000
 Hessian Updated using BFGS Update

 60 Hessian modes will be used to form the next step
  Hessian Eigenvalues:
     0.040951    0.045000    0.045001    0.045001    0.045002    0.045004
     0.045011    0.045015    0.045021    0.045045    0.045138    0.045316
     0.046252    0.113891    0.114690    0.116870    0.116915    0.158816
     0.159974    0.159994    0.159999    0.160000    0.160029    0.161083
     0.162970    0.219683    0.222024    0.225962    0.244346    0.249053
     0.249616    0.249972    0.249997    0.250158    0.251277    0.302683
     0.342728    0.342874    0.342916    0.343587    0.343822    0.344141
     0.346953    0.349174    0.349841    0.350120    0.350406    0.368404
     0.412842    0.413092    0.416451    0.449744    0.456229    0.457806
     0.466945    0.467130    0.512335    0.540379    0.956792    0.984776

 Minimum Search - Taking Simple RFO Step
 Searching for Lamda that Minimizes Along All modes
 Value Taken    Lamda =  -0.00004013
 Step Taken.  Stepsize is  0.018508

                             Maximum     Tolerance    Cnvgd?
         Gradient           0.002215      0.000300      NO
         Displacement       0.005678      0.001200      NO
         Energy change     -0.000227      0.000001      NO


 New Cartesian Coordinates Obtained by Inverse Iteration

 Displacement from previous Coordinates is:  0.049760
 Adding empirical dispersion correction 
 ----------------------------------------------------------------
 Doing -D3(op) with
 s6 =   1.00000
 s8 =   0.78311
 a1 =   0.30000
 a2 =   4.25000
 n  =  10.00000
 -D3 energy without 3body term =     -0.0234161668 hartrees
 ----------------------------------------------------------------
             Standard Nuclear Orientation (Angstroms)
    I     Atom           X                Y                Z
 ----------------------------------------------------------------
    1      C      -0.0519414936    -0.9072338348    -0.0287752729
    2      C      -1.1743306976    -0.0310525229    -0.0547207121
    3      C       1.3701241431    -0.3656698086    -0.2576709361
    4      C      -1.0212005458     1.5018124286    -0.1337352655
    5      O       2.3137669319    -1.2444267913     0.3691759179
    6      O       1.6927612821     0.6476015201    -0.9212430262
    7      O      -0.0074446154     1.9199550118     0.7874534153
    8      O      -1.6984564787     2.2843956392    -0.8394795601
    9      C       0.1867461284     3.3851746511     0.6903174283
   10      C       3.6915748853    -0.7620147351     0.1189787674
   11      C      -0.2622537300    -2.3018745782     0.0966981729
   12      C      -1.5661615263    -2.8255443805     0.1908948107
   13      C      -2.6775927995    -1.9589226122     0.1454107970
   14      C      -2.4801535705    -0.5694780230     0.0241719657
   15      H       0.4830794475     3.6868080214    -0.3348479945
   16      H       3.9397866814    -0.7780932528    -0.9622036540
   17      H      -3.6965675440    -2.3646839094     0.2090365461
   18      H      -0.7334199157     3.9381759895     0.9703039967
   19      H       0.9979295914     3.6318040389     1.3995024448
   20      H       4.3595765665    -1.4548649255     0.6627508228
   21      H       3.8366984386     0.2703017560     0.4974401994
   22      H      -1.7160859733    -3.9094824836     0.2882852434
   23      H      -3.3406407914     0.1135514187    -0.0048790009
   24      H       0.6100405363    -2.9694810958     0.1107624922
 ----------------------------------------------------------------
 Molecular Point Group                 C1    NOp =  1
 Largest Abelian Subgroup              C1    NOp =  1
 Nuclear Repulsion Energy =   870.0128209746 hartrees
 There are       51 alpha and       51 beta electrons
 Applying Cartesian multipole field
    Component          Value
    ---------          -----
     (2,0,0)        1.00000E-11
     (0,2,0)        2.00000E-11
     (0,0,2)       -3.00000E-10
 Nucleus-field energy     =     0.0000000098 hartrees
 Requested basis set is STO-3G
 There are 38 shells and 80 basis functions
 A cutoff of  1.0D-12 yielded    629 shell pairs
 There are      3146 function pairs
 Smallest overlap matrix eigenvalue = 1.81E-01
 Guess MOs from SCF MO coefficient file
 Reading MOs from coefficient file
 Reading MOs from coefficient file
 A restricted hybrid HF-DFT SCF calculation will be
 performed using Pulay DIIS extrapolation
 Exchange:     0.2000 Hartree-Fock + 0.0800 Slater + 0.7200 B88
 Correlation:  0.1900 VWN1RPA + 0.8100 LYP
 Using SG-1 standard quadrature grid
 Dispersion:   Grimme D3
 SCF converges when DIIS error is below 1.0E-08
 Geometry optimization detected.  Setting ReadMinima to 0
 Setting SaveMinima to 0
 -------------------------------------------------------
 OpenMP Integral computing Module                
 Release: version 1.0, May 2013, Q-Chem Inc. Pittsburgh 
 -------------------------------------------------------
 -------------------------------------------------------
 OpenMP BLAS3 based DFT computing Module                
 Release: version 1.0, May 2013, Q-Chem Inc. Pittsburgh 
 -------------------------------------------------------
 ---------------------------------------
  Cycle       Energy         DIIS Error
 ---------------------------------------
    1    -679.0985128397      3.51E-04
    2    -679.0968082704      4.25E-05
    3    -679.0968051217      7.43E-05
    4    -679.0968105779      1.55E-05
    5    -679.0968107465      8.40E-06
    6    -679.0968108125      1.79E-06
    7    -679.0968108159      5.18E-07
    8    -679.0968108162      1.70E-07
    9    -679.0968108162      4.77E-08
   10    -679.0968108162      4.87E-08
   11    -679.0968108162      8.51E-09 Convergence criterion met
 ---------------------------------------
 SCF time:  CPU 34.23 s  wall 1.45 s
 SCF   energy in the final basis set = -679.0968108162
 Total energy in the final basis set = -679.0968108162
 
 --------------------------------------------------------------
 
                    Orbital Energies (a.u.)
 --------------------------------------------------------------
 
 Alpha MOs
 -- Occupied --
-18.937 -18.934 -18.876 -18.874 -10.105 -10.103 -10.066 -10.061
-10.033 -10.032 -10.021 -10.021 -10.021 -10.020  -1.013  -1.007
 -0.937  -0.932  -0.816  -0.724  -0.717  -0.666  -0.658  -0.589
 -0.577  -0.523  -0.495  -0.462  -0.443  -0.419  -0.417  -0.412
 -0.406  -0.398  -0.374  -0.367  -0.356  -0.349  -0.334  -0.318
 -0.317  -0.305  -0.292  -0.259  -0.253  -0.204  -0.199  -0.181
 -0.172  -0.155  -0.152
 -- Virtual --
  0.039   0.064   0.120   0.133   0.236   0.248   0.271   0.317
  0.338   0.351   0.375   0.389   0.415   0.421   0.426   0.430
  0.434   0.436   0.440   0.444   0.450   0.535   0.543   0.565
  0.577   0.646   0.648   0.746   0.771
 --------------------------------------------------------------
 
          Ground-State Mulliken Net Atomic Charges

     Atom                 Charge (a.u.)
  ----------------------------------------
      1 C                    -0.013769
      2 C                    -0.011841
      3 C                     0.210771
      4 C                     0.212328
      5 O                    -0.167626
      6 O                    -0.208588
      7 O                    -0.164955
      8 O                    -0.207967
      9 C                    -0.127080
     10 C                    -0.127851
     11 C                    -0.071428
     12 C                    -0.074277
     13 C                    -0.073050
     14 C                    -0.071376
     15 H                     0.093271
     16 H                     0.088840
     17 H                     0.085695
     18 H                     0.088107
     19 H                     0.090307
     20 H                     0.090921
     21 H                     0.090892
     22 H                     0.085237
     23 H                     0.090014
     24 H                     0.093424
  ----------------------------------------
  Sum of atomic charges =     0.000000

 -----------------------------------------------------------------
                    Cartesian Multipole Moments
 -----------------------------------------------------------------
    Charge (ESU x 10^10)
                 0.0000
    Dipole Moment (Debye)
         X       0.8417      Y      -1.0052      Z       1.0565
       Tot       1.6838
    Quadrupole Moments (Debye-Ang)
        XX     -65.4746     XY       2.8121     YY     -67.5629
        XZ      -1.3609     YZ       4.0506     ZZ     -76.6160
    Octopole Moments (Debye-Ang^2)
       XXX      32.4890    XXY     -10.0880    XYY       7.3192
       YYY      21.6854    XXZ       4.2788    XYZ      -0.5696
       YYZ       8.1834    XZZ       9.4094    YZZ       7.4669
       ZZZ      -9.8900
    Hexadecapole Moments (Debye-Ang^3)
      XXXX   -1483.7824   XXXY     -43.1952   XXYY    -532.8004
      XYYY       1.6257   YYYY   -1477.4087   XXXZ      -6.2095
      XXYZ      10.1162   XYYZ     -14.0540   YYYZ      16.7085
      XXZZ    -310.7908   XYZZ     -16.1256   YYZZ    -299.9021
      XZZZ      -6.4696   YZZZ      -4.5780   ZZZZ    -156.8142
 -----------------------------------------------------------------
 Calculating analytic gradient of the SCF energy
 Gradient of SCF Energy
            1           2           3           4           5           6
    1  -0.0001387   0.0001121   0.0000263  -0.0006505  -0.0003344  -0.0000692
    2   0.0000643  -0.0002993  -0.0002032   0.0000533  -0.0000215   0.0002771
    3   0.0013130  -0.0021287   0.0002098   0.0013291  -0.0000349  -0.0001999
            7           8           9          10          11          12
    1   0.0005161  -0.0000196   0.0003101   0.0005437   0.0000860  -0.0001803
    2  -0.0003746   0.0000974   0.0004388   0.0000092  -0.0000032  -0.0000469
    3  -0.0003814  -0.0001881   0.0000493   0.0000828  -0.0001483   0.0000007
           13          14          15          16          17          18
    1   0.0000059   0.0000278  -0.0001176  -0.0000160   0.0000060   0.0000018
    2  -0.0001792   0.0001568   0.0000256   0.0000095  -0.0000243  -0.0000029
    3  -0.0000369   0.0002787  -0.0000290  -0.0000208   0.0000340   0.0000541
           19          20          21          22          23          24
    1   0.0000114  -0.0000543  -0.0000435  -0.0000281   0.0000144  -0.0000096
    2  -0.0000245   0.0000239   0.0000248  -0.0000100  -0.0000045   0.0000133
    3  -0.0000700  -0.0000137  -0.0000408   0.0000055  -0.0000534  -0.0000111
 Max gradient component =       2.129E-03
 RMS gradient           =       3.787E-04
 Gradient time:  CPU 9.54 s  wall 0.40 s
 Geometry Optimization Parameters
   NAtoms,    NIC,     NZ,  NCons,   NDum,   NFix, NCnnct, MaxDiis
       24     152       0       2       0       0       0       0

 Cartesian Hessian Update
 Hessian Updated using BFGS Update


** CONSTRAINED OPTIMIZATION IN DELOCALIZED INTERNAL COORDINATES **
   Searching for a Minimum

   Optimization Cycle:   5

                       Coordinates (Angstroms)
     ATOM                X               Y               Z
      1  C        -0.0519414936   -0.9072338348   -0.0287752729
      2  C        -1.1743306976   -0.0310525229   -0.0547207121
      3  C         1.3701241431   -0.3656698086   -0.2576709361
      4  C        -1.0212005458    1.5018124286   -0.1337352655
      5  O         2.3137669319   -1.2444267913    0.3691759179
      6  O         1.6927612821    0.6476015201   -0.9212430262
      7  O        -0.0074446154    1.9199550118    0.7874534153
      8  O        -1.6984564787    2.2843956392   -0.8394795601
      9  C         0.1867461284    3.3851746511    0.6903174283
     10  C         3.6915748853   -0.7620147351    0.1189787674
     11  C        -0.2622537300   -2.3018745782    0.0966981729
     12  C        -1.5661615263   -2.8255443805    0.1908948107
     13  C        -2.6775927995   -1.9589226122    0.1454107970
     14  C        -2.4801535705   -0.5694780230    0.0241719657
     15  H         0.4830794475    3.6868080214   -0.3348479945
     16  H         3.9397866814   -0.7780932528   -0.9622036540
     17  H        -3.6965675440   -2.3646839094    0.2090365461
     18  H        -0.7334199157    3.9381759895    0.9703039967
     19  H         0.9979295914    3.6318040389    1.3995024448
     20  H         4.3595765665   -1.4548649255    0.6627508228
     21  H         3.8366984386    0.2703017560    0.4974401994
     22  H        -1.7160859733   -3.9094824836    0.2882852434
     23  H        -3.3406407914    0.1135514187   -0.0048790009
     24  H         0.6100405363   -2.9694810958    0.1107624922
   Point Group: c1    Number of degrees of freedom:    66


   Energy is   -679.096810816

              Constraints and their Current Values
                                        Value     Constraint
   Dihedral:        2   1   3   5      155.000      155.000
   Dihedral:        1   2   4   7      -45.000      -45.000
 Hessian Updated using BFGS Update

 60 Hessian modes will be used to form the next step
  Hessian Eigenvalues:
     0.031184    0.044806    0.045000    0.045001    0.045001    0.045004
     0.045007    0.045012    0.045019    0.045032    0.045155    0.045578
     0.048445    0.112537    0.113898    0.116914    0.116939    0.158194
     0.159875    0.159979    0.159996    0.159999    0.160333    0.161336
     0.162978    0.218630    0.220826    0.226042    0.244051    0.245862
     0.249332    0.249769    0.249978    0.250032    0.265619    0.307195
     0.342727    0.342874    0.342916    0.343444    0.344131    0.345498
     0.348305    0.349250    0.349892    0.350177    0.352425    0.373820
     0.402745    0.413041    0.413426    0.446444    0.456288    0.461300
     0.463278    0.474515    0.521275    0.536083    0.954988    0.969663

 Minimum Search - Taking Simple RFO Step
 Searching for Lamda that Minimizes Along All modes
 Value Taken    Lamda =  -0.00001170
 Step Taken.  Stepsize is  0.015011

                             Maximum     Tolerance    Cnvgd?
         Gradient           0.000711      0.000300      NO
         Displacement       0.005708      0.001200      NO
         Energy change     -0.000022      0.000001      NO


 New Cartesian Coordinates Obtained by Inverse Iteration

 Displacement from previous Coordinates is:  0.055026
 Adding empirical dispersion correction 
 ----------------------------------------------------------------
 Doing -D3(op) with
 s6 =   1.00000
 s8 =   0.78311
 a1 =   0.30000
 a2 =   4.25000
 n  =  10.00000
 -D3 energy without 3body term =     -0.0234031535 hartrees
 ----------------------------------------------------------------
             Standard Nuclear Orientation (Angstroms)
    I     Atom           X                Y                Z
 ----------------------------------------------------------------
    1      C      -0.0499047338    -0.9046649526    -0.0289079484
    2      C      -1.1729309835    -0.0289130559    -0.0526080763
    3      C       1.3727257501    -0.3651326413    -0.2563511444
    4      C      -1.0232475673     1.5037082723    -0.1315938585
    5      O       2.3136445585    -1.2479222103     0.3694123959
    6      O       1.6992427766     0.6477677613    -0.9177927933
    7      O      -0.0086706406     1.9236642726     0.7876249781
    8      O      -1.7040465374     2.2850486096    -0.8348476526
    9      C       0.1810369654     3.3886007549     0.6889974493
   10      C       3.6917233723    -0.7694680636     0.1175932464
   11      C      -0.2598582636    -2.2994691866     0.0969007668
   12      C      -1.5632930908    -2.8238962894     0.1906041269
   13      C      -2.6752568714    -1.9579484739     0.1446373469
   14      C      -2.4784909808    -0.5685289669     0.0243763120
   15      H       0.4801758964     3.6897265665    -0.3355334648
   16      H       3.9384830262    -0.7852132640    -0.9639320682
   17      H      -3.6941576936    -2.3640684092     0.2070914638
   18      H      -0.7413666714     3.9394646064     0.9658555197
   19      H       0.9895106579     3.6385280070     1.4002032311
   20      H       4.3585225578    -1.4652313189     0.6592734176
   21      H       3.8413084100     0.2616292031     0.4976915549
   22      H      -1.7124235200    -3.9079600279     0.2875872540
   23      H      -3.3395055181     0.1138867776    -0.0039690644
   24      H       0.6126140517    -2.9668504494     0.1113146061
 ----------------------------------------------------------------
 Molecular Point Group                 C1    NOp =  1
 Largest Abelian Subgroup              C1    NOp =  1
 Nuclear Repulsion Energy =   869.9602833840 hartrees
 There are       51 alpha and       51 beta electrons
 Applying Cartesian multipole field
    Component          Value
    ---------          -----
     (2,0,0)        1.00000E-11
     (0,2,0)        2.00000E-11
     (0,0,2)       -3.00000E-10
 Nucleus-field energy     =     0.0000000099 hartrees
 Requested basis set is STO-3G
 There are 38 shells and 80 basis functions
 A cutoff of  1.0D-12 yielded    629 shell pairs
 There are      3146 function pairs
 Smallest overlap matrix eigenvalue = 1.81E-01
 Guess MOs from SCF MO coefficient file
 Reading MOs from coefficient file
 Reading MOs from coefficient file
 A restricted hybrid HF-DFT SCF calculation will be
 performed using Pulay DIIS extrapolation
 Exchange:     0.2000 Hartree-Fock + 0.0800 Slater + 0.7200 B88
 Correlation:  0.1900 VWN1RPA + 0.8100 LYP
 Using SG-1 standard quadrature grid
 Dispersion:   Grimme D3
 SCF converges when DIIS error is below 1.0E-08
 Geometry optimization detected.  Setting ReadMinima to 0
 Setting SaveMinima to 0
 -------------------------------------------------------
 OpenMP Integral computing Module                
 Release: version 1.0, May 2013, Q-Chem Inc. Pittsburgh 
 -------------------------------------------------------
 -------------------------------------------------------
 OpenMP BLAS3 based DFT computing Module                
 Release: version 1.0, May 2013, Q-Chem Inc. Pittsburgh 
 -------------------------------------------------------
 ---------------------------------------
  Cycle       Energy         DIIS Error
 ---------------------------------------
    1    -679.0975960582      2.80E-04
    2    -679.0968104034      2.44E-05
    3    -679.0968088185      5.04E-05
    4    -679.0968111859      6.96E-06
    5    -679.0968112230      3.25E-06
    6    -679.0968112330      8.42E-07
    7    -679.0968112337      2.49E-07
    8    -679.0968112338      1.15E-07
    9    -679.0968112338      4.62E-08
   10    -679.0968112338      1.96E-08
   11    -679.0968112338      3.19E-09 Convergence criterion met
 ---------------------------------------
 SCF time:  CPU 39.12 s  wall 1.66 s
 SCF   energy in the final basis set = -679.0968112338
 Total energy in the final basis set = -679.0968112338
 
 --------------------------------------------------------------
 
                    Orbital Energies (a.u.)
 --------------------------------------------------------------
 
 Alpha MOs
 -- Occupied --
-18.937 -18.934 -18.876 -18.874 -10.105 -10.103 -10.066 -10.061
-10.033 -10.032 -10.021 -10.021 -10.021 -10.020  -1.013  -1.007
 -0.937  -0.933  -0.816  -0.724  -0.717  -0.666  -0.658  -0.589
 -0.576  -0.523  -0.495  -0.462  -0.443  -0.419  -0.418  -0.412
 -0.406  -0.398  -0.374  -0.367  -0.356  -0.349  -0.334  -0.318
 -0.317  -0.305  -0.292  -0.259  -0.253  -0.204  -0.199  -0.181
 -0.172  -0.155  -0.152
 -- Virtual --
  0.039   0.064   0.120   0.133   0.236   0.249   0.271   0.317
  0.338   0.351   0.375   0.389   0.415   0.421   0.426   0.430
  0.434   0.436   0.440   0.444   0.450   0.535   0.543   0.565
  0.578   0.646   0.649   0.746   0.771
 --------------------------------------------------------------
 
          Ground-State Mulliken Net Atomic Charges

     Atom                 Charge (a.u.)
  ----------------------------------------
      1 C                    -0.013793
      2 C                    -0.011897
      3 C                     0.210895
      4 C                     0.212425
      5 O                    -0.167749
      6 O                    -0.208538
      7 O                    -0.164953
      8 O                    -0.208011
      9 C                    -0.126994
     10 C                    -0.127794
     11 C                    -0.071383
     12 C                    -0.074296
     13 C                    -0.073054
     14 C                    -0.071342
     15 H                     0.093173
     16 H                     0.088774
     17 H                     0.085700
     18 H                     0.088165
     19 H                     0.090254
     20 H                     0.090799
     21 H                     0.090845
     22 H                     0.085242
     23 H                     0.090023
     24 H                     0.093506
  ----------------------------------------
  Sum of atomic charges =    -0.000000

 -----------------------------------------------------------------
                    Cartesian Multipole Moments
 -----------------------------------------------------------------
    Charge (ESU x 10^10)
                -0.0000
    Dipole Moment (Debye)
         X       0.8337      Y      -1.0079      Z       1.0489
       Tot       1.6766
    Quadrupole Moments (Debye-Ang)
        XX     -65.5283     XY       2.7840     YY     -67.5614
        XZ      -1.3644     YZ       4.0385     ZZ     -76.5976
    Octopole Moments (Debye-Ang^2)
[...]
 C         -0.093  0.011  0.004    0.019 -0.004  0.005   -0.003 -0.032 -0.043
 C         -0.012 -0.017  0.003    0.011 -0.085  0.008   -0.001 -0.002  0.000
 C         -0.009  0.008 -0.000   -0.138  0.011  0.007   -0.001  0.000  0.000
 C          0.007  0.016 -0.002    0.030  0.135 -0.013    0.001  0.002 -0.000
 C          0.001 -0.015  0.001    0.064 -0.049  0.002   -0.000 -0.002  0.000
 H          0.020  0.042  0.018    0.109  0.207  0.096    0.100  0.081  0.078
 H          0.472 -0.125  0.115   -0.063  0.041 -0.015   -0.327  0.334 -0.111
 H          0.018 -0.036  0.002    0.151 -0.491  0.037    0.003 -0.005  0.000
 H          0.026  0.025 -0.009    0.182  0.169  0.033   -0.057 -0.044 -0.112
 H          0.023  0.036 -0.023    0.075  0.274 -0.105    0.156 -0.070 -0.113
 H          0.595  0.212 -0.215   -0.125 -0.067  0.015    0.059  0.394  0.570
 H          0.467 -0.215  0.002   -0.096  0.064 -0.047    0.322 -0.241  0.196
 H          0.075 -0.021 -0.002    0.521 -0.231 -0.008    0.008 -0.003 -0.000
 H          0.040  0.015 -0.002    0.005 -0.119  0.008    0.005  0.002 -0.000
 H          0.068  0.048 -0.012    0.209  0.062 -0.022    0.007  0.005 -0.001
 TransDip   0.138  0.021 -0.014    0.054  0.073  0.010    0.032  0.043  0.059

 Mode:                49                     50                     51
 Frequency:      1482.80                1495.53                1496.19
 Force Cnst:      1.3564                 1.3801                 1.3814
 Red. Mass:       1.0471                 1.0473                 1.0474
 IR Active:          YES                    YES                    YES
 IR Intens:       12.835                 17.242                  3.029
 Raman Active:       YES                    YES                    YES
               X      Y      Z        X      Y      Z        X      Y      Z
 C         -0.001 -0.006  0.000   -0.003  0.005 -0.000    0.003  0.003 -0.001
 C          0.005  0.003 -0.001    0.000 -0.006  0.000   -0.003 -0.002  0.000
 C         -0.001  0.001  0.000   -0.003  0.001 -0.001   -0.004  0.005 -0.003
 C          0.000  0.001  0.002   -0.001  0.003 -0.000    0.004  0.001  0.003
 O          0.001  0.001  0.003    0.004  0.010 -0.007    0.004  0.009 -0.007
 O          0.000  0.000 -0.001    0.001 -0.003  0.002    0.000 -0.005  0.004
 O         -0.010 -0.000  0.008   -0.007  0.004 -0.010    0.006 -0.005  0.010
 O         -0.000 -0.000 -0.001    0.003 -0.002  0.003   -0.004  0.002 -0.004
 C         -0.041  0.009  0.033   -0.018  0.018 -0.026    0.017 -0.020  0.028
 C          0.003  0.009  0.013    0.015  0.029 -0.023    0.015  0.026 -0.022
 C         -0.003  0.003 -0.000    0.006  0.003 -0.001    0.002 -0.002  0.000
 C          0.008  0.000 -0.000   -0.002 -0.003  0.000   -0.005 -0.000  0.000
 C         -0.001 -0.006  0.001   -0.002  0.003 -0.000    0.001  0.004 -0.000
 C         -0.005  0.001  0.000    0.005  0.003 -0.001    0.002 -0.001  0.000
 H          0.301  0.284  0.240    0.325 -0.291  0.168   -0.338  0.327 -0.171
 H          0.092 -0.086  0.031   -0.227 -0.440 -0.021   -0.224 -0.401 -0.024
 H         -0.007  0.026 -0.002    0.000 -0.016  0.001    0.005 -0.015  0.001
 H         -0.187 -0.144 -0.411   -0.150 -0.146  0.373    0.161  0.158 -0.411
 H          0.508 -0.266 -0.362    0.118  0.178 -0.128   -0.110 -0.191  0.125
 H         -0.036 -0.125 -0.164    0.172  0.064 -0.069    0.155  0.066 -0.049
 H         -0.104  0.080 -0.070   -0.168 -0.100  0.458   -0.154 -0.097  0.431
 H         -0.023  0.012  0.000   -0.003 -0.004  0.000    0.014 -0.008  0.000
 H          0.005  0.010 -0.001   -0.017 -0.015  0.002    0.000 -0.003 -0.000
 H         -0.004  0.004 -0.000   -0.017 -0.017  0.002   -0.001 -0.005 -0.001
 TransDip   0.042 -0.051 -0.094    0.093 -0.051  0.081   -0.005 -0.052 -0.020

 Mode:                52                     53                     54
 Frequency:      1514.52                1612.06                1636.23
 Force Cnst:      3.5856                 9.6677                 9.0624
 Red. Mass:       2.6531                 6.3141                 5.7452
 IR Active:          YES                    YES                    YES
 IR Intens:       12.318                 11.637                  6.931
 Raman Active:       YES                    YES                    YES
               X      Y      Z        X      Y      Z        X      Y      Z
 C          0.171 -0.075 -0.006    0.141 -0.265  0.016   -0.127 -0.167  0.027
 C         -0.025  0.179 -0.010   -0.235  0.171 -0.005    0.194  0.119 -0.014
 C         -0.054  0.027 -0.001   -0.046  0.006  0.021   -0.001 -0.008  0.013
 C         -0.021 -0.035 -0.028    0.005  0.004 -0.033   -0.027 -0.027 -0.002
 O          0.003 -0.003  0.001   -0.005 -0.002 -0.000   -0.002 -0.003  0.001
 O          0.003 -0.007  0.002    0.018  0.015 -0.016    0.013  0.018 -0.015
 O          0.005  0.008  0.004    0.002  0.006  0.003    0.001 -0.002 -0.000
 O          0.008 -0.013  0.015    0.007 -0.023  0.023    0.005  0.002 -0.000
 C          0.007  0.014  0.000    0.001  0.002  0.002    0.002  0.003  0.001
 C          0.015  0.001 -0.002    0.004 -0.000 -0.001   -0.002  0.000 -0.001
 C         -0.138 -0.102  0.018   -0.087  0.132 -0.007    0.267  0.197 -0.034
 C         -0.006  0.092 -0.008    0.288 -0.208  0.003   -0.216 -0.063  0.017
 C          0.081 -0.053  0.001   -0.156  0.318 -0.021    0.102  0.196 -0.023
 C         -0.129 -0.100  0.013    0.113 -0.108  0.005   -0.253 -0.233  0.032
 H         -0.011 -0.091 -0.018   -0.014 -0.019 -0.009    0.002 -0.005 -0.001
 H         -0.066 -0.034 -0.014    0.002 -0.008 -0.001    0.014  0.001  0.002
 H          0.034  0.308 -0.030   -0.034 -0.462  0.045    0.194 -0.211  0.016
 H         -0.059 -0.053  0.030   -0.006 -0.003  0.000   -0.009 -0.008 -0.001
 H         -0.016 -0.047  0.024   -0.007 -0.008  0.008    0.004 -0.005  0.000
 H         -0.045 -0.025  0.008    0.001 -0.004 -0.002   -0.001 -0.000 -0.002
 H         -0.069  0.019  0.039   -0.008  0.002  0.006    0.004 -0.002 -0.003
 H          0.226  0.030 -0.014   -0.470  0.047  0.021    0.189 -0.226  0.014
 H          0.438  0.375 -0.040    0.047 -0.187  0.011    0.368  0.276 -0.031
 H          0.431  0.379 -0.066   -0.185  0.073  0.012   -0.310 -0.296  0.054
 TransDip  -0.104  0.014 -0.041   -0.108 -0.015 -0.006    0.045 -0.071  0.004

 Mode:                55                     56                     57
 Frequency:      1773.24                1781.69                3050.03
 Force Cnst:     21.8548                22.1898                 5.6436
 Red. Mass:      11.7967                11.8642                 1.0297
 IR Active:          YES                    YES                    YES
 IR Intens:      247.269                306.479                 32.155
 Raman Active:       YES                    YES                    YES
               X      Y      Z        X      Y      Z        X      Y      Z
 C         -0.063 -0.077  0.026   -0.023 -0.001  0.004    0.000 -0.000  0.000
 C         -0.002  0.032 -0.006    0.021 -0.088  0.021   -0.000  0.000 -0.000
 C          0.340  0.574 -0.417    0.026  0.025 -0.022   -0.001  0.002 -0.001
 C          0.030 -0.018  0.028   -0.277  0.556 -0.486    0.000  0.000  0.000
 O         -0.009 -0.043  0.029   -0.003 -0.002  0.001    0.003 -0.001  0.000
 O         -0.197 -0.369  0.274   -0.011 -0.018  0.016   -0.000 -0.001  0.001
 O         -0.010 -0.001 -0.004    0.030 -0.023  0.039   -0.000 -0.000 -0.000
 O         -0.012  0.013 -0.015    0.186 -0.340  0.324   -0.000  0.000 -0.000
 C         -0.001 -0.001 -0.002    0.007  0.031 -0.006   -0.002 -0.006  0.002
 C          0.030  0.007 -0.010    0.002  0.000 -0.001    0.039  0.011 -0.016
 C         -0.011  0.019  0.001    0.011  0.009 -0.003    0.000 -0.000  0.000
 C          0.022 -0.012 -0.002   -0.012  0.003  0.001    0.000  0.000 -0.000
 C         -0.006  0.015 -0.001    0.013 -0.008 -0.002    0.000 -0.000  0.000
 C          0.004 -0.014  0.001   -0.017  0.009 -0.004    0.000 -0.000 -0.000
 H          0.011 -0.027  0.004   -0.073 -0.091 -0.087    0.051  0.005 -0.082
 H         -0.121  0.067 -0.062   -0.007  0.004 -0.004   -0.110  0.052  0.635
 H         -0.001 -0.018  0.004    0.005  0.037 -0.004   -0.000 -0.000  0.000
 H          0.003 -0.005  0.022   -0.122 -0.067 -0.073   -0.066  0.064  0.003
 H         -0.000  0.015 -0.004   -0.052 -0.224  0.055    0.040  0.004  0.053
 H         -0.223 -0.061  0.074   -0.012 -0.003  0.005   -0.170  0.336 -0.217
 H         -0.116  0.095 -0.020   -0.005  0.004 -0.001   -0.212 -0.526 -0.217
 H         -0.026  0.004 -0.000    0.011 -0.004  0.004   -0.000 -0.001  0.000
 H          0.035  0.011 -0.005    0.011  0.049  0.014   -0.000  0.000 -0.000
 H         -0.045  0.004  0.005   -0.007 -0.006 -0.002   -0.002  0.001 -0.000
 TransDip   0.190  0.388 -0.259   -0.218  0.344 -0.386    0.174 -0.049 -0.019

 Mode:                58                     59                     60
 Frequency:      3050.85                3123.55                3126.67
 Force Cnst:      5.6451                 6.3638                 6.3782
 Red. Mass:       1.0294                 1.1071                 1.1074
 IR Active:          YES                    YES                    YES
 IR Intens:       36.962                 17.366                 14.427
 Raman Active:       YES                    YES                    YES
               X      Y      Z        X      Y      Z        X      Y      Z
 C          0.000 -0.000  0.000    0.000 -0.000 -0.000   -0.000 -0.000  0.000
 C          0.000  0.000  0.000    0.000  0.000  0.000    0.000 -0.000 -0.000
 C         -0.000  0.000 -0.000    0.000  0.000  0.000    0.000  0.000 -0.000
 C         -0.002 -0.000 -0.002   -0.000 -0.000 -0.000   -0.000 -0.000  0.000
 O          0.000 -0.000 -0.000   -0.000  0.000  0.000    0.000 -0.000  0.000
 O         -0.000 -0.000  0.000    0.000  0.000  0.000   -0.000 -0.000  0.000
 O          0.002  0.002  0.001    0.000  0.000  0.000   -0.000  0.000  0.000
 O          0.000 -0.001  0.001    0.000  0.000  0.000   -0.000  0.000  0.000
 C          0.013  0.039 -0.014    0.001 -0.000 -0.000    0.070 -0.038 -0.053
 C          0.006  0.002 -0.003   -0.012 -0.053 -0.078    0.000  0.000  0.001
 C         -0.000 -0.000  0.000   -0.000  0.000  0.000    0.000  0.000  0.000
 C          0.000  0.000 -0.000    0.000 -0.000  0.000   -0.000 -0.000  0.000
 C          0.000  0.000 -0.000   -0.000  0.000  0.000    0.000 -0.000  0.000
 C         -0.000 -0.000 -0.000   -0.000 -0.000  0.000   -0.000  0.000  0.000
 H         -0.336 -0.034  0.546   -0.003 -0.000  0.005   -0.351 -0.046  0.599
 H         -0.017  0.008  0.096   -0.119  0.038  0.679    0.001 -0.000 -0.008
 H         -0.001 -0.000  0.000    0.000  0.000 -0.000   -0.000 -0.000 -0.000
 H          0.436 -0.424 -0.020   -0.006  0.006  0.000   -0.509  0.496  0.006
 H         -0.265 -0.030 -0.349   -0.001 -0.000 -0.001    0.035 -0.004  0.019
 H         -0.026  0.051 -0.033    0.011 -0.036  0.001   -0.001  0.002 -0.001
 H         -0.032 -0.079 -0.033    0.249  0.627  0.238   -0.002 -0.006 -0.002
 H         -0.000 -0.000  0.000    0.000  0.000 -0.000    0.000  0.000 -0.000
 H         -0.000  0.001  0.000   -0.000  0.000 -0.000    0.000 -0.000 -0.000
 H          0.000 -0.000 -0.000    0.000 -0.000 -0.000   -0.000  0.000  0.000
 TransDip   0.109  0.160  0.020   -0.019 -0.072 -0.111    0.077 -0.061 -0.072

 Mode:                61                     62                     63
 Frequency:      3158.04                3158.42                3172.78
 Force Cnst:      6.5003                 6.5019                 6.4456
 Red. Mass:       1.1062                 1.1062                 1.0868
 IR Active:          YES                    YES                    YES
 IR Intens:       13.694                 12.950                  1.638
 Raman Active:       YES                    YES                    YES
               X      Y      Z        X      Y      Z        X      Y      Z
 C          0.000  0.000 -0.000    0.000 -0.000 -0.000    0.000  0.000 -0.000
 C         -0.000  0.000 -0.000    0.000 -0.000  0.000   -0.000 -0.000  0.000
 C         -0.001 -0.001  0.000   -0.000  0.000 -0.000   -0.000 -0.000  0.000
 C         -0.000 -0.000 -0.000    0.000  0.001 -0.000    0.000 -0.000  0.000
 O         -0.000  0.000 -0.000    0.000 -0.000  0.000    0.000  0.000 -0.000
 O          0.000  0.000 -0.000    0.000 -0.000  0.000    0.000  0.000 -0.000
 O          0.000 -0.000 -0.000    0.000 -0.000  0.000   -0.000 -0.000 -0.000
 O          0.000 -0.000 -0.000    0.000 -0.000  0.000   -0.000  0.000 -0.000
 C          0.001 -0.000  0.001   -0.052  0.015 -0.078    0.000 -0.000  0.000
 C          0.016 -0.078  0.051    0.000 -0.001  0.000   -0.000  0.000 -0.000
 C          0.000 -0.000  0.000    0.000 -0.000  0.000    0.006 -0.010  0.000
 C          0.000  0.000 -0.000    0.000  0.000 -0.000    0.020  0.052 -0.006
 C         -0.000 -0.000  0.000   -0.000 -0.000  0.000   -0.058 -0.011  0.004
 C          0.000 -0.000  0.000    0.000 -0.000  0.000    0.014 -0.015  0.001
 H          0.003  0.000 -0.004   -0.162 -0.010  0.236    0.000 -0.000 -0.000
 H          0.050 -0.038 -0.280    0.000 -0.000 -0.002   -0.000  0.000  0.001
 H          0.001  0.000 -0.000    0.002  0.000 -0.000    0.678  0.118 -0.043
 H         -0.002  0.002  0.000    0.231 -0.227 -0.025   -0.001  0.001  0.000
 H         -0.007 -0.001 -0.009    0.540  0.060  0.713   -0.001 -0.000 -0.002
 H         -0.351  0.696 -0.447   -0.004  0.009 -0.006    0.002 -0.003  0.002
 H          0.114  0.269  0.126    0.002  0.005  0.002   -0.000 -0.001 -0.000
 H         -0.001 -0.003  0.000   -0.000 -0.001  0.000   -0.221 -0.618  0.066
 H         -0.000  0.001 -0.000   -0.001  0.002 -0.000   -0.160  0.190 -0.009
 H         -0.002  0.003 -0.000   -0.000  0.000 -0.000   -0.091  0.110 -0.003
 TransDip   0.048 -0.092  0.058   -0.072 -0.007 -0.090   -0.025  0.032 -0.005

 Mode:                64                     65                     66
 Frequency:      3186.63                3198.56                3211.29
 Force Cnst:      6.5303                 6.6007                 6.6439
 Red. Mass:       1.0915                 1.0950                 1.0935
 IR Active:          YES                    YES                    YES
 IR Intens:        8.790                  7.166                  3.599
 Raman Active:       YES                    YES                    YES
               X      Y      Z        X      Y      Z        X      Y      Z
 C         -0.000  0.000  0.000   -0.000  0.001 -0.000    0.002  0.002 -0.000
 C         -0.001 -0.001  0.000   -0.003 -0.001  0.000   -0.000  0.001 -0.000
 C         -0.000  0.000 -0.000   -0.000 -0.000  0.000    0.000 -0.001  0.000
 C          0.000 -0.000  0.000    0.000 -0.001  0.000    0.000  0.000 -0.000
 O         -0.000 -0.000  0.000    0.000  0.000 -0.000    0.000  0.000 -0.000
 O          0.000 -0.000  0.000    0.000  0.000 -0.000   -0.000  0.000  0.000
 O         -0.000  0.000 -0.000    0.000  0.000  0.000   -0.000 -0.000 -0.000
 O         -0.000  0.000 -0.000   -0.000  0.000 -0.000    0.000 -0.000  0.000
 C          0.000 -0.000  0.000    0.000 -0.000  0.000    0.000  0.000  0.000
 C          0.000 -0.000  0.000   -0.000  0.000 -0.000   -0.000  0.000 -0.000
 C         -0.009  0.014 -0.001    0.009 -0.012  0.000    0.054 -0.063  0.001
 C         -0.018 -0.056  0.006    0.003  0.015 -0.002   -0.011 -0.023  0.003
 C         -0.045 -0.004  0.003    0.044  0.010 -0.003   -0.009 -0.001  0.000
 C          0.028 -0.031  0.001    0.046 -0.058  0.003   -0.004  0.006 -0.000
 H          0.000  0.000 -0.000    0.000  0.000 -0.001   -0.000 -0.000 -0.000
 H         -0.000 -0.000 -0.000    0.000  0.000 -0.000    0.000  0.000 -0.000
 H          0.505  0.083 -0.031   -0.485 -0.086  0.030    0.096  0.015 -0.006
 H         -0.000  0.000  0.000   -0.001  0.001  0.000    0.000 -0.000  0.000
 H         -0.001 -0.000 -0.001   -0.000  0.000 -0.000   -0.000 -0.000 -0.001
 H         -0.001  0.002 -0.001    0.001 -0.001  0.001    0.001 -0.002  0.002
 H         -0.000 -0.000 -0.000    0.000  0.000  0.000    0.000  0.000  0.000
 H          0.221  0.631 -0.068   -0.052 -0.158  0.017    0.094  0.257 -0.028
 H         -0.312  0.370 -0.019   -0.530  0.640 -0.032    0.051 -0.062  0.003
 H          0.133 -0.161  0.004   -0.110  0.131 -0.003   -0.616  0.722 -0.017
 TransDip  -0.060 -0.073  0.009    0.085  0.006 -0.008   -0.017 -0.058  0.003

 STANDARD THERMODYNAMIC QUANTITIES AT   298.15 K  AND     1.00 ATM

   This Molecule has  0 Imaginary Frequencies
   Zero point vibrational energy:      116.039 kcal/mol

   Atom    1 Element C  Has Mass   12.00000
   Atom    2 Element C  Has Mass   12.00000
   Atom    3 Element C  Has Mass   12.00000
   Atom    4 Element C  Has Mass   12.00000
   Atom    5 Element O  Has Mass   15.99491
   Atom    6 Element O  Has Mass   15.99491
   Atom    7 Element O  Has Mass   15.99491
   Atom    8 Element O  Has Mass   15.99491
   Atom    9 Element C  Has Mass   12.00000
   Atom   10 Element C  Has Mass   12.00000
   Atom   11 Element C  Has Mass   12.00000
   Atom   12 Element C  Has Mass   12.00000
   Atom   13 Element C  Has Mass   12.00000
   Atom   14 Element C  Has Mass   12.00000
   Atom   15 Element H  Has Mass    1.00783
   Atom   16 Element H  Has Mass    1.00783
   Atom   17 Element H  Has Mass    1.00783
   Atom   18 Element H  Has Mass    1.00783
   Atom   19 Element H  Has Mass    1.00783
   Atom   20 Element H  Has Mass    1.00783
   Atom   21 Element H  Has Mass    1.00783
   Atom   22 Element H  Has Mass    1.00783
   Atom   23 Element H  Has Mass    1.00783
   Atom   24 Element H  Has Mass    1.00783
   Molecular Mass:   194.057940 amu
   Principal axes and moments of inertia in amu*Bohr^2:
                             1           2           3
    Eigenvalues --     2387.46179  2462.88600  4473.71932
          X               0.97588     0.21831     0.00128
          Y              -0.21831     0.97583     0.00942
          Z               0.00080    -0.00947     0.99995
   Rotational Symmetry Number is   1
   The Molecule is an Asymmetric Top
   Translational Enthalpy:        0.889 kcal/mol
   Rotational Enthalpy:           0.889 kcal/mol
   Vibrational Enthalpy:        122.769 kcal/mol
   gas constant (RT):             0.592 kcal/mol
   Translational Entropy:        41.694  cal/mol.K
   Rotational Entropy:           31.642  cal/mol.K
   Vibrational Entropy:          45.035  cal/mol.K

   Total Enthalpy:              125.138 kcal/mol
   Total Entropy:               118.372  cal/mol.K
Archival summary:
1\1\nid04377\FREQ\ProcedureUnspecified\BasisUnspecified\41010\junteng\WedOct419:33:172017WedOct419:33:172017\0\\#,FREQ,ProcedureUnspecified,BasisUnspecified,\\0,1\O\C,1,1.34413\O,2,1.20651,1,124.494\C,1,1.4394,2,115.857,3,-10.0936,0\H,4,1.08759,1,105.425,2,177.253,0\H,4,1.09056,1,110.691,2,57.397,0\H,4,1.09121,1,109.528,2,-63.6833,0\C,2,1.49854,1,111.308,3,-176.535,0\C,8,1.39537,2,117.349,1,126.821,0\H,9,1.08325,8,118.892,2,1.91597,0\C,9,1.39275,8,120.611,2,-177.667,0\H,11,1.08402,9,119.843,8,179.601,0\C,11,1.39296,9,119.894,8,-0.342355,0\H,13,1.08399,11,120.271,9,-179.896,0\C,13,1.39195,11,119.88,9,-0.511914,0\H,15,1.08188,13,120.244,11,-178.571,0\C,15,1.39904,13,120.679,11,0.327269,0\C,17,1.49414,15,119.706,13,-173.481,0\O,18,1.20817,17,124.857,15,146.784,0\O,18,1.34941,17,111.667,15,-30.9621,0\C,20,1.43928,18,115.986,17,176.411,0\H,21,1.08767,20,105.353,18,-179.775,0\H,21,1.09078,20,110.409,18,60.7397,0\H,21,1.09117,20,110.428,18,-60.19,0\\\@

 Total job time:  4081.58s(wall), 20272.46s(cpu) 
 Wed Oct  4 19:33:18 2017

        *************************************************************
        *                                                           *
        *  Thank you very much for using Q-Chem.  Have a nice day.  *
        *                                                           *
        *************************************************************


