nid03054 10.128.12
Q-Chem Developer Version! Running on 10.128.12.*
                  Welcome to Q-Chem
     A Quantum Leap Into The Future Of Chemistry


 Q-Chem 5.0, Q-Chem, Inc., Pleasanton, CA (2017)

 Yihan Shao,  Zhengting Gan,  E. Epifanovsky,  A. T. B. Gilbert,  M. Wormit,  
 J. Kussmann,  A. W. Lange,  A. Behn,  Jia Deng,  Xintian Feng,  D. Ghosh,  
 M. Goldey,  P. R. Horn,  L. D. Jacobson,  I. Kaliman,  T. Kus,  A. Landau,  
 Jie Liu,  E. I. Proynov,  R. M. Richard,  R. P. Steele,  E. J. Sundstrom,  
 H. L. Woodcock III,  P. M. Zimmerman,  D. Zuev,  B. Albrecht,  E. Alguire,  
 S. A. Baeppler,  Z. Benda,  Y. A. Bernard,  E. J. Berquist,  K. B. Bravaya,  
 D. Casanova,  Chun-Min Chang,  Yunqing Chen,  A. Chien,  K. D. Closser,  
 M. P. Coons,  S. Dasgupta,  M. Diedenhofen,  Hainam Do,  R. G. Edgar,  
 Po-Tung Fang,  S. Fatehi,  Qingguo Feng,  Qinghui Ge,  A. Ghysels,  
 J. Gomes,  J. Gonthier,  A. Gunina,  M. W. D. Hanson-Heine,  
 P. H. P. Harbach,  A. W. Hauser,  J. E. Herr,  E. G. Hohenstein,  
 Z. C. Holden,  Kerwin Hui,  T.-C. Jagau,  Hyunjun Ji,  B. Kaduk,  
 K. Khistyaev,  Jaehoon Kim,  P. Klunzinger,  K. Koh,  D. Kosenkov,  
 T. Kowalczyk,  C. M. Krauter,  A. Kunitsa,  Ka Un Lao,  A. Laurent,  
 K. V. Lawler,  Joonho Lee,  D. Lefrancois,  S. Lehtola,  D. S. Levine,  
 Yi-Pei Li,  You-Sheng Lin,  Fenglai Liu,  E. Livshits,  A. Luenser,  
 P. Manohar,  E. Mansoor,  S. F. Manzer,  Shan-Ping Mao,  Yuezhi Mao,  
 N. Mardirossian,  A. V. Marenich,  L. A. Martinez-Martinez,  S. A. Maurer,  
 N. J. Mayhall,  S. C. McKenzie,  J.-M. Mewes,  A. F. Morrison,  K. Nanda,  
 T. S. Nguyen-Beck,  R. Olivares-Amaya,  J. A. Parkhill,  T. M. Perrine,  
 F. Plasser,  S. Prager,  A. Prociuk,  D. R. Rehn,  F. Rob,  M. Schneider,  
 N. Sergueev,  S. M. Sharada,  S. Sharma,  D. W. Small,  T. Stauch,  
 T. Stein,  Yu-Chuan Su,  A. J. W. Thom,  T. Tsuchimochi,  L. Vogt,  
 O. Vydrov,  M. A. Watson,  J. Wenzel,  M. de Wergifosse,  T. A. Wesolowski,  
 A. White,  J. Witte,  A. Yamada,  Jun Yang,  K. Yao,  S. Yeganeh,  
 S. R. Yost,  Zhi-Qiang You,  A. Zech,  Igor Ying Zhang,  Xing Zhang,  
 Yan Zhao,  Ying Zhu,  B. R. Brooks,  G. K. L. Chan,  C. J. Cramer,  
 M. S. Gordon,  W. J. Hehre,  A. Klamt,  M. W. Schmidt,  C. D. Sherrill,  
 D. G. Truhlar,  A. Aspuru-Guzik,  R. Baer,  A. T. Bell,  N. A. Besley,  
 Jeng-Da Chai,  A. Dreuw,  B. D. Dunietz,  T. R. Furlani,  Chao-Ping Hsu,  
 Yousung Jung,  Jing Kong,  D. S. Lambrecht,  WanZhen Liang,  C. Ochsenfeld,  
 V. A. Rassolov,  L. V. Slipchenko,  J. E. Subotnik,  T. Van Voorhis,  
 J. M. Herbert,  A. I. Krylov,  P. M. W. Gill,  M. Head-Gordon

 Contributors to earlier versions of Q-Chem not listed above: 
 R. D. Adamson,  B. Austin,  J. Baker,  G. J. O. Beran,  K. Brandhorst,  
 S. T. Brown,  E. F. C. Byrd,  A. K. Chakraborty,  C.-L. Cheng,  
 Siu Hung Chien,  D. M. Chipman,  D. L. Crittenden,  H. Dachsel,  
 R. A. DiStasio Jr.,  R. J. Doerksen,  A. D. Dutoi,  L. Fusti-Molnar,  
 W. A. Goddard III,  A. Golubeva-Zadorozhnaya,  S. R. Gwaltney,  G. Hawkins,  
 A. Heyden,  S. Hirata,  G. Kedziora,  F. J. Keil,  C. Kelley,  Jihan Kim,  
 R. A. King,  R. Z. Khaliullin,  P. P. Korambath,  W. Kurlancheek,  
 A. M. Lee,  M. S. Lee,  S. V. Levchenko,  Ching Yeh Lin,  D. Liotard,  
 R. C. Lochan,  I. Lotan,  P. E. Maslen,  N. Nair,  D. P. O'Neill,  
 D. Neuhauser,  E. Neuscamman,  C. M. Oana,  R. Olson,  B. Peters,  
 R. Peverati,  P. A. Pieniazek,  Y. M. Rhee,  J. Ritchie,  M. A. Rohrdanz,  
 E. Rosta,  N. J. Russ,  H. F. Schaefer III,  N. E. Schultz,  N. Shenvi,  
 A. C. Simmonett,  A. Sodt,  D. Stuck,  K. S. Thanthiriwatte,  V. Vanovschi,  
 Tao Wang,  A. Warshel,  C. F. Williams,  Q. Wu,  X. Xu,  W. Zhang

 Please cite Q-Chem as follows:
 Y. Shao et al., Mol. Phys. 113, 184-215 (2015)
 DOI: 10.1080/00268976.2014.952696

 Q-Chem 5.0.0 for Intel X86 EM64T Linux

 Parts of Q-Chem use Armadillo 5.200.1 (Boston Tea Smuggler).
 http://arma.sourceforge.net/

 Q-Chem begins on Wed Oct  4 18:26:26 2017  

Host: nid03054
0

     Scratch files written to /global/cscratch1/sd/junteng/scratch/18/opt_11n11-+.save//

Checking the input file for inconsistencies... 	...done.

--------------------------------------------------------------
User input:
--------------------------------------------------------------
$molecule
0  1
C    0.304  -2.425   0.241
C   -0.187  -2.670   1.539
C    0.664  -1.037  -0.131
C   -0.223  -1.586   2.547
O    1.892  -1.027  -0.706
O   -0.050  -0.071   0.073
O    1.036  -1.102   2.698
O   -1.208  -1.281   3.197
C    1.131  -0.051   3.659
C    2.346   0.277  -1.069
C    0.337  -3.468  -0.713
C   -0.078  -4.750  -0.324
C   -0.556  -4.992   0.965
C   -0.619  -3.961   1.912
H    0.496   0.792   3.371
H    1.683   0.717  -1.820
H   -0.885  -5.997   1.223
H    0.862  -0.417   4.655
H    2.169   0.291   3.685
H    3.345   0.180  -1.503
H    2.413   0.921  -0.186
H   -0.050  -5.576  -1.034
C   -1.153  -4.262   3.286
C    0.800  -3.263  -2.130
H    0.377  -2.346  -2.553
H    0.472  -4.085  -2.776
H    1.893  -3.221  -2.170
H   -2.134  -3.796   3.422
H   -0.464  -3.904   4.057
H   -1.273  -5.340   3.441
$end


$opt
CONSTRAINT
tors    2    1    3    5    130.2
tors    1    2    4    7    -52.3
ENDCONSTRAINT
$end

$rem
JOBTYPE                   OPT
METHOD                    B3LYP
DFT_D                     D3_OP
BASIS                     STO-3G
GEOM_OPT_MAX_CYCLES       500
SYMMETRY                  False
THRESH                    12
SCF_CONVERGENCE           8
MAX_SUB_FILE_NUM          128
MEM_STATIC                400
MEM_TOTAL                 4000
$end

--------------------------------------------------------------
 Adding empirical dispersion correction 
 ----------------------------------------------------------------
 Doing -D3(op) with
 s6 =   1.00000
 s8 =   0.78311
 a1 =   0.30000
 a2 =   4.25000
 n  =  10.00000
 -D3 energy without 3body term =     -0.0331083887 hartrees
 ----------------------------------------------------------------
             Standard Nuclear Orientation (Angstroms)
    I     Atom           X                Y                Z
 ----------------------------------------------------------------
    1      C       0.4125011125    -0.6355076896    -0.1241194854
    2      C      -0.9199718424    -0.1775825584    -0.0970935988
    3      C       1.4909203662     0.3367582974    -0.4177838583
    4      C      -1.2227722681     1.2652754643    -0.2345295060
    5      O       2.4794071129     0.2069212582     0.5013164054
    6      O       1.4599007613     1.1281261782    -1.3437118584
    7      O      -0.5671603921     1.9341318938     0.7477851812
    8      O      -2.0192894914     1.7300109239    -1.0316062059
    9      C      -0.7911410252     3.3435492204     0.7249274575
   10      C       3.5538033154     1.1302705963     0.3241165186
   11      C       0.6908325096    -2.0150972909     0.0112251320
   12      C      -0.3765806243    -2.9000235158     0.2224235647
   13      C      -1.6950140119    -2.4427633611     0.2572883515
   14      C      -1.9865449822    -1.0814074782     0.0977300441
   15      H      -0.4624112412     3.7697958433    -0.2274740049
   16      H       4.0453282984     0.9641147078    -0.6391930950
   17      H      -2.4970302573    -3.1634910569     0.4061222542
   18      H      -1.8474376543     3.5666794906     0.9059890877
   19      H      -0.2002982988     3.7931790170     1.5273126011
   20      H       4.2838919982     0.9582831261     1.1198280401
   21      H       3.1925407862     2.1609409489     0.4023597877
   22      H      -0.1906002296    -3.9666582263     0.3443320837
   23      C      -3.4222635693    -0.6326602424     0.1288918324
   24      C       2.0849910947    -2.5767940219    -0.0602005081
   25      H       2.6449814024    -2.1343937269    -0.8905256458
   26      H       2.0671057384    -3.6580417916    -0.2367433488
   27      H       2.6144009167    -2.3996751371     0.8812702249
   28      H      -3.7454857248    -0.3261374563    -0.8709002559
   29      H      -3.5543120453     0.1968300833     0.8302013215
   30      H      -4.0860980650    -1.4390523749     0.4598971058
 ----------------------------------------------------------------
 Molecular Point Group                 C1    NOp =  1
 Largest Abelian Subgroup              C1    NOp =  1
 Nuclear Repulsion Energy =  1141.1730988225 hartrees
 There are       59 alpha and       59 beta electrons
 Requested basis set is STO-3G
 There are 46 shells and 94 basis functions

 Total QAlloc Memory Limit   4000 MB
 Mega-Array Size       392 MB
 MEM_STATIC part       400 MB
 A cutoff of  1.0D-12 yielded    921 shell pairs
 There are      4311 function pairs
 
 -------------------------------------------------------
 OpenMP Integral Computing Module                       
 Release: version 1.0, May 2013, Q-Chem Inc. Pittsburgh 
 -------------------------------------------------------
 Integral Job Info:
 Integral job number is                      11
 Integral operator is                         1
 short-range coefficients                     0
 long-range coefficients              100000000
 Omega coefficients                           0
 if combine SR and LR in K                    0
 Integral screening is                        0
 Integral computing path is                   2
 max size of driver memory is            800000
 size of driver memory is                 45569
 size of scratch memory is               945100
 max col of scratch BK array                289
 max len of scratch array in speh3           22
 max len of scratch index in speh4            8
 max int batch size is                      520
 min int batch size is                       52
 fixed nKL is                                52
 max L of basis functions is                  1
 order of int derivative is                   0
 number of shells is                         46
 number of basis is                          94
 number of cartesian basis is                94
 number of contracted shell pairs           921
 number of primitive shell pairs           4930
 maxK2 (contraction) of shell pair            9
 max number of K2 of shell pair               1
 max number of CS2 of shell pair            151
 max number of PS2 of shell pair            660
 mem total for path MDJ                   29642
 -------------------------------------------------------
 Smallest overlap matrix eigenvalue = 1.76E-01

 Scale SEOQF with 1.000000e-01/1.000000e-01/1.000000e+00

 Standard Electronic Orientation quadrupole field applied
 Nucleus-field energy     =    -0.0000000013 hartrees
 Guess from superposition of atomic densities
 Warning:  Energy on first SCF cycle will be non-variational
 A restricted hybrid HF-DFT SCF calculation will be
 performed using Pulay DIIS extrapolation
 Exchange:     0.2000 Hartree-Fock + 0.0800 Slater + 0.7200 B88
 Correlation:  0.1900 VWN1RPA + 0.8100 LYP
 Using SG-1 standard quadrature grid
 Dispersion:   Grimme D3
 SCF converges when DIIS error is below 1.0E-08
 -------------------------------------------------------
 OpenMP Integral computing Module                
 Release: version 1.0, May 2013, Q-Chem Inc. Pittsburgh 
 -------------------------------------------------------
 -------------------------------------------------------
 OpenMP BLAS3 based DFT computing Module                
 Release: version 1.0, May 2013, Q-Chem Inc. Pittsburgh 
 -------------------------------------------------------
 ---------------------------------------
  Cycle       Energy         DIIS Error
 ---------------------------------------
    1    -756.4854003916      1.14E-01
    2    -756.5487627268      1.27E-02
    3    -755.4707920431      3.40E-02
    4    -756.7513971877      4.53E-03
    5    -756.7739817500      1.66E-03
    6    -756.7772694929      3.92E-04
    7    -756.7774746141      1.05E-04
    8    -756.7774914576      3.18E-05
    9    -756.7774924185      1.90E-05
   10    -756.7774928824      3.60E-06
   11    -756.7774928987      8.95E-07
   12    -756.7774928997      2.23E-07
   13    -756.7774928998      8.13E-08
   14    -756.7774928998      3.01E-08
   15    -756.7774928998      6.43E-09 Convergence criterion met
 ---------------------------------------
 SCF time:  CPU 91.39 s  wall 3.92 s
 SCF   energy in the final basis set = -756.7774928998
 Total energy in the final basis set = -756.7774928998
 
 --------------------------------------------------------------
 
                    Orbital Energies (a.u.)
 --------------------------------------------------------------
 
 Alpha MOs
 -- Occupied --
-18.949 -18.946 -18.868 -18.867 -10.115 -10.112 -10.075 -10.072
-10.020 -10.019 -10.017 -10.016 -10.015 -10.013 -10.004 -10.003
 -1.048  -1.042  -0.958  -0.955  -0.820  -0.752  -0.730  -0.692
 -0.683  -0.672  -0.622  -0.590  -0.562  -0.506  -0.500  -0.461
 -0.453  -0.447  -0.432  -0.425  -0.415  -0.398  -0.392  -0.385
 -0.382  -0.369  -0.357  -0.350  -0.346  -0.339  -0.326  -0.321
 -0.309  -0.293  -0.287  -0.250  -0.248  -0.197  -0.184  -0.181
 -0.180  -0.152  -0.148
 -- Virtual --
  0.062   0.077   0.130   0.142   0.242   0.288   0.309   0.353
  0.372   0.389   0.394   0.406   0.410   0.436   0.440   0.445
  0.446   0.452   0.455   0.457   0.460   0.468   0.471   0.475
  0.484   0.492   0.504   0.577   0.590   0.602   0.627   0.702
  0.709   0.786   0.800
 --------------------------------------------------------------
 
          Ground-State Mulliken Net Atomic Charges

     Atom                 Charge (a.u.)
  ----------------------------------------
      1 C                    -0.020315
      2 C                    -0.018928
      3 C                     0.235748
      4 C                     0.236538
      5 O                    -0.181275
      6 O                    -0.229574
      7 O                    -0.184253
      8 O                    -0.224009
      9 C                    -0.127614
     10 C                    -0.126341
     11 C                     0.009809
     12 C                    -0.080336
     13 C                    -0.080433
     14 C                     0.010066
     15 H                     0.096676
     16 H                     0.093049
     17 H                     0.079304
     18 H                     0.092734
     19 H                     0.094731
     20 H                     0.096134
     21 H                     0.093638
     22 H                     0.078551
     23 C                    -0.231252
     24 C                    -0.229602
     25 H                     0.082934
     26 H                     0.080995
     27 H                     0.092446
     28 H                     0.095901
     29 H                     0.084121
     30 H                     0.080559
  ----------------------------------------
  Sum of atomic charges =    -0.000000

 -----------------------------------------------------------------
                    Cartesian Multipole Moments
 -----------------------------------------------------------------
    Charge (ESU x 10^10)
                -0.0000
    Dipole Moment (Debye)
         X       1.2962      Y      -0.1010      Z       1.7364
       Tot       2.1692
    Quadrupole Moments (Debye-Ang)
        XX     -77.8750     XY       2.5850     YY     -77.1677
        XZ      -2.0609     YZ       4.6538     ZZ     -90.4602
    Octopole Moments (Debye-Ang^2)
       XXX      31.3988    XXY       6.2045    XYY       3.2220
       YYY      33.1978    XXZ       7.9534    XYZ      -0.8801
       YYZ      11.8410    XZZ       4.7944    YZZ       7.2816
       ZZZ      -1.5429
    Hexadecapole Moments (Debye-Ang^3)
      XXXX   -1962.7992   XXXY      47.3519   XXYY    -646.4083
      XYYY     -13.2508   YYYY   -1735.6892   XXXZ      -1.7022
      XXYZ      17.5216   XYYZ      -9.7525   YYYZ      13.7299
      XXZZ    -388.8525   XYZZ      -6.2694   YYZZ    -361.9148
      XZZZ       9.5993   YZZZ       1.8299   ZZZZ    -235.9432
 -----------------------------------------------------------------
 Calculating analytic gradient of the SCF energy
 Gradient of SCF Energy
            1           2           3           4           5           6
    1   0.0213257  -0.0080944   0.0219533   0.0038728  -0.0213627  -0.0049191
    2   0.0280999   0.0335195   0.0130442   0.0252676   0.0316096  -0.0513407
    3  -0.0060298  -0.0071836  -0.0015978   0.0068760  -0.0526758   0.0521430
            7           8           9          10          11          12
    1  -0.0435928   0.0411236   0.0034144  -0.0167356   0.0111495   0.0041761
    2   0.0026304  -0.0357710  -0.0228437  -0.0142570   0.0022105   0.0017290
    3  -0.0483522   0.0435054  -0.0000375   0.0032563  -0.0024467   0.0009026
           13          14          15          16          17          18
    1  -0.0031860  -0.0059502   0.0008837  -0.0064515   0.0072787   0.0118702
    2   0.0033800   0.0100336  -0.0081916  -0.0041587   0.0033181  -0.0067733
    3  -0.0007584   0.0006345   0.0113512   0.0120997  -0.0015351   0.0021588
           19          20          21          22          23          24
    1  -0.0064546  -0.0051214   0.0007536  -0.0036346   0.0171200  -0.0151163
    2  -0.0018106   0.0037889  -0.0128389   0.0064391  -0.0027253   0.0083908
    3  -0.0085387  -0.0084767   0.0036917  -0.0000443  -0.0037533   0.0048797
           25          26          27          28          29          30
    1  -0.0053769   0.0027466  -0.0067816   0.0030568   0.0020212   0.0000315
    2  -0.0049794   0.0040361  -0.0027634  -0.0060541  -0.0076737   0.0046841
    3   0.0005309  -0.0013090  -0.0034106   0.0044744  -0.0000072  -0.0003474
 Max gradient component =       5.268E-02
 RMS gradient           =       1.699E-02
 Gradient time:  CPU 16.86 s  wall 0.73 s
 Geometry Optimization Parameters
   NAtoms,    NIC,     NZ,  NCons,   NDum,   NFix, NCnnct, MaxDiis
       30     194       0       2       0       0       0       0


** CONSTRAINED OPTIMIZATION IN DELOCALIZED INTERNAL COORDINATES **
   Searching for a Minimum

   Optimization Cycle:   1

                       Coordinates (Angstroms)
     ATOM                X               Y               Z
      1  C         0.4125011125   -0.6355076896   -0.1241194854
      2  C        -0.9199718424   -0.1775825584   -0.0970935988
      3  C         1.4909203662    0.3367582974   -0.4177838583
      4  C        -1.2227722681    1.2652754643   -0.2345295060
      5  O         2.4794071129    0.2069212582    0.5013164054
      6  O         1.4599007613    1.1281261782   -1.3437118584
      7  O        -0.5671603921    1.9341318938    0.7477851812
      8  O        -2.0192894914    1.7300109239   -1.0316062059
      9  C        -0.7911410252    3.3435492204    0.7249274575
     10  C         3.5538033154    1.1302705963    0.3241165186
     11  C         0.6908325096   -2.0150972909    0.0112251320
     12  C        -0.3765806243   -2.9000235158    0.2224235647
     13  C        -1.6950140119   -2.4427633611    0.2572883515
     14  C        -1.9865449822   -1.0814074782    0.0977300441
     15  H        -0.4624112412    3.7697958433   -0.2274740049
     16  H         4.0453282984    0.9641147078   -0.6391930950
     17  H        -2.4970302573   -3.1634910569    0.4061222542
     18  H        -1.8474376543    3.5666794906    0.9059890877
     19  H        -0.2002982988    3.7931790170    1.5273126011
     20  H         4.2838919982    0.9582831261    1.1198280401
     21  H         3.1925407862    2.1609409489    0.4023597877
     22  H        -0.1906002296   -3.9666582263    0.3443320837
     23  C        -3.4222635693   -0.6326602424    0.1288918324
     24  C         2.0849910947   -2.5767940219   -0.0602005081
     25  H         2.6449814024   -2.1343937269   -0.8905256458
     26  H         2.0671057384   -3.6580417916   -0.2367433488
     27  H         2.6144009167   -2.3996751371    0.8812702249
     28  H        -3.7454857248   -0.3261374563   -0.8709002559
     29  H        -3.5543120453    0.1968300833    0.8302013215
     30  H        -4.0860980650   -1.4390523749    0.4598971058
   Point Group: c1    Number of degrees of freedom:    84


   Energy is   -756.777492900

              Constraints and their Current Values
                                        Value     Constraint
   Dihedral:        2   1   3   5      131.435      130.200
   Dihedral:        1   2   4   7      -57.239      -52.300

 Attempting to Generate Delocalized Internal Coordinates

   Using Lagrange Multiplier Algorithm


 86 Hessian modes will be used to form the next step
  Hessian Eigenvalues:
    -0.977753   -0.977753    0.045000    0.045000    0.045000    0.045000
     0.045000    0.045000    0.045000    0.045000    0.045000    0.045001
     0.045002    0.045003    0.045005    0.045012    0.045013    0.045137
     0.045284    0.093755    0.094007    0.094234    0.094419    0.113828
     0.113875    0.116854    0.116890    0.159975    0.159998    0.160000
     0.160000    0.160000    0.160000    0.160000    0.160000    0.160000
     0.160000    0.160000    0.160000    0.160000    0.160000    0.224723
     0.244737    0.248923    0.249138    0.249624    0.249908    0.249990
     0.249993    0.250000    0.250000    0.250000    0.250000    0.250000
     0.318837    0.319059    0.341608    0.341647    0.342469    0.342555
     0.342769    0.342935    0.342935    0.343290    0.343371    0.343554
     0.344100    0.344105    0.344456    0.344917    0.348625    0.349867
     0.408089    0.409183    0.413229    0.413817    0.437594    0.446154
     0.449565    0.458786    0.535065    0.537664    0.958663    0.960829
     1.022753    1.022753

 Minimum Search - Taking P-RFO Step
 Searching for Lamda that Maximizes Along the Constraint modes Only
 Value Taken    Lamda =   0.00348245
 Searching for Lamda that Minimizes Along All other modes
 Value Taken    Lamda =  -0.05972097
 Calculated Step too Large.  Step scaled by  0.842570
 Step Taken.  Stepsize is  0.300000

                             Maximum     Tolerance    Cnvgd?
         Gradient            0.096534       0.000300      NO
         Displacement        0.129607       0.001200      NO
         Energy change     *********       0.000001      NO


 New Cartesian Coordinates Obtained by Inverse Iteration

 Displacement from previous Coordinates is:  0.976157
 Adding empirical dispersion correction 
 ----------------------------------------------------------------
 Doing -D3(op) with
 s6 =   1.00000
 s8 =   0.78311
 a1 =   0.30000
 a2 =   4.25000
 n  =  10.00000
 -D3 energy without 3body term =     -0.0328195552 hartrees
 ----------------------------------------------------------------
             Standard Nuclear Orientation (Angstroms)
    I     Atom           X                Y                Z
 ----------------------------------------------------------------
    1      C       0.3814844773    -0.6896655727    -0.1192440285
    2      C      -0.9629577608    -0.2320168731    -0.0823459111
    3      C       1.4816316228     0.3425867018    -0.3952206691
    4      C      -1.2618491121     1.2684014468    -0.2062641898
    5      O       2.5043469944     0.2239251781     0.5595666017
    6      O       1.4607327721     1.1878369877    -1.3162284087
    7      O      -0.5081065240     1.9666797448     0.7545349789
    8      O      -2.0630488917     1.7925193773    -1.0085395446
    9      C      -0.6979626052     3.4178187585     0.6753719086
   10      C       3.5698798365     1.2117082608     0.3702537341
   11      C       0.6734352708    -2.0782747294    -0.0035746773
   12      C      -0.4006720246    -2.9740142082     0.1941630093
   13      C      -1.7304007546    -2.5189227167     0.2438011467
   14      C      -2.0362866383    -1.1471443643     0.1064793053
   15      H      -0.4074145106     3.8147865892    -0.3176228242
   16      H       4.0781839289     1.0860028703    -0.6067413901
   17      H      -2.5403358166    -3.2446674635     0.3873972157
   18      H      -1.7471483254     3.7060372739     0.8872948568
   19      H      -0.0454451746     3.8714965108     1.4427865727
   20      H       4.3076504529     1.0483216761     1.1761362403
   21      H       3.1852427383     2.2483892621     0.4459903584
   22      H      -0.1997557471    -4.0475709898     0.2981557720
   23      C      -3.4967957128    -0.6812815711     0.1503361878
   24      C       2.1042159850    -2.6244392459    -0.0844136438
   25      H       2.6679591449    -2.1542507497    -0.9044250421
   26      H       2.0912998182    -3.7078866476    -0.2738134470
   27      H       2.6469571471    -2.4513254731     0.8588166269
   28      H      -3.8318804731    -0.3471840414    -0.8448179662
   29      H      -3.6321435586     0.1495935006     0.8598540253
   30      H      -4.1546228694    -1.5018783712     0.4714488252
 ----------------------------------------------------------------
 Molecular Point Group                 C1    NOp =  1
 Largest Abelian Subgroup              C1    NOp =  1
 Nuclear Repulsion Energy =  1121.0573930158 hartrees
 There are       59 alpha and       59 beta electrons
 Applying Cartesian multipole field
    Component          Value
    ---------          -----
     (2,0,0)        1.00000E-11
     (0,2,0)        2.00000E-11
     (0,0,2)       -3.00000E-10
 Nucleus-field energy     =     0.0000000017 hartrees
 Requested basis set is STO-3G
 There are 46 shells and 94 basis functions
 A cutoff of  1.0D-12 yielded    916 shell pairs
 There are      4297 function pairs
 Smallest overlap matrix eigenvalue = 1.82E-01
 Guess MOs from SCF MO coefficient file
 Reading MOs from coefficient file
 Reading MOs from coefficient file
 A restricted hybrid HF-DFT SCF calculation will be
 performed using Pulay DIIS extrapolation
 Exchange:     0.2000 Hartree-Fock + 0.0800 Slater + 0.7200 B88
 Correlation:  0.1900 VWN1RPA + 0.8100 LYP
 Using SG-1 standard quadrature grid
 Dispersion:   Grimme D3
 SCF converges when DIIS error is below 1.0E-08
 Geometry optimization detected.  Setting ReadMinima to 0
 Setting SaveMinima to 0
 -------------------------------------------------------
 OpenMP Integral computing Module                
 Release: version 1.0, May 2013, Q-Chem Inc. Pittsburgh 
 -------------------------------------------------------
 -------------------------------------------------------
 OpenMP BLAS3 based DFT computing Module                
 Release: version 1.0, May 2013, Q-Chem Inc. Pittsburgh 
 -------------------------------------------------------
 ---------------------------------------
  Cycle       Energy         DIIS Error
 ---------------------------------------
    1    -756.6347079208      6.48E-03
    2    -756.7975426919      2.43E-03
    3    -756.7826729174      4.22E-03
    4    -756.8046929811      6.32E-04
    5    -756.8052190936      1.70E-04
    6    -756.8052563490      5.43E-05
    7    -756.8052597880      2.56E-05
    8    -756.8052605155      1.12E-05
    9    -756.8052606899      1.89E-06
   10    -756.8052606962      4.82E-07
   11    -756.8052606966      1.47E-07
   12    -756.8052606966      6.54E-08
   13    -756.8052606967      2.37E-08
   14    -756.8052606966      6.17E-09 Convergence criterion met
 ---------------------------------------
 SCF time:  CPU 82.09 s  wall 3.56 s
 SCF   energy in the final basis set = -756.8052606966
 Total energy in the final basis set = -756.8052606966
 
 --------------------------------------------------------------
 
                    Orbital Energies (a.u.)
 --------------------------------------------------------------
 
 Alpha MOs
 -- Occupied --
-18.941 -18.938 -18.869 -18.868 -10.105 -10.103 -10.069 -10.067
-10.023 -10.023 -10.022 -10.021 -10.018 -10.016 -10.008 -10.007
 -1.020  -1.014  -0.938  -0.936  -0.815  -0.745  -0.720  -0.681
 -0.675  -0.662  -0.621  -0.585  -0.556  -0.497  -0.492  -0.450
 -0.443  -0.434  -0.415  -0.413  -0.409  -0.391  -0.383  -0.379
 -0.374  -0.368  -0.355  -0.347  -0.345  -0.336  -0.317  -0.313
 -0.307  -0.291  -0.284  -0.250  -0.249  -0.195  -0.182  -0.179
 -0.174  -0.151  -0.147
 -- Virtual --
  0.057   0.071   0.119   0.130   0.232   0.255   0.280   0.326
  0.352   0.354   0.375   0.387   0.401   0.420   0.423   0.425
  0.430   0.433   0.438   0.442   0.442   0.447   0.458   0.461
  0.469   0.480   0.484   0.552   0.565   0.578   0.604   0.658
  0.658   0.759   0.772
 --------------------------------------------------------------
 
          Ground-State Mulliken Net Atomic Charges

     Atom                 Charge (a.u.)
  ----------------------------------------
      1 C                    -0.018096
      2 C                    -0.017354
      3 C                     0.216174
      4 C                     0.216163
      5 O                    -0.170216
      6 O                    -0.216762
      7 O                    -0.173154
      8 O                    -0.211407
      9 C                    -0.125246
     10 C                    -0.124395
     11 C                     0.008860
     12 C                    -0.079032
     13 C                    -0.079146
     14 C                     0.009190
     15 H                     0.093310
     16 H                     0.088961
     17 H                     0.079419
     18 H                     0.088842
     19 H                     0.090929
     20 H                     0.092107
     21 H                     0.090171
     22 H                     0.079019
     23 C                    -0.225039
     24 C                    -0.223778
     25 H                     0.082752
     26 H                     0.080058
     27 H                     0.090853
     28 H                     0.093373
     29 H                     0.083653
     30 H                     0.079792
  ----------------------------------------
  Sum of atomic charges =     0.000000

 -----------------------------------------------------------------
                    Cartesian Multipole Moments
 -----------------------------------------------------------------
    Charge (ESU x 10^10)
                -0.0000
    Dipole Moment (Debye)
         X       1.1504      Y      -0.2901      Z       1.5561
       Tot       1.9568
    Quadrupole Moments (Debye-Ang)
        XX     -77.7885     XY       2.9271     YY     -76.6805
        XZ      -2.0247     YZ       4.4053     ZZ     -90.4028
    Octopole Moments (Debye-Ang^2)
       XXX      31.7444    XXY       6.6208    XYY       4.9170
       YYY      34.8849    XXZ       7.2636    XYZ      -0.4751
       YYZ      11.0241    XZZ       5.5915    YZZ       8.3988
       ZZZ      -3.9529
    Hexadecapole Moments (Debye-Ang^3)
      XXXX   -1999.9966   XXXY      30.7889   XXYY    -666.3378
      XYYY     -33.7825   YYYY   -1817.3259   XXXZ      -7.4674
      XXYZ      16.3780   XYYZ     -11.1203   YYYZ      12.1649
      XXZZ    -395.1056   XYZZ     -13.3319   YYZZ    -379.2843
      XZZZ       3.4473   YZZZ      -2.3025   ZZZZ    -231.4224
 -----------------------------------------------------------------
 Calculating analytic gradient of the SCF energy
 Gradient of SCF Energy
            1           2           3           4           5           6
    1   0.0029852  -0.0014692   0.0100968   0.0097201  -0.0079041  -0.0022839
    2   0.0063828   0.0055288  -0.0047638   0.0062771   0.0125377  -0.0066940
    3   0.0000289  -0.0064520   0.0090868   0.0132343  -0.0184124   0.0051129
            7           8           9          10          11          12
    1  -0.0163796   0.0044942   0.0030004  -0.0051967   0.0023506   0.0019165
    2   0.0013833  -0.0061046  -0.0083481  -0.0070155   0.0000020  -0.0010616
    3  -0.0168066   0.0031102   0.0028326   0.0037137  -0.0015884   0.0010701
           13          14          15          16          17          18
    1  -0.0022637  -0.0015562   0.0011632   0.0005298   0.0014252   0.0013865
    2  -0.0002059   0.0021791   0.0000247  -0.0009839   0.0000005  -0.0001894
    3  -0.0000196   0.0017445   0.0017009   0.0016843  -0.0005529   0.0014489
           19          20          21          22          23          24
    1  -0.0012462   0.0007737   0.0007036  -0.0011443   0.0044429  -0.0033096
    2   0.0020103   0.0020010  -0.0010096   0.0008555   0.0002856   0.0030418
    3  -0.0013996  -0.0015498   0.0016311   0.0003842  -0.0018116   0.0019845
           25          26          27          28          29          30
    1  -0.0005812   0.0015734  -0.0009955  -0.0005663  -0.0008393  -0.0008264
    2  -0.0025163   0.0007498  -0.0018363  -0.0020398  -0.0020729   0.0015818
    3  -0.0009195  -0.0010178  -0.0001693   0.0004936   0.0010769   0.0003610
 Max gradient component =       1.841E-02
 RMS gradient           =       4.960E-03
 Gradient time:  CPU 19.16 s  wall 0.81 s
 Geometry Optimization Parameters
   NAtoms,    NIC,     NZ,  NCons,   NDum,   NFix, NCnnct, MaxDiis
       30     194       0       2       0       0       0       0

 Cartesian Hessian Update
 Hessian Updated using BFGS Update


** CONSTRAINED OPTIMIZATION IN DELOCALIZED INTERNAL COORDINATES **
   Searching for a Minimum

   Optimization Cycle:   2

                       Coordinates (Angstroms)
     ATOM                X               Y               Z
      1  C         0.3814844773   -0.6896655727   -0.1192440285
      2  C        -0.9629577608   -0.2320168731   -0.0823459111
      3  C         1.4816316228    0.3425867018   -0.3952206691
      4  C        -1.2618491121    1.2684014468   -0.2062641898
      5  O         2.5043469944    0.2239251781    0.5595666017
      6  O         1.4607327721    1.1878369877   -1.3162284087
      7  O        -0.5081065240    1.9666797448    0.7545349789
      8  O        -2.0630488917    1.7925193773   -1.0085395446
      9  C        -0.6979626052    3.4178187585    0.6753719086
     10  C         3.5698798365    1.2117082608    0.3702537341
     11  C         0.6734352708   -2.0782747294   -0.0035746773
     12  C        -0.4006720246   -2.9740142082    0.1941630093
     13  C        -1.7304007546   -2.5189227167    0.2438011467
     14  C        -2.0362866383   -1.1471443643    0.1064793053
     15  H        -0.4074145106    3.8147865892   -0.3176228242
     16  H         4.0781839289    1.0860028703   -0.6067413901
     17  H        -2.5403358166   -3.2446674635    0.3873972157
     18  H        -1.7471483254    3.7060372739    0.8872948568
     19  H        -0.0454451746    3.8714965108    1.4427865727
     20  H         4.3076504529    1.0483216761    1.1761362403
     21  H         3.1852427383    2.2483892621    0.4459903584
     22  H        -0.1997557471   -4.0475709898    0.2981557720
     23  C        -3.4967957128   -0.6812815711    0.1503361878
     24  C         2.1042159850   -2.6244392459   -0.0844136438
     25  H         2.6679591449   -2.1542507497   -0.9044250421
     26  H         2.0912998182   -3.7078866476   -0.2738134470
     27  H         2.6469571471   -2.4513254731    0.8588166269
     28  H        -3.8318804731   -0.3471840414   -0.8448179662
     29  H        -3.6321435586    0.1495935006    0.8598540253
     30  H        -4.1546228694   -1.5018783712    0.4714488252
   Point Group: c1    Number of degrees of freedom:    84


   Energy is   -756.805260697

              Constraints and their Current Values
                                        Value     Constraint
   Dihedral:        2   1   3   5      130.423      130.200
   Dihedral:        1   2   4   7      -53.207      -52.300
 Hessian Updated using BFGS Update

   Using Lagrange Multiplier Algorithm


 70 Hessian modes will be used to form the next step
  Hessian Eigenvalues:
    -0.977753   -0.977563    0.044905    0.045000    0.045000    0.045000
     0.045000    0.045001    0.045001    0.045003    0.045005    0.045013
     0.045022    0.045121    0.045591    0.093598    0.093943    0.094234
     0.094416    0.113769    0.113857    0.116855    0.116890    0.158409
     0.159976    0.159999    0.162557    0.224723    0.236771    0.244874
     0.248946    0.249470    0.249637    0.249914    0.249992    0.249997
     0.250000    0.252677    0.318942    0.321858    0.341612    0.341649
     0.342500    0.342565    0.342801    0.342935    0.342962    0.343295
     0.343395    0.343573    0.344081    0.344369    0.344541    0.348588
     0.349808    0.371324    0.407638    0.408725    0.413456    0.423087
     0.438893    0.446225    0.457533    0.464122    0.520438    0.536433
     0.959685    0.987955    1.022753    1.023430

 Minimum Search - Taking P-RFO Step
 Searching for Lamda that Maximizes Along the Constraint modes Only
 Value Taken    Lamda =   0.00012368
 Searching for Lamda that Minimizes Along All other modes
 Value Taken    Lamda =  -0.00501748
 Step Taken.  Stepsize is  0.162698

                             Maximum     Tolerance    Cnvgd?
         Gradient            0.021494       0.000300      NO
         Displacement        0.063234       0.001200      NO
         Energy change     -0.027768       0.000001      NO


 New Cartesian Coordinates Obtained by Inverse Iteration

 Displacement from previous Coordinates is:  0.474356
 Adding empirical dispersion correction 
 ----------------------------------------------------------------
 Doing -D3(op) with
 s6 =   1.00000
 s8 =   0.78311
 a1 =   0.30000
 a2 =   4.25000
 n  =  10.00000
 -D3 energy without 3body term =     -0.0329066769 hartrees
 ----------------------------------------------------------------
             Standard Nuclear Orientation (Angstroms)
    I     Atom           X                Y                Z
 ----------------------------------------------------------------
    1      C       0.3707761370    -0.7004967812    -0.1085204267
    2      C      -0.9726773891    -0.2454628085    -0.0532011798
    3      C       1.4754634784     0.3500134190    -0.3549976305
    4      C      -1.2645816437     1.2651232347    -0.1783882426
    5      O       2.5069938407     0.1937787630     0.6143531051
    6      O       1.4775323722     1.2289031669    -1.2519071814
    7      O      -0.4603222532     1.9597395878     0.7737116651
    8      O      -2.0733714951     1.8195622575    -0.9601365792
    9      C      -0.6697205242     3.4131680015     0.6247708924
   10      C       3.5507977049     1.2128775182     0.3872250293
   11      C       0.6680109480    -2.0873259777    -0.0125843125
   12      C      -0.4054444761    -2.9890997444     0.1664434145
   13      C      -1.7366404062    -2.5362273622     0.2303962225
   14      C      -2.0453722941    -1.1619660046     0.1196850217
   15      H      -0.4046434611     3.7596605052    -0.3958992077
   16      H       4.0275445977     1.0992022773    -0.6088799666
   17      H      -2.5509800287    -3.2614837843     0.3650669196
   18      H      -1.7212483248     3.7008225359     0.8341548258
   19      H      -0.0011373960     3.8906402568     1.3653115614
   20      H       4.3058292124     1.0521150160     1.1793674551
   21      H       3.1421256400     2.2418220056     0.4658103320
   22      H      -0.1951042743    -4.0643894975     0.2487710292
   23      C      -3.5056780106    -0.6812400518     0.1704263995
   24      C       2.1117756119    -2.6118622896    -0.0964187863
   25      H       2.6689197443    -2.1079266639    -0.9022550969
   26      H       2.1092256098    -3.6946879975    -0.2951609341
   27      H       2.6485715845    -2.4317569602     0.8506337388
   28      H      -3.8272900298    -0.3157966734    -0.8197190476
   29      H      -3.6258483797     0.1454585167     0.8894170170
   30      H      -4.1673124053    -1.5075833439     0.4716595855
 ----------------------------------------------------------------
 Molecular Point Group                 C1    NOp =  1
 Largest Abelian Subgroup              C1    NOp =  1
 Nuclear Repulsion Energy =  1120.5992181028 hartrees
 There are       59 alpha and       59 beta electrons
 Applying Cartesian multipole field
    Component          Value
    ---------          -----
     (2,0,0)        1.00000E-11
     (0,2,0)        2.00000E-11
     (0,0,2)       -3.00000E-10
 Nucleus-field energy     =     0.0000000042 hartrees
 Requested basis set is STO-3G
 There are 46 shells and 94 basis functions
 A cutoff of  1.0D-12 yielded    917 shell pairs
 There are      4298 function pairs
 Smallest overlap matrix eigenvalue = 1.83E-01
 Guess MOs from SCF MO coefficient file
 Reading MOs from coefficient file
 Reading MOs from coefficient file
 A restricted hybrid HF-DFT SCF calculation will be
 performed using Pulay DIIS extrapolation
 Exchange:     0.2000 Hartree-Fock + 0.0800 Slater + 0.7200 B88
 Correlation:  0.1900 VWN1RPA + 0.8100 LYP
 Using SG-1 standard quadrature grid
 Dispersion:   Grimme D3
 SCF converges when DIIS error is below 1.0E-08
 Geometry optimization detected.  Setting ReadMinima to 0
 Setting SaveMinima to 0
 -------------------------------------------------------
 OpenMP Integral computing Module                
 Release: version 1.0, May 2013, Q-Chem Inc. Pittsburgh 
 -------------------------------------------------------
 -------------------------------------------------------
 OpenMP BLAS3 based DFT computing Module                
 Release: version 1.0, May 2013, Q-Chem Inc. Pittsburgh 
 -------------------------------------------------------
 ---------------------------------------
  Cycle       Energy         DIIS Error
 ---------------------------------------
    1    -756.7615262850      3.01E-03
    2    -756.8067961277      9.10E-04
    3    -756.8037961584      1.82E-03
    4    -756.8078054261      2.37E-04
    5    -756.8078789872      6.57E-05
    6    -756.8078843600      2.28E-05
    7    -756.8078849171      1.26E-05
    8    -756.8078851126      4.19E-06
    9    -756.8078851362      1.12E-06
   10    -756.8078851383      2.04E-07
   11    -756.8078851384      6.87E-08
   12    -756.8078851384      2.99E-08
   13    -756.8078851384      1.25E-08
   14    -756.8078851384      2.94E-09 Convergence criterion met
 ---------------------------------------
 SCF time:  CPU 78.28 s  wall 3.34 s
 SCF   energy in the final basis set = -756.8078851384
 Total energy in the final basis set = -756.8078851384
 
 --------------------------------------------------------------
 
                    Orbital Energies (a.u.)
 --------------------------------------------------------------
 
 Alpha MOs
 -- Occupied --
-18.938 -18.936 -18.873 -18.871 -10.102 -10.101 -10.065 -10.063
-10.024 -10.023 -10.022 -10.021 -10.018 -10.017 -10.009 -10.009
 -1.015  -1.008  -0.936  -0.933  -0.815  -0.744  -0.719  -0.680
 -0.669  -0.657  -0.621  -0.584  -0.556  -0.495  -0.490  -0.448
 -0.442  -0.433  -0.412  -0.410  -0.407  -0.390  -0.382  -0.376
 -0.370  -0.368  -0.355  -0.347  -0.346  -0.337  -0.315  -0.311
 -0.307  -0.291  -0.283  -0.255  -0.254  -0.195  -0.183  -0.180
 -0.174  -0.153  -0.149
 -- Virtual --
  0.055   0.070   0.117   0.127   0.231   0.253   0.277   0.316
  0.340   0.346   0.370   0.381   0.400   0.416   0.421   0.424
  0.430   0.432   0.434   0.438   0.441   0.445   0.454   0.457
  0.464   0.476   0.481   0.547   0.561   0.575   0.601   0.649
  0.650   0.758   0.770
 --------------------------------------------------------------
 
          Ground-State Mulliken Net Atomic Charges

     Atom                 Charge (a.u.)
  ----------------------------------------
      1 C                    -0.018393
      2 C                    -0.018247
      3 C                     0.211063
      4 C                     0.210620
      5 O                    -0.164816
      6 O                    -0.213429
      7 O                    -0.167741
      8 O                    -0.207694
      9 C                    -0.127306
     10 C                    -0.126658
     11 C                     0.008555
     12 C                    -0.078797
     13 C                    -0.078943
     14 C                     0.008797
     15 H                     0.093108
     16 H                     0.088221
     17 H                     0.079541
     18 H                     0.088423
     19 H                     0.089102
     20 H                     0.090169
     21 H                     0.090004
     22 H                     0.079300
     23 C                    -0.223805
     24 C                    -0.222418
     25 H                     0.082867
     26 H                     0.079968
     27 H                     0.091379
     28 H                     0.093218
     29 H                     0.083865
     30 H                     0.080046
  ----------------------------------------
  Sum of atomic charges =     0.000000

 -----------------------------------------------------------------
                    Cartesian Multipole Moments
 -----------------------------------------------------------------
    Charge (ESU x 10^10)
                -0.0000
    Dipole Moment (Debye)
         X       1.0097      Y      -0.4078      Z       1.3559
       Tot       1.7391
    Quadrupole Moments (Debye-Ang)
        XX     -78.2741     XY       2.8526     YY     -77.1816
        XZ      -1.9968     YZ       4.0708     ZZ     -90.1952
    Octopole Moments (Debye-Ang^2)
       XXX      29.3916    XXY       6.0957    XYY       4.6984
       YYY      33.0514    XXZ       5.8724    XYZ      -0.2478
       YYZ       9.0050    XZZ       5.4522    YZZ       8.9434
       ZZZ      -7.6207
    Hexadecapole Moments (Debye-Ang^3)
      XXXX   -2009.2722   XXXY      24.6085   XXYY    -668.7096
      XYYY     -36.9711   YYYY   -1830.9487   XXXZ      -9.6600
      XXYZ      15.0030   XYYZ     -10.7416   YYYZ       9.8786
      XXZZ    -393.2231   XYZZ     -14.8765   YYZZ    -379.9632
      XZZZ       0.6967   YZZZ      -5.0755   ZZZZ    -221.9843
 -----------------------------------------------------------------
 Calculating analytic gradient of the SCF energy
 Gradient of SCF Energy
            1           2           3           4           5           6
    1  -0.0005660   0.0007138   0.0063748   0.0051585  -0.0018047  -0.0008648
    2  -0.0011759  -0.0008977  -0.0016634   0.0052196   0.0011276   0.0024354
    3   0.0007110  -0.0014096   0.0049549   0.0063341  -0.0014466  -0.0026861
            7           8           9          10          11          12
    1  -0.0019643  -0.0019795  -0.0012613  -0.0041920  -0.0001818   0.0004984
    2  -0.0010140   0.0006303  -0.0045138  -0.0021355   0.0001782  -0.0000362
    3  -0.0015520  -0.0031654  -0.0012114  -0.0012015  -0.0011971   0.0004439
           13          14          15          16          17          18
    1  -0.0003707  -0.0000260   0.0000851   0.0004149  -0.0001839  -0.0005065
    2   0.0002289   0.0007067   0.0002922   0.0000145  -0.0001417   0.0002865
    3  -0.0002558   0.0015407  -0.0005867  -0.0005381  -0.0001705   0.0002038
           19          20          21          22          23          24
    1   0.0004899  -0.0000840  -0.0001087   0.0000352   0.0006953   0.0000149
    2  -0.0004887  -0.0005234   0.0006241  -0.0001862   0.0008562   0.0014527
    3   0.0004029   0.0004808   0.0000982   0.0002934  -0.0005905   0.0005175
           25          26          27          28          29          30
    1   0.0000923  -0.0001959   0.0001222  -0.0002369  -0.0000970  -0.0000715
    2   0.0000553  -0.0003537  -0.0004029  -0.0002595   0.0001104  -0.0004261
    3  -0.0003687  -0.0003483   0.0003006  -0.0001981   0.0003044   0.0003401
 Max gradient component =       6.375E-03
 RMS gradient           =       1.732E-03
 Gradient time:  CPU 17.66 s  wall 0.75 s
 Geometry Optimization Parameters
   NAtoms,    NIC,     NZ,  NCons,   NDum,   NFix, NCnnct, MaxDiis
       30     194       0       2       0       0       0       0

 Cartesian Hessian Update
 Hessian Updated using BFGS Update


** CONSTRAINED OPTIMIZATION IN DELOCALIZED INTERNAL COORDINATES **
   Searching for a Minimum

   Optimization Cycle:   3

                       Coordinates (Angstroms)
     ATOM                X               Y               Z
      1  C         0.3707761370   -0.7004967812   -0.1085204267
      2  C        -0.9726773891   -0.2454628085   -0.0532011798
      3  C         1.4754634784    0.3500134190   -0.3549976305
      4  C        -1.2645816437    1.2651232347   -0.1783882426
      5  O         2.5069938407    0.1937787630    0.6143531051
      6  O         1.4775323722    1.2289031669   -1.2519071814
      7  O        -0.4603222532    1.9597395878    0.7737116651
      8  O        -2.0733714951    1.8195622575   -0.9601365792
      9  C        -0.6697205242    3.4131680015    0.6247708924
     10  C         3.5507977049    1.2128775182    0.3872250293
     11  C         0.6680109480   -2.0873259777   -0.0125843125
     12  C        -0.4054444761   -2.9890997444    0.1664434145
     13  C        -1.7366404062   -2.5362273622    0.2303962225
     14  C        -2.0453722941   -1.1619660046    0.1196850217
     15  H        -0.4046434611    3.7596605052   -0.3958992077
     16  H         4.0275445977    1.0992022773   -0.6088799666
     17  H        -2.5509800287   -3.2614837843    0.3650669196
     18  H        -1.7212483248    3.7008225359    0.8341548258
     19  H        -0.0011373960    3.8906402568    1.3653115614
     20  H         4.3058292124    1.0521150160    1.1793674551
     21  H         3.1421256400    2.2418220056    0.4658103320
     22  H        -0.1951042743   -4.0643894975    0.2487710292
     23  C        -3.5056780106   -0.6812400518    0.1704263995
     24  C         2.1117756119   -2.6118622896   -0.0964187863
     25  H         2.6689197443   -2.1079266639   -0.9022550969
     26  H         2.1092256098   -3.6946879975   -0.2951609341
     27  H         2.6485715845   -2.4317569602    0.8506337388
     28  H        -3.8272900298   -0.3157966734   -0.8197190476
     29  H        -3.6258483797    0.1454585167    0.8894170170
     30  H        -4.1673124053   -1.5075833439    0.4716595855
   Point Group: c1    Number of degrees of freedom:    84


   Energy is   -756.807885138

              Constraints and their Current Values
                                        Value     Constraint
   Dihedral:        2   1   3   5      130.201      130.200
   Dihedral:        1   2   4   7      -52.302      -52.300
 Hessian Updated using BFGS Update

   Using Lagrange Multiplier Algorithm


 73 Hessian modes will be used to form the next step
  Hessian Eigenvalues:
    -0.977715   -0.977529    0.042299    0.045000    0.045000    0.045000
     0.045000    0.045001    0.045001    0.045003    0.045005    0.045010
     0.045013    0.045094    0.045207    0.045671    0.092170    0.093897
     0.094233    0.094408    0.112998    0.113852    0.116855    0.116890
     0.159213    0.159982    0.159999    0.161206    0.163968    0.224665
     0.233921    0.244888    0.249133    0.249602    0.249648    0.249917
     0.249992    0.250000    0.250000    0.250812    0.294999    0.318941
     0.322141    0.341623    0.341751    0.342480    0.342616    0.342800
     0.342936    0.343033    0.343278    0.343460    0.343921    0.343991
     0.344323    0.344629    0.348613    0.349822    0.376522    0.394493
     0.408521    0.413427    0.419096    0.439408    0.446222    0.457758
     0.464997    0.472529    0.536456    0.959683    1.014356    1.022852
     1.026032

 Minimum Search - Taking P-RFO Step
 Searching for Lamda that Maximizes Along the Constraint modes Only
 Value Taken    Lamda =   0.00000071
 Searching for Lamda that Minimizes Along All other modes
 Value Taken    Lamda =  -0.00060330
 Step Taken.  Stepsize is  0.065811

                             Maximum     Tolerance    Cnvgd?
         Gradient            0.006871       0.000300      NO
         Displacement        0.022656       0.001200      NO
         Energy change     -0.002624       0.000001      NO


 New Cartesian Coordinates Obtained by Inverse Iteration

 Displacement from previous Coordinates is:  0.163925
 Adding empirical dispersion correction 
 ----------------------------------------------------------------
 Doing -D3(op) with
 s6 =   1.00000
 s8 =   0.78311
 a1 =   0.30000
 a2 =   4.25000
 n  =  10.00000
 -D3 energy without 3body term =     -0.0328921352 hartrees
 ----------------------------------------------------------------
             Standard Nuclear Orientation (Angstroms)
    I     Atom           X                Y                Z
 ----------------------------------------------------------------
    1      C       0.3628037028    -0.6985998195    -0.1098324407
    2      C      -0.9830333165    -0.2489021621    -0.0447886667
    3      C       1.4664971666     0.3554039514    -0.3529712076
    4      C      -1.2797784768     1.2600831857    -0.1768752337
    5      O       2.5094958563     0.1937951177     0.6153159019
    6      O       1.4742109195     1.2357435869    -1.2461902803
    7      O      -0.4640714732     1.9678404085     0.7688187406
    8      O      -2.0975449988     1.8144542952    -0.9466658507
    9      C      -0.6586729998     3.4293589702     0.6161943507
   10      C       3.5667875031     1.2098443317     0.3953216029
   11      C       0.6644216734    -2.0855562872    -0.0145225624
   12      C      -0.4060062547    -2.9913937857     0.1606176277
   13      C      -1.7380606133    -2.5443979243     0.2279274489
   14      C      -2.0521356799    -1.1713280279     0.1224345613
   15      H      -0.3936754093     3.7664265950    -0.4066092015
   16      H       4.0385576772     1.0982974643    -0.6022940557
   17      H      -2.5496741508    -3.2726456229     0.3614492194
   18      H      -1.7073056201     3.7252615398     0.8237758622
   19      H       0.0140377810     3.9065228745     1.3523893917
   20      H       4.3224590392     1.0411493334     1.1844407828
   21      H       3.1637686336     2.2396676742     0.4779776231
   22      H      -0.1908705054    -4.0659801228     0.2368378300
   23      C      -3.5145608191    -0.6952874113     0.1740594041
   24      C       2.1098705597    -2.6073355879    -0.0984850609
   25      H       2.6652618798    -2.1003182221    -0.9029625991
   26      H       2.1125145214    -3.6903591319    -0.2929526963
   27      H       2.6443936479    -2.4193264806     0.8479766949
   28      H      -3.8314406845    -0.3211300236    -0.8141765934
   29      H      -3.6355572913     0.1279457384     0.8963227154
   30      H      -4.1764985780    -1.5236533359     0.4666023142
 ----------------------------------------------------------------
 Molecular Point Group                 C1    NOp =  1
 Largest Abelian Subgroup              C1    NOp =  1
 Nuclear Repulsion Energy =  1118.9419243099 hartrees
 There are       59 alpha and       59 beta electrons
 Applying Cartesian multipole field
    Component          Value
    ---------          -----
     (2,0,0)        1.00000E-11
     (0,2,0)        2.00000E-11
     (0,0,2)       -3.00000E-10
 Nucleus-field energy     =     0.0000000049 hartrees
 Requested basis set is STO-3G
 There are 46 shells and 94 basis functions
 A cutoff of  1.0D-12 yielded    914 shell pairs
 There are      4289 function pairs
 Smallest overlap matrix eigenvalue = 1.83E-01
 Guess MOs from SCF MO coefficient file
 Reading MOs from coefficient file
 Reading MOs from coefficient file
 A restricted hybrid HF-DFT SCF calculation will be
 performed using Pulay DIIS extrapolation
 Exchange:     0.2000 Hartree-Fock + 0.0800 Slater + 0.7200 B88
 Correlation:  0.1900 VWN1RPA + 0.8100 LYP
 Using SG-1 standard quadrature grid
 Dispersion:   Grimme D3
 SCF converges when DIIS error is below 1.0E-08
 Geometry optimization detected.  Setting ReadMinima to 0
 Setting SaveMinima to 0
 -------------------------------------------------------
 OpenMP Integral computing Module                
 Release: version 1.0, May 2013, Q-Chem Inc. Pittsburgh 
 -------------------------------------------------------
 -------------------------------------------------------
 OpenMP BLAS3 based DFT computing Module                
 Release: version 1.0, May 2013, Q-Chem Inc. Pittsburgh 
 -------------------------------------------------------
 ---------------------------------------
  Cycle       Energy         DIIS Error
 ---------------------------------------
    1    -756.8016195955      1.01E-03
    2    -756.8080445644      3.39E-04
    3    -756.8075203439      7.25E-04
    4    -756.8081928510      6.29E-05
    5    -756.8081978214      1.58E-05
    6    -756.8081981345      5.29E-06
    7    -756.8081981776      2.01E-06
    8    -756.8081981838      4.55E-07
    9    -756.8081981842      1.25E-07
   10    -756.8081981842      1.10E-07
   11    -756.8081981842      2.35E-08
   12    -756.8081981842      1.01E-08
   13    -756.8081981842      3.86E-09 Convergence criterion met
 ---------------------------------------
 SCF time:  CPU 74.05 s  wall 3.16 s
 SCF   energy in the final basis set = -756.8081981842
 Total energy in the final basis set = -756.8081981842
 
 --------------------------------------------------------------
 
                    Orbital Energies (a.u.)
 --------------------------------------------------------------
 
 Alpha MOs
 -- Occupied --
-18.935 -18.932 -18.874 -18.872 -10.102 -10.101 -10.064 -10.062
-10.024 -10.024 -10.023 -10.022 -10.018 -10.017 -10.010 -10.009
 -1.011  -1.005  -0.934  -0.932  -0.816  -0.745  -0.719  -0.681
 -0.668  -0.657  -0.621  -0.585  -0.556  -0.494  -0.489  -0.447
 -0.442  -0.432  -0.411  -0.409  -0.407  -0.390  -0.382  -0.376
 -0.370  -0.368  -0.356  -0.347  -0.346  -0.337  -0.315  -0.311
 -0.307  -0.291  -0.284  -0.254  -0.252  -0.195  -0.183  -0.178
 -0.172  -0.153  -0.150
 -- Virtual --
  0.055   0.069   0.116   0.127   0.230   0.248   0.273   0.314
  0.338   0.346   0.369   0.379   0.399   0.416   0.422   0.425
  0.431   0.432   0.434   0.439   0.442   0.446   0.454   0.457
  0.464   0.476   0.481   0.546   0.560   0.574   0.601   0.650
  0.650   0.757   0.769
 --------------------------------------------------------------
 
          Ground-State Mulliken Net Atomic Charges

     Atom                 Charge (a.u.)
  ----------------------------------------
      1 C                    -0.017821
      2 C                    -0.018091
      3 C                     0.210512
      4 C                     0.209752
      5 O                    -0.164940
      6 O                    -0.212657
      7 O                    -0.167762
      8 O                    -0.206995
      9 C                    -0.128885
     10 C                    -0.128263
     11 C                     0.008966
     12 C                    -0.078716
     13 C                    -0.078955
     14 C                     0.009117
     15 H                     0.092801
     16 H                     0.088031
     17 H                     0.079846
     18 H                     0.088311
     19 H                     0.089450
     20 H                     0.090488
     21 H                     0.089886
     22 H                     0.079531
     23 C                    -0.224104
     24 C                    -0.222679
     25 H                     0.083182
     26 H                     0.080155
     27 H                     0.091795
     28 H                     0.093417
     29 H                     0.084254
     30 H                     0.080374
  ----------------------------------------
  Sum of atomic charges =     0.000000

 -----------------------------------------------------------------
                    Cartesian Multipole Moments
 -----------------------------------------------------------------
    Charge (ESU x 10^10)
                -0.0000
    Dipole Moment (Debye)
         X       0.9980      Y      -0.4484      Z       1.3104
       Tot       1.7071
    Quadrupole Moments (Debye-Ang)
        XX     -78.2957     XY       2.9367     YY     -77.1087
        XZ      -1.9529     YZ       4.0096     ZZ     -90.1341
    Octopole Moments (Debye-Ang^2)
       XXX      30.6253    XXY       5.9554    XYY       5.0181
       YYY      33.3003    XXZ       5.9521    XYZ      -0.1289
       YYZ       8.8163    XZZ       5.7313    YZZ       9.0814
       ZZZ      -7.9711
    Hexadecapole Moments (Debye-Ang^3)
      XXXX   -2018.1083   XXXY      23.5953   XXYY    -671.4386
      XYYY     -39.3054   YYYY   -1834.4201   XXXZ     -10.0662
      XXYZ      14.9398   XYYZ     -10.7048   YYYZ       9.8026
      XXZZ    -394.6402   XYZZ     -15.7887   YYZZ    -380.8132
      XZZZ      -0.0940   YZZZ      -5.7934   ZZZZ    -220.2063
 -----------------------------------------------------------------
 Calculating analytic gradient of the SCF energy
 Gradient of SCF Energy
            1           2           3           4           5           6
    1  -0.0009148  -0.0001572   0.0001537   0.0016065  -0.0006784  -0.0000059
    2  -0.0009081  -0.0011577  -0.0014226  -0.0004442   0.0001927   0.0011797
    3  -0.0010460   0.0003142   0.0010327   0.0003994  -0.0001482  -0.0010467
            7           8           9          10          11          12
    1  -0.0010484  -0.0005694   0.0003732   0.0013031  -0.0004235  -0.0002170
    2  -0.0005960   0.0006901   0.0013745   0.0003975  -0.0001175   0.0001958
    3   0.0001205  -0.0011434   0.0006327   0.0005158  -0.0004124   0.0003165
           13          14          15          16          17          18
    1   0.0003048   0.0002579  -0.0003012  -0.0001426  -0.0001008   0.0000736
    2   0.0000298   0.0000006  -0.0000753   0.0001720  -0.0000046  -0.0000003
    3  -0.0002532   0.0010023  -0.0000138   0.0000030  -0.0000405  -0.0001440
           19          20          21          22          23          24
    1   0.0000853   0.0002229   0.0000016   0.0000785  -0.0004036   0.0004231
    2   0.0002183   0.0000968  -0.0000635  -0.0000368   0.0000969   0.0000469
    3   0.0000293   0.0000400  -0.0002202   0.0001122   0.0000219  -0.0001011
           25          26          27          28          29          30
    1  -0.0000594  -0.0001111  -0.0000533   0.0000489   0.0001794   0.0000739
    2   0.0002859  -0.0000667  -0.0001069  -0.0000398   0.0001672  -0.0001047
    3   0.0001833  -0.0001104   0.0000447  -0.0000234  -0.0001810   0.0001158
 Max gradient component =       1.607E-03
 RMS gradient           =       5.187E-04
 Gradient time:  CPU 18.78 s  wall 0.80 s
 Geometry Optimization Parameters
   NAtoms,    NIC,     NZ,  NCons,   NDum,   NFix, NCnnct, MaxDiis
       30     194       0       2       0       0       0       0

 Cartesian Hessian Update
 Hessian Updated using BFGS Update


** CONSTRAINED OPTIMIZATION IN DELOCALIZED INTERNAL COORDINATES **
   Searching for a Minimum

   Optimization Cycle:   4

                       Coordinates (Angstroms)
     ATOM                X               Y               Z
      1  C         0.3628037028   -0.6985998195   -0.1098324407
      2  C        -0.9830333165   -0.2489021621   -0.0447886667
      3  C         1.4664971666    0.3554039514   -0.3529712076
      4  C        -1.2797784768    1.2600831857   -0.1768752337
      5  O         2.5094958563    0.1937951177    0.6153159019
      6  O         1.4742109195    1.2357435869   -1.2461902803
      7  O        -0.4640714732    1.9678404085    0.7688187406
      8  O        -2.0975449988    1.8144542952   -0.9466658507
      9  C        -0.6586729998    3.4293589702    0.6161943507
     10  C         3.5667875031    1.2098443317    0.3953216029
     11  C         0.6644216734   -2.0855562872   -0.0145225624
     12  C        -0.4060062547   -2.9913937857    0.1606176277
     13  C        -1.7380606133   -2.5443979243    0.2279274489
     14  C        -2.0521356799   -1.1713280279    0.1224345613
     15  H        -0.3936754093    3.7664265950   -0.4066092015
     16  H         4.0385576772    1.0982974643   -0.6022940557
     17  H        -2.5496741508   -3.2726456229    0.3614492194
     18  H        -1.7073056201    3.7252615398    0.8237758622
     19  H         0.0140377810    3.9065228745    1.3523893917
     20  H         4.3224590392    1.0411493334    1.1844407828
     21  H         3.1637686336    2.2396676742    0.4779776231
     22  H        -0.1908705054   -4.0659801228    0.2368378300
     23  C        -3.5145608191   -0.6952874113    0.1740594041
     24  C         2.1098705597   -2.6073355879   -0.0984850609
     25  H         2.6652618798   -2.1003182221   -0.9029625991
     26  H         2.1125145214   -3.6903591319   -0.2929526963
     27  H         2.6443936479   -2.4193264806    0.8479766949
     28  H        -3.8314406845   -0.3211300236   -0.8141765934
     29  H        -3.6355572913    0.1279457384    0.8963227154
     30  H        -4.1764985780   -1.5236533359    0.4666023142
   Point Group: c1    Number of degrees of freedom:    84


   Energy is   -756.808198184

              Constraints and their Current Values
                                        Value     Constraint
   Dihedral:        2   1   3   5      130.200      130.200
   Dihedral:        1   2   4   7      -52.300      -52.300
 Hessian Updated using BFGS Update

 71 Hessian modes will be used to form the next step
  Hessian Eigenvalues:
     0.036167    0.045000    0.045000    0.045000    0.045001    0.045001
     0.045003    0.045005    0.045006    0.045013    0.045044    0.045090
     0.045408    0.045645    0.093153    0.093930    0.094234    0.094407
     0.113851    0.114799    0.116854    0.116888    0.159663    0.159984
     0.159999    0.160280    0.161293    0.164191    0.224437    0.232178
     0.244887    0.249130    0.249614    0.249648    0.249917    0.249994
     0.250000    0.250000    0.250196    0.250678    0.299754    0.318945
     0.321976    0.341614    0.341671    0.342527    0.342613    0.342882
     0.342933    0.343033    0.343294    0.343471    0.343824    0.344249
     0.344492    0.347071    0.348655    0.349826    0.371192    0.408161
     0.409449    0.413460    0.438049    0.446214    0.453159    0.459757
     0.463786    0.525223    0.536729    0.959707    0.989291

 Minimum Search - Taking Simple RFO Step
 Searching for Lamda that Minimizes Along All modes
 Value Taken    Lamda =  -0.00006134
 Step Taken.  Stepsize is  0.027559

                             Maximum     Tolerance    Cnvgd?
         Gradient           0.002410      0.000300      NO
         Displacement       0.009862      0.001200      NO
         Energy change     -0.000313      0.000001      NO


 New Cartesian Coordinates Obtained by Inverse Iteration

 Displacement from previous Coordinates is:  0.055317
 Adding empirical dispersion correction 
 ----------------------------------------------------------------
 Doing -D3(op) with
 s6 =   1.00000
 s8 =   0.78311
 a1 =   0.30000
 a2 =   4.25000
 n  =  10.00000
 -D3 energy without 3body term =     -0.0329002599 hartrees
 ----------------------------------------------------------------
             Standard Nuclear Orientation (Angstroms)
    I     Atom           X                Y                Z
 ----------------------------------------------------------------
    1      C       0.3629010790    -0.6955563019    -0.1067850437
    2      C      -0.9835575080    -0.2467704784    -0.0384270301
    3      C       1.4655816100     0.3579749658    -0.3500202729
    4      C      -1.2819593158     1.2604774760    -0.1715268558
    5      O       2.5094774650     0.1930995314     0.6171587310
    6      O       1.4740894629     1.2381204714    -1.2422057979
    7      O      -0.4629351581     1.9683361702     0.7719729530
    8      O      -2.1030989059     1.8140316178    -0.9370491812
    9      C      -0.6553186463     3.4283880408     0.6115921909
   10      C       3.5647687633     1.2092735425     0.3940080780
   11      C       0.6653036588    -2.0830092873    -0.0130104848
   12      C      -0.4049955257    -2.9898412945     0.1585873591
   13      C      -1.7375802778    -2.5441153551     0.2254969710
   14      C      -2.0525262758    -1.1709656043     0.1231175209
   15      H      -0.3856839278     3.7611037939    -0.4115427048
   16      H       4.0347482207     1.0973051817    -0.6045322956
   17      H      -2.5484723724    -3.2735509889     0.3561896158
   18      H      -1.7038965325     3.7271582383     0.8159883467
   19      H       0.0162791765     3.9068628164     1.3476319868
   20      H       4.3218066644     1.0397072638     1.1813101710
   21      H       3.1622410369     2.2391793515     0.4791508517
   22      H      -0.1897150549    -4.0645720527     0.2311870690
   23      C      -3.5157067283    -0.6970572537     0.1741539909
   24      C       2.1100944061    -2.6065690707    -0.0973923503
   25      H       2.6664878243    -2.1025787947    -0.9031063086
   26      H       2.1120561162    -3.6897634211    -0.2899879722
   27      H       2.6455302374    -2.4176447473     0.8483773650
   28      H      -3.8312252499    -0.3173983709    -0.8124420835
   29      H      -3.6406117429     0.1213318791     0.9012776597
   30      H      -4.1778888093    -1.5273761980     0.4599631436
 ----------------------------------------------------------------
 Molecular Point Group                 C1    NOp =  1
 Largest Abelian Subgroup              C1    NOp =  1
 Nuclear Repulsion Energy =  1119.1995672287 hartrees
 There are       59 alpha and       59 beta electrons
 Applying Cartesian multipole field
    Component          Value
    ---------          -----
     (2,0,0)        1.00000E-11
     (0,2,0)        2.00000E-11
     (0,0,2)       -3.00000E-10
 Nucleus-field energy     =     0.0000000052 hartrees
 Requested basis set is STO-3G
 There are 46 shells and 94 basis functions
 A cutoff of  1.0D-12 yielded    916 shell pairs
 There are      4297 function pairs
 Smallest overlap matrix eigenvalue = 1.83E-01
 Guess MOs from SCF MO coefficient file
 Reading MOs from coefficient file
 Reading MOs from coefficient file
 A restricted hybrid HF-DFT SCF calculation will be
 performed using Pulay DIIS extrapolation
 Exchange:     0.2000 Hartree-Fock + 0.0800 Slater + 0.7200 B88
 Correlation:  0.1900 VWN1RPA + 0.8100 LYP
 Using SG-1 standard quadrature grid
 Dispersion:   Grimme D3
 SCF converges when DIIS error is below 1.0E-08
 Geometry optimization detected.  Setting ReadMinima to 0
 Setting SaveMinima to 0
 -------------------------------------------------------
 OpenMP Integral computing Module                
 Release: version 1.0, May 2013, Q-Chem Inc. Pittsburgh 
 -------------------------------------------------------
 -------------------------------------------------------
 OpenMP BLAS3 based DFT computing Module                
 Release: version 1.0, May 2013, Q-Chem Inc. Pittsburgh 
 -------------------------------------------------------
 ---------------------------------------
  Cycle       Energy         DIIS Error
 ---------------------------------------
    1    -756.8091890997      3.04E-04
    2    -756.8082362188      2.65E-05
    3    -756.8082352679      4.20E-05
    4    -756.8082376473      1.36E-05
    5    -756.8082378326      5.81E-06
    6    -756.8082378730      1.70E-06
    7    -756.8082378773      2.94E-07
    8    -756.8082378774      1.38E-07
    9    -756.8082378774      3.82E-08
   10    -756.8082378774      3.10E-08
   11    -756.8082378774      5.47E-09 Convergence criterion met
 ---------------------------------------
 SCF time:  CPU 65.27 s  wall 2.81 s
 SCF   energy in the final basis set = -756.8082378774
 Total energy in the final basis set = -756.8082378774
 
 --------------------------------------------------------------
 
                    Orbital Energies (a.u.)
 --------------------------------------------------------------
 
 Alpha MOs
 -- Occupied --
-18.935 -18.932 -18.875 -18.872 -10.102 -10.101 -10.064 -10.062
-10.024 -10.024 -10.023 -10.022 -10.018 -10.017 -10.010 -10.009
 -1.012  -1.005  -0.935  -0.932  -0.816  -0.745  -0.719  -0.681
 -0.668  -0.656  -0.621  -0.585  -0.556  -0.494  -0.489  -0.447
 -0.442  -0.432  -0.411  -0.409  -0.407  -0.390  -0.381  -0.376
 -0.370  -0.368  -0.356  -0.347  -0.346  -0.337  -0.315  -0.312
 -0.307  -0.291  -0.284  -0.254  -0.253  -0.195  -0.183  -0.178
 -0.172  -0.154  -0.150
 -- Virtual --
  0.054   0.069   0.116   0.127   0.230   0.249   0.274   0.315
  0.338   0.345   0.368   0.379   0.399   0.416   0.422   0.426
  0.431   0.432   0.434   0.439   0.442   0.446   0.454   0.457
  0.464   0.476   0.481   0.546   0.560   0.574   0.601   0.650
  0.651   0.757   0.769
 --------------------------------------------------------------
 
          Ground-State Mulliken Net Atomic Charges

     Atom                 Charge (a.u.)
  ----------------------------------------
      1 C                    -0.017846
      2 C                    -0.018216
      3 C                     0.210904
      4 C                     0.210039
      5 O                    -0.164914
      6 O                    -0.212725
      7 O                    -0.167760
      8 O                    -0.206937
      9 C                    -0.128917
     10 C                    -0.128266
     11 C                     0.009011
     12 C                    -0.078665
     13 C                    -0.078969
     14 C                     0.009194
     15 H                     0.092675
     16 H                     0.087972
     17 H                     0.079867
     18 H                     0.088324
     19 H                     0.089281
     20 H                     0.090344
     21 H                     0.089836
     22 H                     0.079522
     23 C                    -0.224186
     24 C                    -0.222740
     25 H                     0.083150
     26 H                     0.080165
     27 H                     0.091808
     28 H                     0.093435
     29 H                     0.084252
     30 H                     0.080361
  ----------------------------------------
  Sum of atomic charges =     0.000000

 -----------------------------------------------------------------
                    Cartesian Multipole Moments
 -----------------------------------------------------------------
    Charge (ESU x 10^10)
                -0.0000
    Dipole Moment (Debye)
         X       0.9956      Y      -0.4570      Z       1.2897
       Tot       1.6922
    Quadrupole Moments (Debye-Ang)
        XX     -78.3454     XY       2.9364     YY     -77.1459
        XZ      -1.9504     YZ       3.9813     ZZ     -90.1142
    Octopole Moments (Debye-Ang^2)
       XXX      30.5538    XXY       5.7767    XYY       5.0614
       YYY      32.9530    XXZ       5.7685    XYZ      -0.1172
       YYZ       8.5530    XZZ       5.7110    YZZ       9.0641
       ZZZ      -8.3970
    Hexadecapole Moments (Debye-Ang^3)
      XXXX   -2019.3121   XXXY      23.2001   XXYY    -671.5107
      XYYY     -39.2952   YYYY   -1834.1460   XXXZ     -10.2295
      XXYZ      14.8751   XYYZ     -10.5346   YYYZ       9.5984
      XXZZ    -394.4996   XYZZ     -15.9528   YYZZ    -380.5440
      XZZZ      -0.0929   YZZZ      -6.0844   ZZZZ    -219.0374
 -----------------------------------------------------------------
 Calculating analytic gradient of the SCF energy
 Gradient of SCF Energy
            1           2           3           4           5           6
    1  -0.0002363  -0.0000756   0.0000908   0.0007071  -0.0001940   0.0000016
    2  -0.0002098  -0.0000793  -0.0002647   0.0000053  -0.0000827   0.0002447
    3  -0.0014495   0.0012144  -0.0000132  -0.0009664   0.0003629  -0.0001635
            7           8           9          10          11          12
    1  -0.0006678   0.0000599   0.0001008   0.0005070  -0.0001352  -0.0001095
    2  -0.0003758   0.0001699   0.0006386   0.0002914  -0.0001495   0.0000190
    3   0.0008806  -0.0003431   0.0000858   0.0000693  -0.0001321   0.0002875
           13          14          15          16          17          18
    1   0.0001207   0.0001054  -0.0001109  -0.0000294  -0.0000191  -0.0000149
    2  -0.0001021   0.0000121  -0.0000188   0.0000067   0.0000108  -0.0000044
    3  -0.0002288   0.0006257  -0.0000496  -0.0000476   0.0000087   0.0000386
           19          20          21          22          23          24
    1   0.0000182  -0.0000554  -0.0000264   0.0000139  -0.0002476   0.0001573
    2  -0.0000497  -0.0000224   0.0000128   0.0000016  -0.0000825  -0.0001868
    3  -0.0000775  -0.0000437  -0.0000466   0.0000357   0.0000661  -0.0001231
           25          26          27          28          29          30
    1   0.0000346   0.0000377  -0.0000491  -0.0000420   0.0000358   0.0000222
    2   0.0001350   0.0000648  -0.0001311  -0.0000725   0.0001148   0.0001046
    3   0.0001822  -0.0001313   0.0000476  -0.0000291  -0.0001510   0.0000908
 Max gradient component =       1.449E-03
 RMS gradient           =       3.114E-04
 Gradient time:  CPU 17.00 s  wall 0.71 s
 Geometry Optimization Parameters
   NAtoms,    NIC,     NZ,  NCons,   NDum,   NFix, NCnnct, MaxDiis
       30     194       0       2       0       0       0       0

 Cartesian Hessian Update
 Hessian Updated using BFGS Update


** CONSTRAINED OPTIMIZATION IN DELOCALIZED INTERNAL COORDINATES **
   Searching for a Minimum

   Optimization Cycle:   5

                       Coordinates (Angstroms)
     ATOM                X               Y               Z
      1  C         0.3629010790   -0.6955563019   -0.1067850437
      2  C        -0.9835575080   -0.2467704784   -0.0384270301
      3  C         1.4655816100    0.3579749658   -0.3500202729
      4  C        -1.2819593158    1.2604774760   -0.1715268558
      5  O         2.5094774650    0.1930995314    0.6171587310
      6  O         1.4740894629    1.2381204714   -1.2422057979
      7  O        -0.4629351581    1.9683361702    0.7719729530
      8  O        -2.1030989059    1.8140316178   -0.9370491812
      9  C        -0.6553186463    3.4283880408    0.6115921909
     10  C         3.5647687633    1.2092735425    0.3940080780
     11  C         0.6653036588   -2.0830092873   -0.0130104848
     12  C        -0.4049955257   -2.9898412945    0.1585873591
     13  C        -1.7375802778   -2.5441153551    0.2254969710
     14  C        -2.0525262758   -1.1709656043    0.1231175209
     15  H        -0.3856839278    3.7611037939   -0.4115427048
     16  H         4.0347482207    1.0973051817   -0.6045322956
     17  H        -2.5484723724   -3.2735509889    0.3561896158
     18  H        -1.7038965325    3.7271582383    0.8159883467
     19  H         0.0162791765    3.9068628164    1.3476319868
     20  H         4.3218066644    1.0397072638    1.1813101710
     21  H         3.1622410369    2.2391793515    0.4791508517
     22  H        -0.1897150549   -4.0645720527    0.2311870690
     23  C        -3.5157067283   -0.6970572537    0.1741539909
     24  C         2.1100944061   -2.6065690707   -0.0973923503
     25  H         2.6664878243   -2.1025787947   -0.9031063086
     26  H         2.1120561162   -3.6897634211   -0.2899879722
     27  H         2.6455302374   -2.4176447473    0.8483773650
     28  H        -3.8312252499   -0.3173983709   -0.8124420835
     29  H        -3.6406117429    0.1213318791    0.9012776597
     30  H        -4.1778888093   -1.5273761980    0.4599631436
   Point Group: c1    Number of degrees of freedom:    84


   Energy is   -756.808237877

              Constraints and their Current Values
                                        Value     Constraint
   Dihedral:        2   1   3   5      130.200      130.200
   Dihedral:        1   2   4   7      -52.300      -52.300
 Hessian Updated using BFGS Update

 71 Hessian modes will be used to form the next step
  Hessian Eigenvalues:
     0.020619    0.044455    0.045000    0.045000    0.045000    0.045001
     0.045002    0.045004    0.045005    0.045013    0.045028    0.045094
     0.045514    0.045761    0.092238    0.093897    0.094236    0.094410
     0.113851    0.115057    0.116858    0.116897    0.159411    0.159866
     0.159986    0.160000    0.160776    0.163396    0.164965    0.224605
[...]
 H         -0.006  0.005 -0.000   -0.003 -0.007  0.006    0.010 -0.058  0.012
 H         -0.003 -0.003  0.005    0.001 -0.006 -0.002    0.181  0.127 -0.081
 H         -0.011  0.000  0.005   -0.009 -0.002 -0.003    0.138 -0.017  0.052
 H         -0.349  0.142  0.023   -0.443 -0.104  0.056    0.010 -0.000 -0.000
 C         -0.002 -0.026  0.003   -0.030  0.007  0.003    0.001 -0.004  0.001
 C          0.022  0.014 -0.003    0.023 -0.021 -0.002   -0.003 -0.002  0.000
 H          0.197 -0.027  0.104    0.044  0.006  0.024    0.017 -0.005  0.010
 H         -0.254  0.076 -0.021    0.008 -0.016  0.014   -0.011  0.008 -0.022
 H          0.150  0.068 -0.099    0.050 -0.011 -0.028    0.005  0.040 -0.007
 H          0.027 -0.177 -0.068   -0.019  0.053  0.024    0.012  0.011  0.002
 H          0.132 -0.131  0.121   -0.015  0.044 -0.041    0.002  0.005 -0.009
 H         -0.194  0.170 -0.035   -0.013 -0.011 -0.007    0.004 -0.002  0.004
 TransDip  -0.078  0.079 -0.006   -0.047 -0.008 -0.011   -0.109 -0.240  0.314

 Mode:                70                     71                     72
 Frequency:      1782.41                3037.48                3040.71
 Force Cnst:     21.9420                 5.6351                 5.6422
 Red. Mass:      11.7223                 1.0366                 1.0357
 IR Active:          YES                    YES                    YES
 IR Intens:      356.386                 25.732                 22.393
 Raman Active:       YES                    YES                    YES
               X      Y      Z        X      Y      Z        X      Y      Z
 C          0.027  0.022 -0.012   -0.000  0.001 -0.000   -0.000  0.000 -0.000
 C         -0.052  0.074 -0.016    0.000 -0.000  0.000    0.001  0.000 -0.000
 C         -0.042 -0.113  0.136    0.000  0.000  0.000    0.000  0.000  0.000
 C          0.447 -0.446  0.426    0.000  0.000  0.000   -0.000  0.000 -0.000
 O          0.000  0.007 -0.010   -0.000  0.000 -0.000   -0.000 -0.000 -0.000
 O          0.018  0.072 -0.091   -0.000 -0.000  0.000   -0.000 -0.000  0.000
 O         -0.033  0.017 -0.030   -0.000 -0.000 -0.000   -0.000 -0.000  0.000
 O         -0.293  0.264 -0.289    0.000 -0.000  0.000    0.000 -0.000  0.000
 C          0.003 -0.030  0.007   -0.000 -0.000  0.000    0.000 -0.000  0.000
 C         -0.006 -0.004  0.003   -0.000  0.000  0.000   -0.000 -0.000  0.000
 C         -0.007 -0.014  0.004   -0.001  0.000 -0.000    0.000 -0.000 -0.000
 C          0.014 -0.003 -0.001   -0.001  0.001 -0.000   -0.000  0.000 -0.000
 C         -0.018  0.012  0.002    0.000  0.000  0.000    0.001  0.000 -0.000
 C          0.032 -0.018  0.004   -0.000 -0.000  0.000    0.000 -0.001  0.000
 H          0.052  0.105  0.078    0.002  0.001 -0.004    0.002  0.001 -0.006
 H          0.029  0.002  0.022    0.000 -0.000 -0.001    0.002 -0.002 -0.005
 H          0.020 -0.042  0.001    0.000 -0.000 -0.000   -0.012 -0.006  0.002
 H          0.098  0.094  0.053   -0.003  0.002  0.001   -0.006  0.003  0.001
 H         -0.018  0.217 -0.053    0.002  0.001  0.002    0.003  0.001  0.003
 H          0.043  0.029 -0.020    0.000 -0.000 -0.000    0.002 -0.001  0.003
 H          0.029 -0.004  0.013    0.000 -0.002  0.000   -0.001  0.006  0.000
 H         -0.009 -0.003 -0.001    0.001 -0.015  0.001   -0.000 -0.000  0.000
 C          0.004  0.009 -0.003    0.001 -0.000 -0.000   -0.043  0.026  0.008
 C         -0.001  0.000  0.000    0.045 -0.020 -0.014    0.001 -0.000 -0.000
 H          0.011 -0.003  0.008   -0.368 -0.202  0.543   -0.005 -0.003  0.007
 H         -0.009  0.005 -0.005    0.118  0.495  0.047    0.001  0.005  0.001
 H          0.007  0.010 -0.007   -0.279 -0.067 -0.427   -0.004 -0.001 -0.006
 H         -0.080 -0.058  0.001   -0.001  0.002 -0.005    0.120 -0.194  0.478
 H         -0.022 -0.040  0.044    0.000  0.006  0.005   -0.018 -0.478 -0.410
 H         -0.048  0.044 -0.024   -0.006 -0.005  0.002    0.395  0.372 -0.157
 TransDip   0.332 -0.308  0.400    0.123 -0.101 -0.033   -0.143  0.027  0.042

 Mode:                73                     74                     75
 Frequency:      3049.71                3050.50                3094.22
 Force Cnst:      5.6420                 5.6435                 6.2013
 Red. Mass:       1.0296                 1.0293                 1.0993
 IR Active:          YES                    YES                    YES
 IR Intens:       27.320                 41.043                 13.077
 Raman Active:       YES                    YES                    YES
               X      Y      Z        X      Y      Z        X      Y      Z
 C         -0.000  0.000 -0.000    0.000 -0.000  0.000    0.000 -0.000  0.000
 C          0.000 -0.000  0.000    0.000  0.000  0.000    0.000 -0.000 -0.000
 C          0.002 -0.001  0.002   -0.000  0.000 -0.000   -0.000 -0.000 -0.000
 C         -0.000 -0.000 -0.000   -0.002 -0.001 -0.002    0.000  0.000 -0.000
 O         -0.003 -0.001 -0.000    0.001  0.000  0.000   -0.000 -0.000  0.000
 O          0.000  0.001 -0.001   -0.000 -0.000  0.000   -0.000  0.000  0.000
 O          0.000  0.001  0.000    0.001  0.003  0.000   -0.000  0.000  0.000
 O          0.000 -0.000  0.000    0.001 -0.000  0.001   -0.000 -0.000  0.000
 C          0.000  0.009 -0.003   -0.000  0.040 -0.015   -0.000 -0.000  0.000
 C         -0.032 -0.024  0.016    0.007  0.005 -0.004   -0.000  0.000  0.000
 C          0.000  0.000 -0.000    0.000 -0.000  0.000    0.000  0.001 -0.001
 C          0.000 -0.000 -0.000   -0.000  0.000 -0.000    0.000 -0.002 -0.000
 C         -0.000  0.000  0.000    0.000  0.000 -0.000   -0.000  0.000 -0.000
 C         -0.000 -0.000  0.000   -0.000  0.000 -0.000   -0.000 -0.000  0.000
 H         -0.052 -0.029  0.131   -0.231 -0.127  0.579    0.000  0.000 -0.001
 H          0.234 -0.168 -0.555   -0.053  0.038  0.126    0.000 -0.000 -0.001
 H          0.000  0.000 -0.000   -0.001 -0.000  0.000   -0.003 -0.002  0.000
 H          0.117 -0.061 -0.020    0.521 -0.271 -0.088    0.000 -0.000 -0.000
 H         -0.066 -0.025 -0.071   -0.288 -0.108 -0.312    0.000  0.000  0.000
 H          0.250 -0.138  0.321   -0.056  0.031 -0.073    0.000  0.000  0.000
 H         -0.081  0.605  0.031    0.018 -0.136 -0.007    0.000 -0.003 -0.000
 H         -0.000  0.000  0.000    0.000 -0.001  0.000   -0.001  0.017 -0.001
 C          0.000 -0.000 -0.000   -0.000  0.000  0.000    0.000  0.000  0.001
 C         -0.000 -0.001 -0.000    0.000  0.000 -0.000    0.007  0.035 -0.084
 H         -0.001 -0.000  0.001   -0.003 -0.001  0.004   -0.388 -0.201  0.543
 H          0.001  0.005  0.000    0.000  0.002  0.000   -0.068 -0.302 -0.049
 H          0.002  0.001  0.003   -0.002 -0.001 -0.003    0.368  0.093  0.513
 H         -0.001  0.001 -0.003    0.002 -0.003  0.006   -0.002  0.004 -0.008
 H          0.000  0.003  0.003   -0.000 -0.007 -0.006   -0.000 -0.007 -0.006
 H         -0.003 -0.003  0.001    0.004  0.004 -0.002   -0.001 -0.001  0.001
 TransDip  -0.165 -0.027  0.003    0.072  0.191  0.017    0.011  0.068 -0.093

 Mode:                76                     77                     78
 Frequency:      3098.12                3110.63                3111.18
 Force Cnst:      6.2203                 6.2850                 6.2893
 Red. Mass:       1.0999                 1.1024                 1.1028
 IR Active:          YES                    YES                    YES
 IR Intens:       11.348                 15.699                 14.772
 Raman Active:       YES                    YES                    YES
               X      Y      Z        X      Y      Z        X      Y      Z
 C          0.000 -0.000 -0.000   -0.000 -0.000  0.000    0.000 -0.000  0.000
 C          0.000 -0.000  0.000   -0.000  0.000 -0.000    0.000 -0.000 -0.000
 C         -0.000 -0.000  0.000   -0.000  0.000 -0.000   -0.000 -0.000  0.000
 C          0.000  0.000 -0.000   -0.000 -0.000 -0.000    0.001 -0.000  0.000
 O          0.000  0.000  0.000    0.000 -0.000  0.000   -0.000  0.000 -0.000
 O         -0.000  0.000 -0.000    0.000 -0.000  0.000   -0.000  0.000 -0.000
 O          0.000  0.000 -0.000    0.000  0.000  0.000   -0.000 -0.000 -0.000
 O          0.000  0.000  0.000    0.000 -0.000  0.000   -0.000  0.000 -0.000
 C         -0.000  0.000  0.000    0.000 -0.000 -0.000   -0.000  0.000 -0.000
 C         -0.000  0.000  0.000    0.001 -0.001 -0.001   -0.000  0.000  0.000
 C          0.000  0.000 -0.000   -0.001 -0.001 -0.000    0.000  0.000 -0.000
 C         -0.000 -0.000  0.000   -0.000  0.005 -0.000   -0.000 -0.000  0.000
 C          0.001  0.000 -0.000   -0.000 -0.000  0.000    0.003  0.002 -0.000
 C         -0.001 -0.000 -0.000    0.000  0.000 -0.000    0.000 -0.001  0.000
 H          0.001  0.001 -0.003   -0.001 -0.000  0.002   -0.000 -0.000  0.001
 H          0.000 -0.000 -0.001   -0.005  0.004  0.012    0.000 -0.000 -0.001
 H         -0.010 -0.005  0.001    0.008  0.005 -0.001   -0.033 -0.018  0.005
 H          0.004 -0.002 -0.001   -0.002  0.001  0.000    0.002 -0.001 -0.000
 H          0.000  0.000  0.000   -0.000 -0.000 -0.000    0.001  0.000  0.001
 H          0.000 -0.000  0.000   -0.001  0.001 -0.002    0.000 -0.000  0.000
 H          0.000 -0.001 -0.000   -0.001  0.005  0.000    0.000 -0.002 -0.000
 H         -0.000  0.003 -0.000    0.002 -0.050  0.002   -0.000  0.008 -0.000
 C         -0.028 -0.042 -0.077    0.000  0.000 -0.001   -0.034 -0.071  0.050
 C          0.000  0.001 -0.001   -0.046 -0.073 -0.034   -0.000 -0.001 -0.000
 H         -0.005 -0.003  0.007    0.079  0.032 -0.140    0.001  0.000 -0.001
 H         -0.001 -0.006 -0.001    0.171  0.775  0.074    0.001  0.007  0.001
 H          0.004  0.001  0.005    0.316  0.058  0.472    0.001  0.000  0.001
 H          0.141 -0.247  0.535    0.001 -0.002  0.005   -0.152  0.212 -0.530
 H          0.008  0.572  0.474    0.000  0.001  0.000   -0.003  0.138  0.145
 H          0.188  0.170 -0.092   -0.002 -0.002  0.001    0.550  0.503 -0.214
 TransDip  -0.040 -0.069 -0.073   -0.048 -0.112 -0.036   -0.083 -0.080  0.041

 Mode:                79                     80                     81
 Frequency:      3122.85                3125.68                3156.86
 Force Cnst:      6.3607                 6.3728                 6.4965
 Red. Mass:       1.1070                 1.1071                 1.1064
 IR Active:          YES                    YES                    YES
 IR Intens:       17.820                 13.494                 13.237
 Raman Active:       YES                    YES                    YES
               X      Y      Z        X      Y      Z        X      Y      Z
 C          0.000 -0.000 -0.000   -0.000 -0.000  0.000    0.000 -0.000 -0.000
 C          0.000  0.000 -0.000    0.000 -0.000 -0.000    0.000 -0.000  0.000
 C         -0.000  0.000  0.000    0.000  0.000 -0.000   -0.000  0.000 -0.000
 C         -0.000 -0.000 -0.000    0.000 -0.000  0.000   -0.000  0.001 -0.000
 O         -0.000  0.000  0.000    0.000 -0.000  0.000    0.000  0.000  0.000
 O         -0.000  0.000  0.000   -0.000 -0.000  0.000    0.000 -0.000  0.000
 O          0.000  0.000  0.000   -0.000 -0.000  0.000    0.000 -0.000  0.000
 O          0.000  0.000  0.000   -0.000  0.000  0.000    0.000 -0.000  0.000
 C          0.003 -0.001 -0.002    0.069 -0.016 -0.063   -0.064 -0.001 -0.070
 C          0.029 -0.073 -0.054   -0.001  0.003  0.002   -0.000  0.000 -0.001
 C         -0.000 -0.000  0.000    0.000  0.000  0.000   -0.000 -0.000  0.000
 C          0.000 -0.000  0.000   -0.000 -0.000  0.000    0.000 -0.000  0.000
 C         -0.000  0.000 -0.000    0.000  0.000  0.000   -0.000 -0.000  0.000
 C         -0.000 -0.000  0.000   -0.000  0.000  0.000   -0.000  0.000  0.000
 H         -0.008 -0.005  0.023   -0.236 -0.143  0.633   -0.120 -0.057  0.257
 H         -0.254  0.171  0.624    0.010 -0.007 -0.025   -0.002  0.002  0.006
 H          0.000  0.000 -0.000   -0.000 -0.000  0.000    0.002  0.001 -0.000
 H         -0.026  0.014  0.004   -0.629  0.327  0.088    0.288 -0.153 -0.063
 H         -0.001 -0.001 -0.002    0.041  0.008  0.019    0.587  0.220  0.636
 H          0.007 -0.015 -0.009   -0.002  0.001 -0.002    0.007 -0.004  0.008
 H         -0.094  0.705  0.017    0.003 -0.026 -0.001    0.000  0.000 -0.000
 H         -0.000  0.001 -0.000   -0.000  0.001 -0.000    0.000 -0.000  0.000
 C         -0.000 -0.000 -0.000   -0.000 -0.000 -0.000    0.000  0.000 -0.000
 C          0.001  0.001  0.000    0.000  0.000  0.000   -0.000 -0.000 -0.000
 H         -0.003 -0.001  0.005   -0.001 -0.000  0.001    0.000  0.000 -0.000
 H         -0.002 -0.011 -0.001   -0.001 -0.002 -0.000    0.000  0.000  0.000
 H         -0.004 -0.000 -0.006   -0.001 -0.000 -0.001    0.000  0.000  0.000
 H         -0.000  0.000 -0.000    0.000 -0.001  0.002    0.000 -0.000  0.001
 H         -0.000  0.001  0.001   -0.000  0.003  0.003    0.000 -0.001 -0.001
 H          0.001  0.001 -0.000    0.001  0.001 -0.000   -0.001 -0.001  0.001
 TransDip   0.042 -0.103 -0.077    0.080 -0.034 -0.080   -0.080 -0.026 -0.081

 Mode:                82                     83                     84
 Frequency:      3157.83                3160.68                3178.11
 Force Cnst:      6.4995                 6.3994                 6.5132
 Red. Mass:       1.1062                 1.0873                 1.0945
 IR Active:          YES                    YES                    YES
 IR Intens:       12.537                  8.444                 20.207
 Raman Active:       YES                    YES                    YES
               X      Y      Z        X      Y      Z        X      Y      Z
 C         -0.000 -0.000  0.000   -0.000  0.001 -0.000   -0.000  0.000 -0.000
 C         -0.000 -0.000  0.000   -0.000  0.000  0.000    0.001  0.000 -0.000
 C          0.001  0.001 -0.001    0.000  0.000 -0.000    0.000  0.000 -0.000
 C          0.000 -0.000  0.000    0.000 -0.000  0.000   -0.000  0.000 -0.000
 O          0.000 -0.000  0.000   -0.000  0.000 -0.000   -0.000 -0.000 -0.000
 O         -0.000 -0.000  0.000   -0.000 -0.000  0.000   -0.000 -0.000  0.000
 O         -0.000  0.000  0.000    0.000  0.000  0.000   -0.000 -0.000 -0.000
 O         -0.000  0.000 -0.000   -0.000  0.000 -0.000    0.000 -0.000  0.000
 C          0.001 -0.000  0.001   -0.000 -0.000 -0.000    0.000  0.000  0.000
 C         -0.037  0.041 -0.076    0.000 -0.000  0.001    0.000 -0.000  0.000
 C         -0.000  0.000 -0.000    0.002 -0.000 -0.000    0.002  0.001 -0.000
 C          0.000 -0.001  0.000   -0.002 -0.067  0.005    0.002 -0.055  0.003
 C          0.000  0.000 -0.000    0.043  0.028 -0.007   -0.060 -0.034  0.009
 C          0.000 -0.000 -0.000    0.001 -0.001 -0.000   -0.001  0.003 -0.000
 H          0.001  0.000 -0.001    0.000  0.000 -0.000   -0.000 -0.000  0.000
 H         -0.121  0.093  0.263    0.001 -0.001 -0.003    0.000 -0.000 -0.000
 H         -0.005 -0.003  0.001   -0.518 -0.316  0.078    0.669  0.400 -0.099
 H         -0.006  0.003  0.001    0.001 -0.000 -0.000    0.000 -0.000 -0.000
 H         -0.007 -0.003 -0.008    0.001  0.000  0.001   -0.001 -0.000 -0.001
 H          0.522 -0.289  0.672   -0.006  0.004 -0.008   -0.001  0.001 -0.001
 H          0.037 -0.297 -0.030   -0.000  0.003  0.000   -0.000 -0.000  0.000
 H         -0.000  0.011 -0.001    0.000  0.782 -0.052   -0.005  0.610 -0.040
 C          0.000  0.000 -0.000    0.002  0.002 -0.001   -0.002 -0.002  0.001
 C          0.000 -0.000  0.000   -0.002 -0.004 -0.000   -0.001 -0.002 -0.000
 H          0.000  0.000 -0.001    0.005  0.003 -0.008    0.001  0.002 -0.002
 H         -0.000 -0.000  0.000    0.008  0.046  0.005    0.004  0.026  0.003
 H         -0.001 -0.000 -0.001    0.005  0.001  0.008    0.001  0.001  0.003
 H          0.000 -0.000  0.000    0.002 -0.002  0.007   -0.000  0.001 -0.004
 H          0.000 -0.000 -0.000   -0.001 -0.006 -0.005    0.001  0.002  0.002
 H         -0.001 -0.000  0.000   -0.023 -0.018  0.008    0.021  0.017 -0.008
 TransDip  -0.065  0.038 -0.085    0.070 -0.062 -0.002   -0.080 -0.119  0.016

 STANDARD THERMODYNAMIC QUANTITIES AT   298.15 K  AND     1.00 ATM

   This Molecule has  0 Imaginary Frequencies
   Zero point vibrational energy:      150.501 kcal/mol

   Atom    1 Element C  Has Mass   12.00000
   Atom    2 Element C  Has Mass   12.00000
   Atom    3 Element C  Has Mass   12.00000
   Atom    4 Element C  Has Mass   12.00000
   Atom    5 Element O  Has Mass   15.99491
   Atom    6 Element O  Has Mass   15.99491
   Atom    7 Element O  Has Mass   15.99491
   Atom    8 Element O  Has Mass   15.99491
   Atom    9 Element C  Has Mass   12.00000
   Atom   10 Element C  Has Mass   12.00000
   Atom   11 Element C  Has Mass   12.00000
   Atom   12 Element C  Has Mass   12.00000
   Atom   13 Element C  Has Mass   12.00000
   Atom   14 Element C  Has Mass   12.00000
   Atom   15 Element H  Has Mass    1.00783
   Atom   16 Element H  Has Mass    1.00783
   Atom   17 Element H  Has Mass    1.00783
   Atom   18 Element H  Has Mass    1.00783
   Atom   19 Element H  Has Mass    1.00783
   Atom   20 Element H  Has Mass    1.00783
   Atom   21 Element H  Has Mass    1.00783
   Atom   22 Element H  Has Mass    1.00783
   Atom   23 Element C  Has Mass   12.00000
   Atom   24 Element C  Has Mass   12.00000
   Atom   25 Element H  Has Mass    1.00783
   Atom   26 Element H  Has Mass    1.00783
   Atom   27 Element H  Has Mass    1.00783
   Atom   28 Element H  Has Mass    1.00783
   Atom   29 Element H  Has Mass    1.00783
   Atom   30 Element H  Has Mass    1.00783
   Molecular Mass:   222.089260 amu
   Principal axes and moments of inertia in amu*Bohr^2:
                             1           2           3
    Eigenvalues --     2868.19596  3199.79832  5578.34961
          X               0.99994     0.01107    -0.00024
          Y              -0.01106     0.99990     0.00889
          Z               0.00034    -0.00888     0.99996
   Rotational Symmetry Number is   1
   The Molecule is an Asymmetric Top
   Translational Enthalpy:        0.889 kcal/mol
   Rotational Enthalpy:           0.889 kcal/mol
   Vibrational Enthalpy:        159.350 kcal/mol
   gas constant (RT):             0.592 kcal/mol
   Translational Entropy:        42.096  cal/mol.K
   Rotational Entropy:           32.304  cal/mol.K
   Vibrational Entropy:          58.971  cal/mol.K

   Total Enthalpy:              161.720 kcal/mol
   Total Entropy:               133.372  cal/mol.K
Archival summary:
1\1\nid03054\FREQ\ProcedureUnspecified\BasisUnspecified\41214\junteng\WedOct421:28:552017WedOct421:28:552017\0\\#,FREQ,ProcedureUnspecified,BasisUnspecified,\\0,1\O\C,1,1.34966\O,2,1.20644,1,123.703\C,1,1.43907,2,115.861,3,-8.14133,0\H,4,1.08773,1,105.417,2,177.918,0\H,4,1.09062,1,110.622,2,58.2061,0\H,4,1.09126,1,109.806,2,-62.7989,0\C,2,1.49715,1,111.235,3,-178.46,0\C,8,1.40656,2,118.931,1,130.452,0\C,9,1.39581,8,117.527,2,-179.461,0\H,10,1.0849,9,119.075,8,179.304,0\C,10,1.38857,9,121.532,8,-1.14908,0\H,12,1.085,10,119.364,9,-178.723,0\C,12,1.39615,10,121.603,9,0.851644,0\C,14,1.40545,12,117.569,10,0.25942,0\C,15,1.5001,14,120.073,12,-175.801,0\O,16,1.20797,15,124.47,14,121.892,0\O,16,1.3459,15,111.871,14,-56.8517,0\C,18,1.43936,16,115.905,15,177.886,0\H,19,1.08763,18,105.399,16,-178.394,0\H,19,1.09094,18,110.317,16,62.1507,0\H,19,1.09112,18,110.461,16,-58.6988,0\C,9,1.50999,8,122.818,2,0.18054,0\H,23,1.09161,9,110.204,8,-169.817,0\H,23,1.09199,9,111.045,8,69.8113,0\H,23,1.09269,9,111.99,8,-49.4029,0\C,14,1.51109,12,119.423,10,-178.687,0\H,27,1.09144,14,110.186,12,10.5858,0\H,27,1.092,14,111.221,12,-109.647,0\H,27,1.09331,14,111.865,12,130.419,0\\\@

 Total job time:  8313.57s(wall), 47490.48s(cpu) 
 Wed Oct  4 21:28:55 2017

        *************************************************************
        *                                                           *
        *  Thank you very much for using Q-Chem.  Have a nice day.  *
        *                                                           *
        *************************************************************


