nid04368 10.128.17
Q-Chem Developer Version! Running on 10.128.17.*
                  Welcome to Q-Chem
     A Quantum Leap Into The Future Of Chemistry


 Q-Chem 5.0, Q-Chem, Inc., Pleasanton, CA (2017)

 Yihan Shao,  Zhengting Gan,  E. Epifanovsky,  A. T. B. Gilbert,  M. Wormit,  
 J. Kussmann,  A. W. Lange,  A. Behn,  Jia Deng,  Xintian Feng,  D. Ghosh,  
 M. Goldey,  P. R. Horn,  L. D. Jacobson,  I. Kaliman,  T. Kus,  A. Landau,  
 Jie Liu,  E. I. Proynov,  R. M. Richard,  R. P. Steele,  E. J. Sundstrom,  
 H. L. Woodcock III,  P. M. Zimmerman,  D. Zuev,  B. Albrecht,  E. Alguire,  
 S. A. Baeppler,  Z. Benda,  Y. A. Bernard,  E. J. Berquist,  K. B. Bravaya,  
 D. Casanova,  Chun-Min Chang,  Yunqing Chen,  A. Chien,  K. D. Closser,  
 M. P. Coons,  S. Dasgupta,  M. Diedenhofen,  Hainam Do,  R. G. Edgar,  
 Po-Tung Fang,  S. Fatehi,  Qingguo Feng,  Qinghui Ge,  A. Ghysels,  
 J. Gomes,  J. Gonthier,  A. Gunina,  M. W. D. Hanson-Heine,  
 P. H. P. Harbach,  A. W. Hauser,  J. E. Herr,  E. G. Hohenstein,  
 Z. C. Holden,  Kerwin Hui,  T.-C. Jagau,  Hyunjun Ji,  B. Kaduk,  
 K. Khistyaev,  Jaehoon Kim,  P. Klunzinger,  K. Koh,  D. Kosenkov,  
 T. Kowalczyk,  C. M. Krauter,  A. Kunitsa,  Ka Un Lao,  A. Laurent,  
 K. V. Lawler,  Joonho Lee,  D. Lefrancois,  S. Lehtola,  D. S. Levine,  
 Yi-Pei Li,  You-Sheng Lin,  Fenglai Liu,  E. Livshits,  A. Luenser,  
 P. Manohar,  E. Mansoor,  S. F. Manzer,  Shan-Ping Mao,  Yuezhi Mao,  
 N. Mardirossian,  A. V. Marenich,  L. A. Martinez-Martinez,  S. A. Maurer,  
 N. J. Mayhall,  S. C. McKenzie,  J.-M. Mewes,  A. F. Morrison,  K. Nanda,  
 T. S. Nguyen-Beck,  R. Olivares-Amaya,  J. A. Parkhill,  T. M. Perrine,  
 F. Plasser,  S. Prager,  A. Prociuk,  D. R. Rehn,  F. Rob,  M. Schneider,  
 N. Sergueev,  S. M. Sharada,  S. Sharma,  D. W. Small,  T. Stauch,  
 T. Stein,  Yu-Chuan Su,  A. J. W. Thom,  T. Tsuchimochi,  L. Vogt,  
 O. Vydrov,  M. A. Watson,  J. Wenzel,  M. de Wergifosse,  T. A. Wesolowski,  
 A. White,  J. Witte,  A. Yamada,  Jun Yang,  K. Yao,  S. Yeganeh,  
 S. R. Yost,  Zhi-Qiang You,  A. Zech,  Igor Ying Zhang,  Xing Zhang,  
 Yan Zhao,  Ying Zhu,  B. R. Brooks,  G. K. L. Chan,  C. J. Cramer,  
 M. S. Gordon,  W. J. Hehre,  A. Klamt,  M. W. Schmidt,  C. D. Sherrill,  
 D. G. Truhlar,  A. Aspuru-Guzik,  R. Baer,  A. T. Bell,  N. A. Besley,  
 Jeng-Da Chai,  A. Dreuw,  B. D. Dunietz,  T. R. Furlani,  Chao-Ping Hsu,  
 Yousung Jung,  Jing Kong,  D. S. Lambrecht,  WanZhen Liang,  C. Ochsenfeld,  
 V. A. Rassolov,  L. V. Slipchenko,  J. E. Subotnik,  T. Van Voorhis,  
 J. M. Herbert,  A. I. Krylov,  P. M. W. Gill,  M. Head-Gordon

 Contributors to earlier versions of Q-Chem not listed above: 
 R. D. Adamson,  B. Austin,  J. Baker,  G. J. O. Beran,  K. Brandhorst,  
 S. T. Brown,  E. F. C. Byrd,  A. K. Chakraborty,  C.-L. Cheng,  
 Siu Hung Chien,  D. M. Chipman,  D. L. Crittenden,  H. Dachsel,  
 R. A. DiStasio Jr.,  R. J. Doerksen,  A. D. Dutoi,  L. Fusti-Molnar,  
 W. A. Goddard III,  A. Golubeva-Zadorozhnaya,  S. R. Gwaltney,  G. Hawkins,  
 A. Heyden,  S. Hirata,  G. Kedziora,  F. J. Keil,  C. Kelley,  Jihan Kim,  
 R. A. King,  R. Z. Khaliullin,  P. P. Korambath,  W. Kurlancheek,  
 A. M. Lee,  M. S. Lee,  S. V. Levchenko,  Ching Yeh Lin,  D. Liotard,  
 R. C. Lochan,  I. Lotan,  P. E. Maslen,  N. Nair,  D. P. O'Neill,  
 D. Neuhauser,  E. Neuscamman,  C. M. Oana,  R. Olson,  B. Peters,  
 R. Peverati,  P. A. Pieniazek,  Y. M. Rhee,  J. Ritchie,  M. A. Rohrdanz,  
 E. Rosta,  N. J. Russ,  H. F. Schaefer III,  N. E. Schultz,  N. Shenvi,  
 A. C. Simmonett,  A. Sodt,  D. Stuck,  K. S. Thanthiriwatte,  V. Vanovschi,  
 Tao Wang,  A. Warshel,  C. F. Williams,  Q. Wu,  X. Xu,  W. Zhang

 Please cite Q-Chem as follows:
 Y. Shao et al., Mol. Phys. 113, 184-215 (2015)
 DOI: 10.1080/00268976.2014.952696

 Q-Chem 5.0.0 for Intel X86 EM64T Linux

 Parts of Q-Chem use Armadillo 5.200.1 (Boston Tea Smuggler).
 http://arma.sourceforge.net/

 Q-Chem begins on Wed Oct  4 18:02:42 2017  

Host: nid04368
0

     Scratch files written to /global/cscratch1/sd/junteng/scratch/16/opt_10n01--.save//

Checking the input file for inconsistencies... 	...done.

--------------------------------------------------------------
User input:
--------------------------------------------------------------
$molecule
0  1
C    0.355  -2.424   0.293
C   -0.264  -2.685   1.524
C    0.749  -1.045  -0.086
C   -0.385  -1.681   2.598
O    1.805  -1.090  -0.938
O    0.175  -0.038   0.291
O    0.833  -1.128   2.820
O   -1.397  -1.517   3.259
C    0.836  -0.152   3.862
C    2.258   0.195  -1.365
C    0.489  -3.469  -0.639
C    0.011  -4.748  -0.345
C   -0.620  -4.996   0.872
C   -0.760  -3.969   1.804
H    0.142   0.662   3.629
H    1.480   0.699  -1.947
H   -1.003  -5.990   1.096
H    0.581  -0.616   4.820
H    1.845   0.263   3.935
H    3.132   0.050  -2.006
H    2.557   0.804  -0.506
H    0.116  -5.548  -1.075
H   -1.248  -4.169   2.757
H    0.945  -3.290  -1.611
$end


$opt
CONSTRAINT
tors    2    1    3    5    150.0
tors    1    2    4    7    -55.0
ENDCONSTRAINT
$end

$rem
JOBTYPE                   OPT
METHOD                    B3LYP
DFT_D                     D3_OP
BASIS                     STO-3G
GEOM_OPT_MAX_CYCLES       500
SYMMETRY                  False
THRESH                    12
SCF_CONVERGENCE           8
MAX_SUB_FILE_NUM          128
MEM_STATIC                400
MEM_TOTAL                 4000
$end

--------------------------------------------------------------
 Adding empirical dispersion correction 
 ----------------------------------------------------------------
 Doing -D3(op) with
 s6 =   1.00000
 s8 =   0.78311
 a1 =   0.30000
 a2 =   4.25000
 n  =  10.00000
 -D3 energy without 3body term =     -0.0235264244 hartrees
 ----------------------------------------------------------------
             Standard Nuclear Orientation (Angstroms)
    I     Atom           X                Y                Z
 ----------------------------------------------------------------
    1      C       0.0048685472    -0.8715632622    -0.0674007052
    2      C      -1.0919198482     0.0016590604    -0.1017662538
    3      C       1.3789608532    -0.3820370773    -0.3371273238
    4      C      -0.9567219841     1.4673235547    -0.2001640574
    5      O       2.2778658221    -1.1635542316     0.3142295632
    6      O       1.6428666882     0.5580963624    -1.0666181229
    7      O      -0.0793961891     1.8906553810     0.7430785488
    8      O      -1.6538448556     2.1636006328    -0.9193155941
    9      C       0.1112497942     3.3055484230     0.7520668044
   10      C       3.6362803702    -0.7724170820     0.1130215962
   11      C      -0.2239907215    -2.2487533468     0.1045757645
   12      C      -1.5242777058    -2.7411486134     0.2370961776
   13      C      -2.6105318253    -1.8705883996     0.1829583704
   14      C      -2.3975725218    -0.5036921638     0.0120899544
   15      H       0.4798571535     3.6504889134    -0.2193577541
   16      H       3.9131930930    -0.8856432273    -0.9398426800
   17      H      -3.6244084650    -2.2560700247     0.2743863539
   18      H      -0.8213882332     3.8144524380     1.0152929683
   19      H       0.8618027747     3.5417630810     1.5113479505
   20      H       4.2706392529    -1.4319291517     0.7116990033
   21      H       3.7952127220     0.2573747806     0.4483307479
   22      H      -1.6901414468    -3.8088449794     0.3653096299
   23      H      -3.2494252071     0.1741533752    -0.0229161569
   24      H       0.6066568830    -2.9521169215     0.1126528134
 ----------------------------------------------------------------
 Molecular Point Group                 C1    NOp =  1
 Largest Abelian Subgroup              C1    NOp =  1
 Nuclear Repulsion Energy =   889.7605996999 hartrees
 There are       51 alpha and       51 beta electrons
 Requested basis set is STO-3G
 There are 38 shells and 80 basis functions

 Total QAlloc Memory Limit   4000 MB
 Mega-Array Size       392 MB
 MEM_STATIC part       400 MB
 A cutoff of  1.0D-12 yielded    631 shell pairs
 There are      3151 function pairs
 
 -------------------------------------------------------
 OpenMP Integral Computing Module                       
 Release: version 1.0, May 2013, Q-Chem Inc. Pittsburgh 
 -------------------------------------------------------
 Integral Job Info:
 Integral job number is                      11
 Integral operator is                         1
 short-range coefficients                     0
 long-range coefficients              100000000
 Omega coefficients                           0
 if combine SR and LR in K                    0
 Integral screening is                        0
 Integral computing path is                   2
 max size of driver memory is            800000
 size of driver memory is                 45569
 size of scratch memory is               945100
 max col of scratch BK array                289
 max len of scratch array in speh3           22
 max len of scratch index in speh4            8
 max int batch size is                      520
 min int batch size is                       52
 fixed nKL is                                52
 max L of basis functions is                  1
 order of int derivative is                   0
 number of shells is                         38
 number of basis is                          80
 number of cartesian basis is                80
 number of contracted shell pairs           631
 number of primitive shell pairs           3502
 maxK2 (contraction) of shell pair            9
 max number of K2 of shell pair               1
 max number of CS2 of shell pair             91
 max number of PS2 of shell pair            468
 mem total for path MDJ                   25386
 -------------------------------------------------------
 Smallest overlap matrix eigenvalue = 1.73E-01

 Scale SEOQF with 1.000000e-01/1.000000e-01/1.000000e+00

 Standard Electronic Orientation quadrupole field applied
 Nucleus-field energy     =     0.0000000031 hartrees
 Guess from superposition of atomic densities
 Warning:  Energy on first SCF cycle will be non-variational
 A restricted hybrid HF-DFT SCF calculation will be
 performed using Pulay DIIS extrapolation
 Exchange:     0.2000 Hartree-Fock + 0.0800 Slater + 0.7200 B88
 Correlation:  0.1900 VWN1RPA + 0.8100 LYP
 Using SG-1 standard quadrature grid
 Dispersion:   Grimme D3
 SCF converges when DIIS error is below 1.0E-08
 -------------------------------------------------------
 OpenMP Integral computing Module                
 Release: version 1.0, May 2013, Q-Chem Inc. Pittsburgh 
 -------------------------------------------------------
 -------------------------------------------------------
 OpenMP BLAS3 based DFT computing Module                
 Release: version 1.0, May 2013, Q-Chem Inc. Pittsburgh 
 -------------------------------------------------------
 ---------------------------------------
  Cycle       Energy         DIIS Error
 ---------------------------------------
    1    -679.1330742783      1.26E-01
    2    -678.8427567625      1.47E-02
    3    -677.8244880427      3.88E-02
    4    -679.0444374619      5.12E-03
    5    -679.0653698754      1.92E-03
    6    -679.0685893525      4.89E-04
    7    -679.0688086880      1.64E-04
    8    -679.0688325245      6.17E-05
    9    -679.0688352391      2.86E-05
   10    -679.0688361181      3.14E-06
   11    -679.0688361278      1.13E-06
   12    -679.0688361290      2.41E-07
   13    -679.0688361291      1.07E-07
   14    -679.0688361291      3.14E-08
   15    -679.0688361291      6.94E-09 Convergence criterion met
 ---------------------------------------
 SCF time:  CPU 49.64 s  wall 2.12 s
 SCF   energy in the final basis set = -679.0688361291
 Total energy in the final basis set = -679.0688361291
 
 --------------------------------------------------------------
 
                    Orbital Energies (a.u.)
 --------------------------------------------------------------
 
 Alpha MOs
 -- Occupied --
-18.949 -18.946 -18.869 -18.865 -10.118 -10.113 -10.077 -10.071
-10.028 -10.026 -10.017 -10.017 -10.016 -10.015  -1.049  -1.042
 -0.958  -0.954  -0.822  -0.734  -0.725  -0.683  -0.674  -0.597
 -0.581  -0.532  -0.505  -0.479  -0.455  -0.439  -0.432  -0.426
 -0.417  -0.402  -0.389  -0.379  -0.356  -0.354  -0.340  -0.329
 -0.320  -0.310  -0.300  -0.254  -0.248  -0.203  -0.202  -0.186
 -0.179  -0.155  -0.149
 -- Virtual --
  0.048   0.070   0.134   0.148   0.250   0.283   0.307   0.353
  0.381   0.390   0.398   0.417   0.436   0.441   0.443   0.453
  0.454   0.455   0.457   0.470   0.480   0.565   0.570   0.592
  0.607   0.692   0.707   0.784   0.805
 --------------------------------------------------------------
 
          Ground-State Mulliken Net Atomic Charges

     Atom                 Charge (a.u.)
  ----------------------------------------
      1 C                    -0.016460
      2 C                    -0.013193
      3 C                     0.236815
      4 C                     0.239331
      5 O                    -0.184254
      6 O                    -0.228518
      7 O                    -0.182816
      8 O                    -0.225997
      9 C                    -0.125951
     10 C                    -0.125656
     11 C                    -0.071459
     12 C                    -0.077394
     13 C                    -0.076184
     14 C                    -0.071171
     15 H                     0.097497
     16 H                     0.093769
     17 H                     0.085582
     18 H                     0.092573
     19 H                     0.095187
     20 H                     0.096656
     21 H                     0.094826
     22 H                     0.084752
     23 H                     0.090621
     24 H                     0.091440
  ----------------------------------------
  Sum of atomic charges =     0.000000

 -----------------------------------------------------------------
                    Cartesian Multipole Moments
 -----------------------------------------------------------------
    Charge (ESU x 10^10)
                -0.0000
    Dipole Moment (Debye)
         X       1.2481      Y      -0.8457      Z       1.4685
       Tot       2.1046
    Quadrupole Moments (Debye-Ang)
        XX     -65.3011     XY       2.1209     YY     -67.3113
        XZ      -1.3115     YZ       4.6689     ZZ     -77.0076
    Octopole Moments (Debye-Ang^2)
       XXX      32.6486    XXY     -10.3188    XYY       7.7006
       YYY      22.5743    XXZ       7.0980    XYZ      -0.6038
       YYZ      10.9090    XZZ       8.2910    YZZ       6.2845
       ZZZ      -3.3968
    Hexadecapole Moments (Debye-Ang^3)
      XXXX   -1419.9863   XXXY     -32.5552   XXYY    -506.4431
      XYYY      11.8858   YYYY   -1399.1191   XXXZ       1.8789
      XXYZ      10.6306   XYYZ     -13.3076   YYYZ      18.6340
      XXZZ    -302.3897   XYZZ      -9.9894   YYZZ    -286.2151
      XZZZ       2.4642   YZZZ      -0.6197   ZZZZ    -173.6954
 -----------------------------------------------------------------
 Calculating analytic gradient of the SCF energy
 Gradient of SCF Energy
            1           2           3           4           5           6
    1   0.0189467   0.0093829   0.0257808   0.0081785  -0.0074890  -0.0217180
    2   0.0223592   0.0288567   0.0007986   0.0175880   0.0516881  -0.0565203
    3  -0.0065385  -0.0046518  -0.0033992   0.0079344  -0.0409363   0.0412028
            7           8           9          10          11          12
    1  -0.0442633   0.0324227  -0.0030645  -0.0197333   0.0015887  -0.0032796
    2   0.0162203  -0.0474403  -0.0223198  -0.0061442   0.0052309   0.0074133
    3  -0.0457045   0.0399112   0.0002509   0.0040683   0.0000763  -0.0004771
           13          14          15          16          17          18
    1   0.0091845   0.0031285  -0.0006871  -0.0066692   0.0075847   0.0097128
    2   0.0006146   0.0015510  -0.0080860  -0.0039866   0.0028168  -0.0100635
    3  -0.0000973   0.0000466   0.0104685   0.0118894  -0.0007431   0.0009652
           19          20          21          22          23          24
    1  -0.0071448  -0.0035130  -0.0048494   0.0009058   0.0042493  -0.0086547
    2   0.0005358   0.0078508  -0.0127042   0.0083381  -0.0067165   0.0021193
    3  -0.0078565  -0.0064892   0.0011465  -0.0011694   0.0005009  -0.0003980
 Max gradient component =       5.652E-02
 RMS gradient           =       1.839E-02
 Gradient time:  CPU 10.41 s  wall 0.45 s
 Geometry Optimization Parameters
   NAtoms,    NIC,     NZ,  NCons,   NDum,   NFix, NCnnct, MaxDiis
       24     152       0       2       0       0       0       0


** CONSTRAINED OPTIMIZATION IN DELOCALIZED INTERNAL COORDINATES **
   Searching for a Minimum

   Optimization Cycle:   1

                       Coordinates (Angstroms)
     ATOM                X               Y               Z
      1  C         0.0048685472   -0.8715632622   -0.0674007052
      2  C        -1.0919198482    0.0016590604   -0.1017662538
      3  C         1.3789608532   -0.3820370773   -0.3371273238
      4  C        -0.9567219841    1.4673235547   -0.2001640574
      5  O         2.2778658221   -1.1635542316    0.3142295632
      6  O         1.6428666882    0.5580963624   -1.0666181229
      7  O        -0.0793961891    1.8906553810    0.7430785488
      8  O        -1.6538448556    2.1636006328   -0.9193155941
      9  C         0.1112497942    3.3055484230    0.7520668044
     10  C         3.6362803702   -0.7724170820    0.1130215962
     11  C        -0.2239907215   -2.2487533468    0.1045757645
     12  C        -1.5242777058   -2.7411486134    0.2370961776
     13  C        -2.6105318253   -1.8705883996    0.1829583704
     14  C        -2.3975725218   -0.5036921638    0.0120899544
     15  H         0.4798571535    3.6504889134   -0.2193577541
     16  H         3.9131930930   -0.8856432273   -0.9398426800
     17  H        -3.6244084650   -2.2560700247    0.2743863539
     18  H        -0.8213882332    3.8144524380    1.0152929683
     19  H         0.8618027747    3.5417630810    1.5113479505
     20  H         4.2706392529   -1.4319291517    0.7116990033
     21  H         3.7952127220    0.2573747806    0.4483307479
     22  H        -1.6901414468   -3.8088449794    0.3653096299
     23  H        -3.2494252071    0.1741533752   -0.0229161569
     24  H         0.6066568830   -2.9521169215    0.1126528134
   Point Group: c1    Number of degrees of freedom:    66


   Energy is   -679.068836129

              Constraints and their Current Values
                                        Value     Constraint
   Dihedral:        2   1   3   5      152.312      150.000
   Dihedral:        1   2   4   7      -50.252      -55.000

 Attempting to Generate Delocalized Internal Coordinates

   Using Lagrange Multiplier Algorithm


 68 Hessian modes will be used to form the next step
  Hessian Eigenvalues:
    -0.977753   -0.977753    0.045000    0.045000    0.045000    0.045000
     0.045000    0.045000    0.045001    0.045001    0.045002    0.045005
     0.045013    0.045027    0.045031    0.045181    0.045530    0.113864
     0.113915    0.116869    0.116916    0.159954    0.159981    0.159993
     0.160000    0.160000    0.160000    0.160000    0.160000    0.160000
     0.160000    0.219995    0.224790    0.244310    0.248434    0.248766
     0.249810    0.249910    0.250000    0.250000    0.250000    0.250000
     0.341816    0.342672    0.342857    0.342897    0.342929    0.344092
     0.344169    0.349054    0.349829    0.349904    0.350351    0.351283
     0.412994    0.413052    0.413205    0.417941    0.448645    0.456536
     0.460014    0.465920    0.534366    0.537734    0.954630    0.958839
     1.022753    1.022753

 Minimum Search - Taking P-RFO Step
 Searching for Lamda that Maximizes Along the Constraint modes Only
 Value Taken    Lamda =   0.00502850
 Searching for Lamda that Minimizes Along All other modes
 Value Taken    Lamda =  -0.05580397
 Calculated Step too Large.  Step scaled by  0.873454
 Step Taken.  Stepsize is  0.300000

                             Maximum     Tolerance    Cnvgd?
         Gradient            0.087489       0.000300      NO
         Displacement        0.150839       0.001200      NO
         Energy change     *********       0.000001      NO


 New Cartesian Coordinates Obtained by Inverse Iteration

 Displacement from previous Coordinates is:  0.738341
 Adding empirical dispersion correction 
 ----------------------------------------------------------------
 Doing -D3(op) with
 s6 =   1.00000
 s8 =   0.78311
 a1 =   0.30000
 a2 =   4.25000
 n  =  10.00000
 -D3 energy without 3body term =     -0.0233432302 hartrees
 ----------------------------------------------------------------
             Standard Nuclear Orientation (Angstroms)
    I     Atom           X                Y                Z
 ----------------------------------------------------------------
    1      C      -0.0298668767    -0.9323225841    -0.0731294982
    2      C      -1.1306596145    -0.0343873597    -0.0801475554
    3      C       1.3864925194    -0.4134030888    -0.3489895547
    4      C      -0.9550771660     1.4871003298    -0.2036242183
    5      O       2.3279408844    -1.2080636522     0.3314716881
    6      O       1.6709877756     0.5664922402    -1.0746940430
    7      O      -0.0742599033     1.9366908791     0.7975823788
    8      O      -1.6175371585     2.2348191182    -0.9574041761
    9      C       0.1242576033     3.3895962290     0.7616063611
   10      C       3.7052595454    -0.7572570444     0.1102632144
   11      C      -0.2674443672    -2.3201778277     0.0891411515
   12      C      -1.5791358340    -2.8124325049     0.2282010372
   13      C      -2.6726884385    -1.9235211061     0.1894076266
   14      C      -2.4481366396    -0.5425949623     0.0312466873
   15      H       0.5287608269     3.7241040216    -0.2150568129
   16      H       4.0033525814    -0.8494940718    -0.9542301561
   17      H      -3.6975338170    -2.3059239259     0.2821395288
   18      H      -0.8177074896     3.9377081460     0.9686699569
   19      H       0.8574790314     3.6338692406     1.5517648407
   20      H       4.3571167762    -1.4107642030     0.7185530396
   21      H       3.8518730848     0.2927714890     0.4351618539
   22      H      -1.7496456025    -3.8901158269     0.3486114873
   23      H      -3.2961635008     0.1539233632     0.0024769741
   24      H       0.5781707299    -3.0198593775     0.0846057868
 ----------------------------------------------------------------
 Molecular Point Group                 C1    NOp =  1
 Largest Abelian Subgroup              C1    NOp =  1
 Nuclear Repulsion Energy =   870.2463562833 hartrees
 There are       51 alpha and       51 beta electrons
 Applying Cartesian multipole field
    Component          Value
    ---------          -----
     (2,0,0)        1.00000E-11
     (0,2,0)        2.00000E-11
     (0,0,2)       -3.00000E-10
 Nucleus-field energy     =     0.0000000032 hartrees
 Requested basis set is STO-3G
 There are 38 shells and 80 basis functions
 A cutoff of  1.0D-12 yielded    629 shell pairs
 There are      3146 function pairs
 Smallest overlap matrix eigenvalue = 1.81E-01
 Guess MOs from SCF MO coefficient file
 Reading MOs from coefficient file
 Reading MOs from coefficient file
 A restricted hybrid HF-DFT SCF calculation will be
 performed using Pulay DIIS extrapolation
 Exchange:     0.2000 Hartree-Fock + 0.0800 Slater + 0.7200 B88
 Correlation:  0.1900 VWN1RPA + 0.8100 LYP
 Using SG-1 standard quadrature grid
 Dispersion:   Grimme D3
 SCF converges when DIIS error is below 1.0E-08
 Geometry optimization detected.  Setting ReadMinima to 0
 Setting SaveMinima to 0
 -------------------------------------------------------
 OpenMP Integral computing Module                
 Release: version 1.0, May 2013, Q-Chem Inc. Pittsburgh 
 -------------------------------------------------------
 -------------------------------------------------------
 OpenMP BLAS3 based DFT computing Module                
 Release: version 1.0, May 2013, Q-Chem Inc. Pittsburgh 
 -------------------------------------------------------
 ---------------------------------------
  Cycle       Energy         DIIS Error
 ---------------------------------------
    1    -678.9305389902      7.43E-03
    2    -679.0861519558      2.93E-03
    3    -679.0721011051      4.90E-03
    4    -679.0936444531      7.46E-04
    5    -679.0941861961      1.81E-04
    6    -679.0942171673      5.31E-05
    7    -679.0942198134      2.16E-05
    8    -679.0942201845      1.21E-05
    9    -679.0942203194      2.34E-06
   10    -679.0942203254      4.25E-07
   11    -679.0942203256      1.53E-07
   12    -679.0942203256      3.03E-08
   13    -679.0942203256      1.69E-08
   14    -679.0942203256      4.91E-09 Convergence criterion met
 ---------------------------------------
 SCF time:  CPU 43.15 s  wall 1.83 s
 SCF   energy in the final basis set = -679.0942203256
 Total energy in the final basis set = -679.0942203256
 
 --------------------------------------------------------------
 
                    Orbital Energies (a.u.)
 --------------------------------------------------------------
 
 Alpha MOs
 -- Occupied --
-18.943 -18.938 -18.872 -18.869 -10.108 -10.105 -10.071 -10.066
-10.031 -10.030 -10.020 -10.020 -10.019 -10.018  -1.021  -1.014
 -0.940  -0.935  -0.815  -0.724  -0.716  -0.672  -0.663  -0.589
 -0.577  -0.524  -0.498  -0.467  -0.445  -0.423  -0.418  -0.416
 -0.408  -0.398  -0.380  -0.372  -0.355  -0.349  -0.333  -0.320
 -0.318  -0.304  -0.293  -0.256  -0.250  -0.202  -0.200  -0.182
 -0.174  -0.154  -0.149
 -- Virtual --
  0.044   0.066   0.118   0.133   0.235   0.253   0.277   0.326
  0.352   0.359   0.381   0.397   0.419   0.421   0.426   0.430
  0.434   0.438   0.441   0.446   0.452   0.540   0.546   0.568
  0.580   0.650   0.652   0.748   0.774
 --------------------------------------------------------------
 
          Ground-State Mulliken Net Atomic Charges

     Atom                 Charge (a.u.)
  ----------------------------------------
      1 C                    -0.014084
      2 C                    -0.010824
      3 C                     0.215119
      4 C                     0.217991
      5 O                    -0.171395
      6 O                    -0.213183
      7 O                    -0.170907
      8 O                    -0.211590
      9 C                    -0.123892
     10 C                    -0.123933
     11 C                    -0.071515
     12 C                    -0.074794
     13 C                    -0.073589
     14 C                    -0.071407
     15 H                     0.093391
     16 H                     0.089741
     17 H                     0.085321
     18 H                     0.088822
     19 H                     0.091481
     20 H                     0.092683
     21 H                     0.091344
     22 H                     0.084602
     23 H                     0.089497
     24 H                     0.091123
  ----------------------------------------
  Sum of atomic charges =    -0.000000

 -----------------------------------------------------------------
                    Cartesian Multipole Moments
 -----------------------------------------------------------------
    Charge (ESU x 10^10)
                -0.0000
    Dipole Moment (Debye)
         X       1.0290      Y      -0.9075      Z       1.3278
       Tot       1.9093
    Quadrupole Moments (Debye-Ang)
        XX     -64.7613     XY       2.4748     YY     -66.9722
        XZ      -1.3755     YZ       4.5325     ZZ     -77.2438
    Octopole Moments (Debye-Ang^2)
       XXX      33.1595    XXY      -9.0798    XYY       6.8085
       YYY      25.0663    XXZ       6.3411    XYZ      -0.3609
       YYZ      11.0349    XZZ       9.0012    YZZ       6.8748
       ZZZ      -3.9836
    Hexadecapole Moments (Debye-Ang^3)
      XXXX   -1459.6656   XXXY     -42.3449   XXYY    -526.5702
      XYYY       3.8493   YYYY   -1460.0866   XXXZ       1.9363
      XXYZ       8.9524   XYYZ     -12.9583   YYYZ      19.1391
      XXZZ    -313.1434   XYZZ     -13.5740   YYZZ    -301.6560
      XZZZ       3.5775   YZZZ      -2.2708   ZZZZ    -179.4773
 -----------------------------------------------------------------
 Calculating analytic gradient of the SCF energy
 Gradient of SCF Energy
            1           2           3           4           5           6
    1   0.0016469   0.0010719   0.0081655   0.0159108  -0.0019194  -0.0026957
    2   0.0059879   0.0044006  -0.0117665  -0.0011842   0.0175104  -0.0047596
    3  -0.0014107   0.0003964   0.0052534   0.0071552  -0.0124178   0.0021777
            7           8           9          10          11          12
    1  -0.0166645  -0.0010396   0.0007709  -0.0075856   0.0011305  -0.0003525
    2   0.0072899  -0.0040075  -0.0086253  -0.0044714   0.0002299  -0.0007743
    3  -0.0143694   0.0046702   0.0028707   0.0032296   0.0006779   0.0003429
           13          14          15          16          17          18
    1  -0.0005280  -0.0013776   0.0011222   0.0004736   0.0006240   0.0009527
    2  -0.0005154   0.0007742  -0.0001456  -0.0013689   0.0001113  -0.0001408
    3   0.0002853  -0.0007715   0.0010851   0.0008476  -0.0000163   0.0014331
           19          20          21          22          23          24
    1  -0.0003826   0.0015726   0.0006014   0.0000371   0.0003115  -0.0018464
    2   0.0022910   0.0014857  -0.0011180   0.0006329  -0.0010600  -0.0007764
    3  -0.0010343  -0.0009411   0.0012811  -0.0002094  -0.0001312  -0.0004045
 Max gradient component =       1.751E-02
 RMS gradient           =       5.113E-03
 Gradient time:  CPU 9.60 s  wall 0.40 s
 Geometry Optimization Parameters
   NAtoms,    NIC,     NZ,  NCons,   NDum,   NFix, NCnnct, MaxDiis
       24     152       0       2       0       0       0       0

 Cartesian Hessian Update
 Hessian Updated using BFGS Update


** CONSTRAINED OPTIMIZATION IN DELOCALIZED INTERNAL COORDINATES **
   Searching for a Minimum

   Optimization Cycle:   2

                       Coordinates (Angstroms)
     ATOM                X               Y               Z
      1  C        -0.0298668767   -0.9323225841   -0.0731294982
      2  C        -1.1306596145   -0.0343873597   -0.0801475554
      3  C         1.3864925194   -0.4134030888   -0.3489895547
      4  C        -0.9550771660    1.4871003298   -0.2036242183
      5  O         2.3279408844   -1.2080636522    0.3314716881
      6  O         1.6709877756    0.5664922402   -1.0746940430
      7  O        -0.0742599033    1.9366908791    0.7975823788
      8  O        -1.6175371585    2.2348191182   -0.9574041761
      9  C         0.1242576033    3.3895962290    0.7616063611
     10  C         3.7052595454   -0.7572570444    0.1102632144
     11  C        -0.2674443672   -2.3201778277    0.0891411515
     12  C        -1.5791358340   -2.8124325049    0.2282010372
     13  C        -2.6726884385   -1.9235211061    0.1894076266
     14  C        -2.4481366396   -0.5425949623    0.0312466873
     15  H         0.5287608269    3.7241040216   -0.2150568129
     16  H         4.0033525814   -0.8494940718   -0.9542301561
     17  H        -3.6975338170   -2.3059239259    0.2821395288
     18  H        -0.8177074896    3.9377081460    0.9686699569
     19  H         0.8574790314    3.6338692406    1.5517648407
     20  H         4.3571167762   -1.4107642030    0.7185530396
     21  H         3.8518730848    0.2927714890    0.4351618539
     22  H        -1.7496456025   -3.8901158269    0.3486114873
     23  H        -3.2961635008    0.1539233632    0.0024769741
     24  H         0.5781707299   -3.0198593775    0.0846057868
   Point Group: c1    Number of degrees of freedom:    66


   Energy is   -679.094220326

              Constraints and their Current Values
                                        Value     Constraint
   Dihedral:        2   1   3   5      150.348      150.000
   Dihedral:        1   2   4   7      -54.291      -55.000
 Hessian Updated using BFGS Update

   Using Lagrange Multiplier Algorithm


 60 Hessian modes will be used to form the next step
  Hessian Eigenvalues:
    -0.977863   -0.977732    0.044811    0.045000    0.045000    0.045000
     0.045001    0.045001    0.045003    0.045005    0.045012    0.045027
     0.045054    0.045157    0.045376    0.113785    0.113901    0.116869
     0.116916    0.158714    0.159961    0.159981    0.159993    0.160000
     0.161963    0.219994    0.224807    0.236548    0.244379    0.248733
     0.249287    0.249840    0.249973    0.251902    0.342486    0.342743
     0.342875    0.342916    0.343890    0.344135    0.346100    0.349087
     0.349850    0.349937    0.350378    0.374537    0.412825    0.413052
     0.414236    0.424460    0.449227    0.456795    0.465898    0.476584
     0.521748    0.536167    0.956613    0.993297    1.022721    1.022945

 Minimum Search - Taking P-RFO Step
 Searching for Lamda that Maximizes Along the Constraint modes Only
 Value Taken    Lamda =   0.00005563
 Searching for Lamda that Minimizes Along All other modes
 Value Taken    Lamda =  -0.00477589
 Step Taken.  Stepsize is  0.189139

                             Maximum     Tolerance    Cnvgd?
         Gradient            0.016423       0.000300      NO
         Displacement        0.077067       0.001200      NO
         Energy change     -0.025384       0.000001      NO


 New Cartesian Coordinates Obtained by Inverse Iteration

 Displacement from previous Coordinates is:  0.739986
 Adding empirical dispersion correction 
 ----------------------------------------------------------------
 Doing -D3(op) with
 s6 =   1.00000
 s8 =   0.78311
 a1 =   0.30000
 a2 =   4.25000
 n  =  10.00000
 -D3 energy without 3body term =     -0.0235324735 hartrees
 ----------------------------------------------------------------
             Standard Nuclear Orientation (Angstroms)
    I     Atom           X                Y                Z
 ----------------------------------------------------------------
    1      C      -0.0547686218    -0.9485973581    -0.0621070138
    2      C      -1.1546329557    -0.0505793462    -0.0349945615
    3      C       1.3591231028    -0.3921651861    -0.3022728344
    4      C      -0.9497502250     1.4748330431    -0.1649412743
    5      O       2.3124242913    -1.2182387768     0.3621133126
    6      O       1.6478589854     0.6291691003    -0.9747194065
    7      O      -0.0304480193     1.8982630130     0.8396534745
    8      O      -1.5509120080     2.2465225851    -0.9514035537
    9      C       0.1970444895     3.3516411287     0.7128031020
   10      C       3.6702558710    -0.6885171720     0.1249515335
   11      C      -0.2826527484    -2.3398230447     0.0588104286
   12      C      -1.5941345610    -2.8359670649     0.1901736282
   13      C      -2.6898413329    -1.9454378270     0.1863569230
   14      C      -2.4703247683    -0.5588422837     0.0687246947
   15      H       0.5956813925     3.6175896253    -0.2882557754
   16      H       3.9433888613    -0.7229054695    -0.9506900720
   17      H      -3.7148453200    -2.3319848019     0.2730185318
   18      H      -0.7354964125     3.9288526237     0.8866889238
   19      H       0.9419040865     3.6078960824     1.4893764471
   20      H       4.3528838074    -1.3411930682     0.7010601474
   21      H       3.7686956075     0.3588537020     0.4790055118
   22      H      -1.7634348154    -3.9177635763     0.2826803401
   23      H      -3.3176296631     0.1416155704     0.0595218125
   24      H       0.5754459069    -3.0264639773     0.0380732785
 ----------------------------------------------------------------
 Molecular Point Group                 C1    NOp =  1
 Largest Abelian Subgroup              C1    NOp =  1
 Nuclear Repulsion Energy =   872.1334980254 hartrees
 There are       51 alpha and       51 beta electrons
 Applying Cartesian multipole field
    Component          Value
    ---------          -----
     (2,0,0)        1.00000E-11
     (0,2,0)        2.00000E-11
     (0,0,2)       -3.00000E-10
 Nucleus-field energy     =     0.0000000053 hartrees
 Requested basis set is STO-3G
 There are 38 shells and 80 basis functions
 A cutoff of  1.0D-12 yielded    630 shell pairs
 There are      3150 function pairs
 Smallest overlap matrix eigenvalue = 1.81E-01
 Guess MOs from SCF MO coefficient file
 Reading MOs from coefficient file
 Reading MOs from coefficient file
 A restricted hybrid HF-DFT SCF calculation will be
 performed using Pulay DIIS extrapolation
 Exchange:     0.2000 Hartree-Fock + 0.0800 Slater + 0.7200 B88
 Correlation:  0.1900 VWN1RPA + 0.8100 LYP
 Using SG-1 standard quadrature grid
 Dispersion:   Grimme D3
 SCF converges when DIIS error is below 1.0E-08
 Geometry optimization detected.  Setting ReadMinima to 0
 Setting SaveMinima to 0
 -------------------------------------------------------
 OpenMP Integral computing Module                
 Release: version 1.0, May 2013, Q-Chem Inc. Pittsburgh 
 -------------------------------------------------------
 -------------------------------------------------------
 OpenMP BLAS3 based DFT computing Module                
 Release: version 1.0, May 2013, Q-Chem Inc. Pittsburgh 
 -------------------------------------------------------
 ---------------------------------------
  Cycle       Energy         DIIS Error
 ---------------------------------------
    1    -679.0495900527      4.72E-03
    2    -679.0954930117      1.00E-03
    3    -679.0925551464      2.09E-03
    4    -679.0964380801      2.73E-04
    5    -679.0965076977      8.80E-05
    6    -679.0965147340      2.97E-05
    7    -679.0965155392      1.29E-05
    8    -679.0965156884      5.85E-06
    9    -679.0965157185      1.71E-06
   10    -679.0965157217      2.76E-07
   11    -679.0965157218      7.04E-08
   12    -679.0965157218      2.84E-08
   13    -679.0965157218      1.25E-08
   14    -679.0965157218      2.24E-09 Convergence criterion met
 ---------------------------------------
 SCF time:  CPU 43.87 s  wall 1.85 s
 SCF   energy in the final basis set = -679.0965157218
 Total energy in the final basis set = -679.0965157218
 
 --------------------------------------------------------------
 
                    Orbital Energies (a.u.)
 --------------------------------------------------------------
 
 Alpha MOs
 -- Occupied --
-18.942 -18.936 -18.875 -18.873 -10.106 -10.103 -10.067 -10.062
-10.031 -10.030 -10.021 -10.021 -10.020 -10.019  -1.016  -1.009
 -0.938  -0.933  -0.816  -0.723  -0.716  -0.667  -0.659  -0.588
 -0.577  -0.523  -0.497  -0.464  -0.443  -0.421  -0.417  -0.413
 -0.406  -0.399  -0.376  -0.368  -0.357  -0.349  -0.332  -0.318
 -0.316  -0.303  -0.292  -0.261  -0.254  -0.203  -0.200  -0.183
 -0.173  -0.156  -0.151
 -- Virtual --
  0.043   0.065   0.116   0.131   0.236   0.251   0.274   0.317
  0.339   0.352   0.377   0.391   0.417   0.419   0.425   0.428
  0.433   0.435   0.439   0.443   0.450   0.536   0.545   0.567
  0.577   0.643   0.646   0.745   0.772
 --------------------------------------------------------------
 
          Ground-State Mulliken Net Atomic Charges

     Atom                 Charge (a.u.)
  ----------------------------------------
      1 C                    -0.014414
      2 C                    -0.011404
      3 C                     0.210643
      4 C                     0.213604
      5 O                    -0.165899
      6 O                    -0.209937
      7 O                    -0.165808
      8 O                    -0.207079
      9 C                    -0.126322
     10 C                    -0.126468
     11 C                    -0.071710
     12 C                    -0.074292
     13 C                    -0.072897
     14 C                    -0.071866
     15 H                     0.093576
     16 H                     0.089166
     17 H                     0.085352
     18 H                     0.088083
     19 H                     0.089542
     20 H                     0.091113
     21 H                     0.091286
     22 H                     0.084860
     23 H                     0.089012
     24 H                     0.091860
  ----------------------------------------
  Sum of atomic charges =     0.000000

 -----------------------------------------------------------------
                    Cartesian Multipole Moments
 -----------------------------------------------------------------
    Charge (ESU x 10^10)
                -0.0000
    Dipole Moment (Debye)
         X       0.8764      Y      -0.9462      Z       1.1435
       Tot       1.7237
    Quadrupole Moments (Debye-Ang)
        XX     -64.9062     XY       2.6470     YY     -67.5572
        XZ      -1.4661     YZ       4.3052     ZZ     -77.1324
    Octopole Moments (Debye-Ang^2)
       XXX      30.2343    XXY      -7.1743    XYY       5.8533
       YYY      23.2285    XXZ       4.6933    XYZ      -0.3010
       YYZ       8.8899    XZZ       9.5498    YZZ       7.0593
       ZZZ      -7.7360
    Hexadecapole Moments (Debye-Ang^3)
      XXXX   -1455.9610   XXXY     -60.1448   XXYY    -523.0553
      XYYY     -17.0371   YYYY   -1461.9973   XXXZ      -2.3863
      XXYZ       8.2678   XYYZ     -12.6983   YYYZ      18.7171
      XXZZ    -308.6281   XYZZ     -20.2326   YYZZ    -301.3581
      XZZZ      -1.4001   YZZZ      -2.6724   ZZZZ    -170.3923
 -----------------------------------------------------------------
 Calculating analytic gradient of the SCF energy
 Gradient of SCF Energy
            1           2           3           4           5           6
    1  -0.0019540   0.0020287   0.0049111   0.0079735  -0.0009061  -0.0002117
    2  -0.0004442  -0.0009164  -0.0048529   0.0009317   0.0019374   0.0034996
    3  -0.0007910   0.0038580   0.0018682   0.0030741   0.0002259  -0.0020414
            7           8           9          10          11          12
    1  -0.0019993  -0.0035129  -0.0019123  -0.0045324  -0.0001855   0.0005448
    2  -0.0002723   0.0028106  -0.0039334   0.0002017   0.0003800  -0.0003608
    3  -0.0004939  -0.0025772  -0.0015743  -0.0004655  -0.0002400   0.0000316
           13          14          15          16          17          18
    1  -0.0004354  -0.0002154   0.0001370   0.0003138  -0.0002436  -0.0005587
    2   0.0004655   0.0001322   0.0005231   0.0000409   0.0000815   0.0004127
    3   0.0000138  -0.0004459  -0.0005487  -0.0006095  -0.0000266   0.0001557
           19          20          21          22          23          24
    1   0.0003781  -0.0001455   0.0002215   0.0001292  -0.0001215   0.0002969
    2  -0.0006105  -0.0005625   0.0006188  -0.0002634   0.0004835  -0.0003028
    3   0.0004084   0.0004376   0.0001829   0.0000722  -0.0003578  -0.0001566
 Max gradient component =       7.973E-03
 RMS gradient           =       1.862E-03
 Gradient time:  CPU 9.77 s  wall 0.41 s
 Geometry Optimization Parameters
   NAtoms,    NIC,     NZ,  NCons,   NDum,   NFix, NCnnct, MaxDiis
       24     152       0       2       0       0       0       0

 Cartesian Hessian Update
 Hessian Updated using BFGS Update


** CONSTRAINED OPTIMIZATION IN DELOCALIZED INTERNAL COORDINATES **
   Searching for a Minimum

   Optimization Cycle:   3

                       Coordinates (Angstroms)
     ATOM                X               Y               Z
      1  C        -0.0547686218   -0.9485973581   -0.0621070138
      2  C        -1.1546329557   -0.0505793462   -0.0349945615
      3  C         1.3591231028   -0.3921651861   -0.3022728344
      4  C        -0.9497502250    1.4748330431   -0.1649412743
      5  O         2.3124242913   -1.2182387768    0.3621133126
      6  O         1.6478589854    0.6291691003   -0.9747194065
      7  O        -0.0304480193    1.8982630130    0.8396534745
      8  O        -1.5509120080    2.2465225851   -0.9514035537
      9  C         0.1970444895    3.3516411287    0.7128031020
     10  C         3.6702558710   -0.6885171720    0.1249515335
     11  C        -0.2826527484   -2.3398230447    0.0588104286
     12  C        -1.5941345610   -2.8359670649    0.1901736282
     13  C        -2.6898413329   -1.9454378270    0.1863569230
     14  C        -2.4703247683   -0.5588422837    0.0687246947
     15  H         0.5956813925    3.6175896253   -0.2882557754
     16  H         3.9433888613   -0.7229054695   -0.9506900720
     17  H        -3.7148453200   -2.3319848019    0.2730185318
     18  H        -0.7354964125    3.9288526237    0.8866889238
     19  H         0.9419040865    3.6078960824    1.4893764471
     20  H         4.3528838074   -1.3411930682    0.7010601474
     21  H         3.7686956075    0.3588537020    0.4790055118
     22  H        -1.7634348154   -3.9177635763    0.2826803401
     23  H        -3.3176296631    0.1416155704    0.0595218125
     24  H         0.5754459069   -3.0264639773    0.0380732785
   Point Group: c1    Number of degrees of freedom:    66


   Energy is   -679.096515722

              Constraints and their Current Values
                                        Value     Constraint
   Dihedral:        2   1   3   5      150.001      150.000
   Dihedral:        1   2   4   7      -54.998      -55.000
 Hessian Updated using BFGS Update

   Using Lagrange Multiplier Algorithm


 63 Hessian modes will be used to form the next step
  Hessian Eigenvalues:
    -0.977751   -0.974814    0.041214    0.045000    0.045000    0.045000
     0.045001    0.045001    0.045002    0.045005    0.045012    0.045013
     0.045027    0.045096    0.045251    0.046086    0.113088    0.113895
     0.116869    0.116916    0.158949    0.159971    0.159992    0.159993
     0.160000    0.161073    0.163294    0.219985    0.225179    0.237984
     0.244356    0.249025    0.249382    0.249865    0.249999    0.250518
     0.296844    0.342717    0.342873    0.342916    0.343342    0.343906
     0.344136    0.345923    0.349225    0.349844    0.350150    0.350523
     0.375551    0.400007    0.413055    0.413212    0.430535    0.448485
     0.456817    0.466141    0.474767    0.486816    0.536030    0.956682
     1.007696    1.022772    1.041829

 Minimum Search - Taking P-RFO Step
 Searching for Lamda that Maximizes Along the Constraint modes Only
 Value Taken    Lamda =   0.00001873
 Searching for Lamda that Minimizes Along All other modes
 Value Taken    Lamda =  -0.00056750
 Step Taken.  Stepsize is  0.065207

                             Maximum     Tolerance    Cnvgd?
         Gradient            0.007316       0.000300      NO
         Displacement        0.022900       0.001200      NO
         Energy change     -0.002295       0.000001      NO


 New Cartesian Coordinates Obtained by Inverse Iteration

 Displacement from previous Coordinates is:  0.172949
 Adding empirical dispersion correction 
 ----------------------------------------------------------------
 Doing -D3(op) with
 s6 =   1.00000
 s8 =   0.78311
 a1 =   0.30000
 a2 =   4.25000
 n  =  10.00000
 -D3 energy without 3body term =     -0.0235139974 hartrees
 ----------------------------------------------------------------
             Standard Nuclear Orientation (Angstroms)
    I     Atom           X                Y                Z
 ----------------------------------------------------------------
    1      C      -0.0609824809    -0.9392551491    -0.0679343001
    2      C      -1.1688072197    -0.0472659859    -0.0327724968
    3      C       1.3541941575    -0.3822941424    -0.2991520658
    4      C      -0.9732909474     1.4799495613    -0.1597401531
    5      O       2.3099061638    -1.2194105161     0.3621395282
    6      O       1.6532370681     0.6370753255    -0.9665999113
    7      O      -0.0474638909     1.9133427643     0.8445278956
    8      O      -1.5589362455     2.2470148921    -0.9582727290
    9      C       0.1991143070     3.3687049920     0.7111055224
   10      C       3.6806476525    -0.7059504853     0.1285603834
   11      C      -0.2804734358    -2.3319936045     0.0496767515
   12      C      -1.5878138735    -2.8375424383     0.1823917227
   13      C      -2.6884405840    -1.9553151232     0.1875929764
   14      C      -2.4794688050    -0.5668706469     0.0761131182
   15      H       0.6048669128     3.6188378265    -0.2900349995
   16      H       3.9510666743    -0.7390866208    -0.9467289222
   17      H      -3.7096481353    -2.3502128814     0.2782040079
   18      H      -0.7282582570     3.9556582683     0.8725918418
   19      H       0.9414583359     3.6260515426     1.4888383798
   20      H       4.3563970455    -1.3672793359     0.7015048339
   21      H       3.7889648088     0.3386334956     0.4847621871
   22      H      -1.7504169031    -3.9202983408     0.2718605174
   23      H      -3.3328508643     0.1254593423     0.0774564454
   24      H       0.5828334669    -3.0111952185     0.0275370649
 ----------------------------------------------------------------
 Molecular Point Group                 C1    NOp =  1
 Largest Abelian Subgroup              C1    NOp =  1
 Nuclear Repulsion Energy =   870.5814976046 hartrees
 There are       51 alpha and       51 beta electrons
 Applying Cartesian multipole field
    Component          Value
    ---------          -----
     (2,0,0)        1.00000E-11
     (0,2,0)        2.00000E-11
     (0,0,2)       -3.00000E-10
 Nucleus-field energy     =     0.0000000055 hartrees
 Requested basis set is STO-3G
 There are 38 shells and 80 basis functions
 A cutoff of  1.0D-12 yielded    629 shell pairs
 There are      3146 function pairs
 Smallest overlap matrix eigenvalue = 1.81E-01
 Guess MOs from SCF MO coefficient file
 Reading MOs from coefficient file
 Reading MOs from coefficient file
 A restricted hybrid HF-DFT SCF calculation will be
 performed using Pulay DIIS extrapolation
 Exchange:     0.2000 Hartree-Fock + 0.0800 Slater + 0.7200 B88
 Correlation:  0.1900 VWN1RPA + 0.8100 LYP
 Using SG-1 standard quadrature grid
 Dispersion:   Grimme D3
 SCF converges when DIIS error is below 1.0E-08
 Geometry optimization detected.  Setting ReadMinima to 0
 Setting SaveMinima to 0
 -------------------------------------------------------
 OpenMP Integral computing Module                
 Release: version 1.0, May 2013, Q-Chem Inc. Pittsburgh 
 -------------------------------------------------------
 -------------------------------------------------------
 OpenMP BLAS3 based DFT computing Module                
 Release: version 1.0, May 2013, Q-Chem Inc. Pittsburgh 
 -------------------------------------------------------
 ---------------------------------------
  Cycle       Energy         DIIS Error
 ---------------------------------------
    1    -679.0923633857      1.30E-03
    2    -679.0966714977      3.41E-04
    3    -679.0962356240      7.61E-04
    4    -679.0967830109      6.94E-05
    5    -679.0967872985      1.73E-05
    6    -679.0967875503      6.70E-06
    7    -679.0967875988      2.36E-06
    8    -679.0967876039      9.18E-07
    9    -679.0967876045      5.06E-07
   10    -679.0967876047      4.87E-08
   11    -679.0967876047      1.86E-08
   12    -679.0967876047      6.45E-09 Convergence criterion met
 ---------------------------------------
 SCF time:  CPU 38.14 s  wall 1.61 s
 SCF   energy in the final basis set = -679.0967876047
 Total energy in the final basis set = -679.0967876047
 
 --------------------------------------------------------------
 
                    Orbital Energies (a.u.)
 --------------------------------------------------------------
 
 Alpha MOs
 -- Occupied --
-18.938 -18.933 -18.876 -18.875 -10.106 -10.103 -10.067 -10.061
-10.032 -10.032 -10.021 -10.021 -10.021 -10.020  -1.013  -1.006
 -0.937  -0.933  -0.816  -0.724  -0.717  -0.666  -0.658  -0.588
 -0.578  -0.523  -0.496  -0.463  -0.443  -0.420  -0.417  -0.412
 -0.405  -0.399  -0.375  -0.368  -0.357  -0.349  -0.333  -0.319
 -0.317  -0.303  -0.292  -0.259  -0.253  -0.204  -0.200  -0.181
 -0.172  -0.156  -0.152
 -- Virtual --
  0.043   0.065   0.116   0.131   0.234   0.246   0.270   0.316
  0.337   0.351   0.376   0.390   0.417   0.420   0.426   0.429
  0.434   0.436   0.440   0.444   0.449   0.536   0.546   0.566
  0.577   0.644   0.647   0.744   0.772
 --------------------------------------------------------------
 
          Ground-State Mulliken Net Atomic Charges

     Atom                 Charge (a.u.)
  ----------------------------------------
      1 C                    -0.013828
      2 C                    -0.011050
      3 C                     0.210054
      4 C                     0.213114
      5 O                    -0.166264
      6 O                    -0.209438
      7 O                    -0.165769
      8 O                    -0.206206
      9 C                    -0.127814
     10 C                    -0.127937
     11 C                    -0.071496
     12 C                    -0.074317
     13 C                    -0.072785
     14 C                    -0.071868
     15 H                     0.093556
     16 H                     0.089071
     17 H                     0.085543
     18 H                     0.088072
     19 H                     0.090051
     20 H                     0.091470
     21 H                     0.091227
     22 H                     0.085073
     23 H                     0.089085
     24 H                     0.092454
  ----------------------------------------
  Sum of atomic charges =     0.000000

 -----------------------------------------------------------------
                    Cartesian Multipole Moments
 -----------------------------------------------------------------
    Charge (ESU x 10^10)
                -0.0000
    Dipole Moment (Debye)
         X       0.8389      Y      -0.9627      Z       1.1277
       Tot       1.7036
    Quadrupole Moments (Debye-Ang)
        XX     -64.8286     XY       2.6371     YY     -67.4690
        XZ      -1.4667     YZ       4.2974     ZZ     -77.1478
    Octopole Moments (Debye-Ang^2)
       XXX      31.0634    XXY      -7.5554    XYY       6.0811
       YYY      23.1741    XXZ       4.8730    XYZ      -0.2834
       YYZ       8.9436    XZZ       9.8637    YZZ       6.8413
       ZZZ      -7.8118
    Hexadecapole Moments (Debye-Ang^3)
      XXXX   -1460.0680   XXXY     -59.3322   XXYY    -524.7794
      XYYY     -15.1709   YYYY   -1467.1798   XXXZ      -2.7966
      XXYZ       7.9674   XYYZ     -12.5671   YYYZ      18.7320
      XXZZ    -309.7643   XYZZ     -19.4610   YYZZ    -302.8151
      XZZZ      -1.7811   YZZZ      -3.4297   ZZZZ    -170.2457
 -----------------------------------------------------------------
 Calculating analytic gradient of the SCF energy
 Gradient of SCF Energy
            1           2           3           4           5           6
    1  -0.0010415   0.0001930  -0.0000312   0.0010316  -0.0006221   0.0000676
    2  -0.0009469  -0.0004043  -0.0019068  -0.0010524   0.0010658   0.0010714
    3  -0.0019591   0.0029245   0.0001885  -0.0003193   0.0006576  -0.0008553
            7           8           9          10          11          12
    1  -0.0006662  -0.0007122   0.0007516   0.0012092  -0.0002920   0.0002313
    2   0.0000584   0.0008361   0.0007675  -0.0002886   0.0000294   0.0002323
    3   0.0001694  -0.0006993   0.0004851   0.0003325  -0.0001091  -0.0000738
           13          14          15          16          17          18
    1   0.0001063  -0.0002987  -0.0003179  -0.0000345  -0.0000088   0.0000538
    2   0.0003511  -0.0002849   0.0000437   0.0001832  -0.0000302  -0.0000310
    3  -0.0000041  -0.0002990   0.0000252   0.0000948  -0.0000175  -0.0001127
           19          20          21          22          23          24
    1   0.0001384   0.0001917  -0.0000700   0.0000015   0.0000534   0.0000656
    2   0.0001791   0.0000100  -0.0000208   0.0000066   0.0000932   0.0000382
    3  -0.0000124  -0.0000118  -0.0002011   0.0000665  -0.0002335  -0.0000359
 Max gradient component =       2.924E-03
 RMS gradient           =       6.515E-04
 Gradient time:  CPU 9.81 s  wall 0.41 s
 Geometry Optimization Parameters
   NAtoms,    NIC,     NZ,  NCons,   NDum,   NFix, NCnnct, MaxDiis
       24     152       0       2       0       0       0       0

 Cartesian Hessian Update
 Hessian Updated using BFGS Update


** CONSTRAINED OPTIMIZATION IN DELOCALIZED INTERNAL COORDINATES **
   Searching for a Minimum

   Optimization Cycle:   4

                       Coordinates (Angstroms)
     ATOM                X               Y               Z
      1  C        -0.0609824809   -0.9392551491   -0.0679343001
      2  C        -1.1688072197   -0.0472659859   -0.0327724968
      3  C         1.3541941575   -0.3822941424   -0.2991520658
      4  C        -0.9732909474    1.4799495613   -0.1597401531
      5  O         2.3099061638   -1.2194105161    0.3621395282
      6  O         1.6532370681    0.6370753255   -0.9665999113
      7  O        -0.0474638909    1.9133427643    0.8445278956
      8  O        -1.5589362455    2.2470148921   -0.9582727290
      9  C         0.1991143070    3.3687049920    0.7111055224
     10  C         3.6806476525   -0.7059504853    0.1285603834
     11  C        -0.2804734358   -2.3319936045    0.0496767515
     12  C        -1.5878138735   -2.8375424383    0.1823917227
     13  C        -2.6884405840   -1.9553151232    0.1875929764
     14  C        -2.4794688050   -0.5668706469    0.0761131182
     15  H         0.6048669128    3.6188378265   -0.2900349995
     16  H         3.9510666743   -0.7390866208   -0.9467289222
     17  H        -3.7096481353   -2.3502128814    0.2782040079
     18  H        -0.7282582570    3.9556582683    0.8725918418
     19  H         0.9414583359    3.6260515426    1.4888383798
     20  H         4.3563970455   -1.3672793359    0.7015048339
     21  H         3.7889648088    0.3386334956    0.4847621871
     22  H        -1.7504169031   -3.9202983408    0.2718605174
     23  H        -3.3328508643    0.1254593423    0.0774564454
     24  H         0.5828334669   -3.0111952185    0.0275370649
   Point Group: c1    Number of degrees of freedom:    66


   Energy is   -679.096787605

              Constraints and their Current Values
                                        Value     Constraint
   Dihedral:        2   1   3   5      150.000      150.000
   Dihedral:        1   2   4   7      -55.000      -55.000
 Hessian Updated using BFGS Update

   Using Lagrange Multiplier Algorithm


 64 Hessian modes will be used to form the next step
  Hessian Eigenvalues:
    -0.974043    0.037165    0.045000    0.045000    0.045000    0.045001
     0.045001    0.045002    0.045004    0.045007    0.045013    0.045013
     0.045054    0.045202    0.045620    0.046144    0.113884    0.114690
     0.116854    0.116915    0.158727    0.159972    0.159992    0.159999
     0.160000    0.160032    0.161037    0.163600    0.219916    0.224176
     0.229287    0.244335    0.248906    0.249167    0.249869    0.249986
     0.250000    0.250282    0.299550    0.342719    0.342872    0.342915
     0.343798    0.343919    0.344144    0.347291    0.349289    0.349854
     0.350188    0.351146    0.372388    0.412972    0.413134    0.416335
     0.447820    0.456414    0.463217    0.465260    0.474672    0.526748
     0.542338    0.956471    0.981332    1.032651

 Minimum Search - Taking P-RFO Step
 Searching for Lamda that Maximizes Along the Constraint modes Only
 Value Taken    Lamda =   0.00000044
 Searching for Lamda that Minimizes Along All other modes
 Value Taken    Lamda =  -0.00004652
 Step Taken.  Stepsize is  0.021388

                             Maximum     Tolerance    Cnvgd?
         Gradient            0.002163       0.000300      NO
         Displacement        0.009237       0.001200      NO
         Energy change     -0.000272       0.000001      NO


 New Cartesian Coordinates Obtained by Inverse Iteration

 Displacement from previous Coordinates is:  0.056046
 Adding empirical dispersion correction 
 ----------------------------------------------------------------
 Doing -D3(op) with
 s6 =   1.00000
 s8 =   0.78311
 a1 =   0.30000
 a2 =   4.25000
 n  =  10.00000
 -D3 energy without 3body term =     -0.0235106953 hartrees
 ----------------------------------------------------------------
             Standard Nuclear Orientation (Angstroms)
    I     Atom           X                Y                Z
 ----------------------------------------------------------------
    1      C      -0.0598205707    -0.9341043375    -0.0717157904
    2      C      -1.1695555839    -0.0440086721    -0.0356909131
    3      C       1.3559817733    -0.3795758021    -0.3001196633
    4      C      -0.9761103871     1.4827563321    -0.1601064851
    5      O       2.3068109842    -1.2218851111     0.3623866005
    6      O       1.6613528980     0.6388170041    -0.9647473144
    7      O      -0.0512487367     1.9142313166     0.8459094472
    8      O      -1.5590408472     2.2502783403    -0.9589228916
    9      C       0.1953841035     3.3687069928     0.7096714346
   10      C       3.6777765714    -0.7112566501     0.1288717391
   11      C      -0.2775363905    -2.3275561547     0.0464961463
   12      C      -1.5838746806    -2.8360697361     0.1808662493
   13      C      -2.6856909144    -1.9555900893     0.1896409171
   14      C      -2.4787894580    -0.5664132292     0.0784551277
   15      H       0.6078973649     3.6160244483    -0.2896028728
   16      H       3.9486088217    -0.7456973328    -0.9464152842
   17      H      -3.7060519340    -2.3518487363     0.2837532530
   18      H      -0.7323995726     3.9566534996     0.8657376405
   19      H       0.9335339071     3.6266852512     1.4909268423
   20      H       4.3506961907    -1.3751145961     0.7019335373
   21      H       3.7894532360     0.3325950874     0.4865485914
   22      H      -1.7444113196    -3.9191664453     0.2701679552
   23      H      -3.3337887270     0.1238256931     0.0854063947
   24      H       0.5866582220    -3.0055295514     0.0241769373
 ----------------------------------------------------------------
 Molecular Point Group                 C1    NOp =  1
 Largest Abelian Subgroup              C1    NOp =  1
 Nuclear Repulsion Energy =   870.6798563437 hartrees
 There are       51 alpha and       51 beta electrons
 Applying Cartesian multipole field
    Component          Value
    ---------          -----
     (2,0,0)        1.00000E-11
     (0,2,0)        2.00000E-11
     (0,0,2)       -3.00000E-10
 Nucleus-field energy     =     0.0000000055 hartrees
 Requested basis set is STO-3G
 There are 38 shells and 80 basis functions
 A cutoff of  1.0D-12 yielded    629 shell pairs
 There are      3146 function pairs
 Smallest overlap matrix eigenvalue = 1.81E-01
 Guess MOs from SCF MO coefficient file
 Reading MOs from coefficient file
 Reading MOs from coefficient file
 A restricted hybrid HF-DFT SCF calculation will be
 performed using Pulay DIIS extrapolation
 Exchange:     0.2000 Hartree-Fock + 0.0800 Slater + 0.7200 B88
 Correlation:  0.1900 VWN1RPA + 0.8100 LYP
 Using SG-1 standard quadrature grid
 Dispersion:   Grimme D3
 SCF converges when DIIS error is below 1.0E-08
 Geometry optimization detected.  Setting ReadMinima to 0
 Setting SaveMinima to 0
 -------------------------------------------------------
 OpenMP Integral computing Module                
 Release: version 1.0, May 2013, Q-Chem Inc. Pittsburgh 
 -------------------------------------------------------
 -------------------------------------------------------
 OpenMP BLAS3 based DFT computing Module                
 Release: version 1.0, May 2013, Q-Chem Inc. Pittsburgh 
 -------------------------------------------------------
 ---------------------------------------
  Cycle       Energy         DIIS Error
 ---------------------------------------
    1    -679.0975201152      3.62E-04
    2    -679.0968076901      3.73E-05
    3    -679.0968041448      7.34E-05
    4    -679.0968093680      1.42E-05
    5    -679.0968095300      5.61E-06
    6    -679.0968095584      1.89E-06
    7    -679.0968095621      4.59E-07
    8    -679.0968095623      2.50E-07
    9    -679.0968095623      1.07E-07
   10    -679.0968095623      1.29E-08
   11    -679.0968095623      4.58E-09 Convergence criterion met
 ---------------------------------------
 SCF time:  CPU 34.64 s  wall 1.47 s
 SCF   energy in the final basis set = -679.0968095623
 Total energy in the final basis set = -679.0968095623
 
 --------------------------------------------------------------
 
                    Orbital Energies (a.u.)
 --------------------------------------------------------------
 
 Alpha MOs
 -- Occupied --
-18.938 -18.933 -18.876 -18.875 -10.106 -10.103 -10.066 -10.061
-10.032 -10.032 -10.021 -10.021 -10.021 -10.020  -1.013  -1.007
 -0.938  -0.933  -0.816  -0.724  -0.717  -0.666  -0.658  -0.589
 -0.578  -0.523  -0.496  -0.463  -0.443  -0.420  -0.417  -0.412
 -0.405  -0.399  -0.375  -0.368  -0.357  -0.349  -0.333  -0.319
 -0.317  -0.303  -0.293  -0.260  -0.254  -0.204  -0.200  -0.181
 -0.173  -0.156  -0.152
 -- Virtual --
  0.042   0.065   0.116   0.131   0.234   0.247   0.271   0.316
  0.337   0.351   0.377   0.390   0.416   0.421   0.426   0.429
  0.434   0.436   0.440   0.444   0.449   0.536   0.546   0.566
  0.577   0.644   0.648   0.744   0.772
 --------------------------------------------------------------
 
          Ground-State Mulliken Net Atomic Charges

     Atom                 Charge (a.u.)
  ----------------------------------------
      1 C                    -0.013892
      2 C                    -0.011162
      3 C                     0.210245
      4 C                     0.213352
      5 O                    -0.166304
      6 O                    -0.209492
      7 O                    -0.165684
      8 O                    -0.206142
      9 C                    -0.127812
     10 C                    -0.127928
     11 C                    -0.071353
     12 C                    -0.074373
     13 C                    -0.072747
     14 C                    -0.071842
     15 H                     0.093504
     16 H                     0.088982
     17 H                     0.085542
     18 H                     0.088132
     19 H                     0.089962
     20 H                     0.091289
     21 H                     0.091178
     22 H                     0.085085
     23 H                     0.088966
     24 H                     0.092493
  ----------------------------------------
  Sum of atomic charges =     0.000000

 -----------------------------------------------------------------
                    Cartesian Multipole Moments
 -----------------------------------------------------------------
    Charge (ESU x 10^10)
                -0.0000
    Dipole Moment (Debye)
         X       0.8239      Y      -0.9665      Z       1.1264
       Tot       1.6975
    Quadrupole Moments (Debye-Ang)
        XX     -64.8877     XY       2.6073     YY     -67.4923
        XZ      -1.4771     YZ       4.2939     ZZ     -77.1442
    Octopole Moments (Debye-Ang^2)
       XXX      30.7246    XXY      -7.6780    XYY       6.0375
       YYY      22.8574    XXZ       4.9775    XYZ      -0.2746
       YYZ       8.9719    XZZ       9.8474    YZZ       6.7418
       ZZZ      -7.7275
    Hexadecapole Moments (Debye-Ang^3)
      XXXX   -1460.2466   XXXY     -58.1476   XXYY    -524.5552
      XYYY     -14.0126   YYYY   -1467.6238   XXXZ      -2.7439
      XXYZ       7.9588   XYYZ     -12.5703   YYYZ      18.7564
      XXZZ    -309.5462   XYZZ     -18.9828   YYZZ    -302.8601
      XZZZ      -1.4928   YZZZ      -3.3916   ZZZZ    -170.2233
 -----------------------------------------------------------------
 Calculating analytic gradient of the SCF energy
 Gradient of SCF Energy
            1           2           3           4           5           6
    1  -0.0002478   0.0001716   0.0003650   0.0003750  -0.0003795   0.0000303
    2  -0.0003121   0.0003240  -0.0009622  -0.0001261   0.0005407   0.0001458
    3  -0.0019813   0.0025179  -0.0004745  -0.0009006   0.0010013  -0.0002990
            7           8           9          10          11          12
    1  -0.0003481  -0.0000897   0.0002224   0.0004554  -0.0000230  -0.0000361
    2   0.0000450   0.0000427   0.0003384   0.0000694  -0.0000627  -0.0000064
    3   0.0006166   0.0000210   0.0000426   0.0000165  -0.0000639  -0.0000631
           13          14          15          16          17          18
    1  -0.0000088  -0.0002101  -0.0001132  -0.0000226   0.0000007  -0.0000146
    2   0.0000054  -0.0000299   0.0000027   0.0000167  -0.0000578   0.0000285
    3  -0.0000021  -0.0002223  -0.0000763  -0.0000307  -0.0000056   0.0000606
           19          20          21          22          23          24
    1   0.0000117  -0.0000889  -0.0000284  -0.0000391   0.0000239  -0.0000061
    2  -0.0000499   0.0000099   0.0000381  -0.0000098   0.0000001   0.0000095
    3  -0.0000878  -0.0000174  -0.0000156   0.0000583  -0.0000984   0.0000037
 Max gradient component =       2.518E-03
 RMS gradient           =       4.629E-04
 Gradient time:  CPU 9.84 s  wall 0.41 s
 Geometry Optimization Parameters
   NAtoms,    NIC,     NZ,  NCons,   NDum,   NFix, NCnnct, MaxDiis
       24     152       0       2       0       0       0       0

 Cartesian Hessian Update
 Hessian Updated using BFGS Update


** CONSTRAINED OPTIMIZATION IN DELOCALIZED INTERNAL COORDINATES **
   Searching for a Minimum

   Optimization Cycle:   5

                       Coordinates (Angstroms)
     ATOM                X               Y               Z
      1  C        -0.0598205707   -0.9341043375   -0.0717157904
      2  C        -1.1695555839   -0.0440086721   -0.0356909131
      3  C         1.3559817733   -0.3795758021   -0.3001196633
      4  C        -0.9761103871    1.4827563321   -0.1601064851
      5  O         2.3068109842   -1.2218851111    0.3623866005
      6  O         1.6613528980    0.6388170041   -0.9647473144
      7  O        -0.0512487367    1.9142313166    0.8459094472
      8  O        -1.5590408472    2.2502783403   -0.9589228916
      9  C         0.1953841035    3.3687069928    0.7096714346
     10  C         3.6777765714   -0.7112566501    0.1288717391
     11  C        -0.2775363905   -2.3275561547    0.0464961463
     12  C        -1.5838746806   -2.8360697361    0.1808662493
     13  C        -2.6856909144   -1.9555900893    0.1896409171
     14  C        -2.4787894580   -0.5664132292    0.0784551277
     15  H         0.6078973649    3.6160244483   -0.2896028728
     16  H         3.9486088217   -0.7456973328   -0.9464152842
     17  H        -3.7060519340   -2.3518487363    0.2837532530
     18  H        -0.7323995726    3.9566534996    0.8657376405
     19  H         0.9335339071    3.6266852512    1.4909268423
     20  H         4.3506961907   -1.3751145961    0.7019335373
     21  H         3.7894532360    0.3325950874    0.4865485914
     22  H        -1.7444113196   -3.9191664453    0.2701679552
     23  H        -3.3337887270    0.1238256931    0.0854063947
     24  H         0.5866582220   -3.0055295514    0.0241769373
   Point Group: c1    Number of degrees of freedom:    66


   Energy is   -679.096809562

              Constraints and their Current Values
                                        Value     Constraint
   Dihedral:        2   1   3   5      150.000      150.000
   Dihedral:        1   2   4   7      -55.000      -55.000
 Hessian Updated using BFGS Update

 62 Hessian modes will be used to form the next step
  Hessian Eigenvalues:
     0.026027    0.043325    0.045000    0.045000    0.045001    0.045001
     0.045001    0.045004    0.045005    0.045013    0.045013    0.045044
     0.045142    0.045233    0.046808    0.113888    0.114478    0.116849
     0.116920    0.158998    0.159447    0.159983    0.159996    0.159999
     0.160500    0.161835    0.163968    0.219745    0.222305    0.226639
     0.244194    0.246651    0.249151    0.249782    0.249974    0.250034
     0.269542    0.309098    0.342724    0.342871    0.342908    0.343536
     0.344126    0.345175    0.348503    0.349291    0.349912    0.350177
     0.352224    0.371383    0.412859    0.413102    0.426309    0.447881
     0.456105    0.458303    0.465694    0.486183    0.508670    0.536224
     0.956416    0.986669

 Minimum Search - Taking Simple RFO Step
 Searching for Lamda that Minimizes Along All modes
 Value Taken    Lamda =  -0.00001650
 Step Taken.  Stepsize is  0.022266

                             Maximum     Tolerance    Cnvgd?
         Gradient           0.000595      0.000300      NO
         Displacement       0.008862      0.001200      NO
         Energy change     -0.000022      0.000001      NO


 New Cartesian Coordinates Obtained by Inverse Iteration

 Displacement from previous Coordinates is:  0.056058
 Adding empirical dispersion correction 
 ----------------------------------------------------------------
 Doing -D3(op) with
 s6 =   1.00000
 s8 =   0.78311
 a1 =   0.30000
 a2 =   4.25000
 n  =  10.00000
 -D3 energy without 3body term =     -0.0235268130 hartrees
 ----------------------------------------------------------------
             Standard Nuclear Orientation (Angstroms)
    I     Atom           X                Y                Z
 ----------------------------------------------------------------
    1      C      -0.0612396298    -0.9312682940    -0.0764149774
    2      C      -1.1720402811    -0.0432270445    -0.0393218175
    3      C       1.3540031256    -0.3757675240    -0.3021057255
    4      C      -0.9780732121     1.4828242379    -0.1627937654
    5      O       2.3031623264    -1.2205769945     0.3603596611
    6      O       1.6614542029     0.6448958329    -0.9614757521
    7      O      -0.0527625764     1.9110400995     0.8438986703
    8      O      -1.5583158570     2.2516781315    -0.9618481492
    9      C       0.1982979219     3.3642616274     0.7078277857
   10      C       3.6743292224    -0.7103246964     0.1309918304
   11      C      -0.2766307944    -2.3250452500     0.0423072252
   12      C      -1.5818686912    -2.8356223331     0.1797545424
   13      C      -2.6847342378    -1.9564821232     0.1930919439
   14      C      -2.4798545424    -0.5669749549     0.0814353075
   15      H       0.6191794635     3.6095590765    -0.2884493420
   16      H       3.9477109296    -0.7424662898    -0.9437027805
   17      H      -3.7043827620    -2.3534369949     0.2915692040
   18      H      -0.7288519565     3.9548801792     0.8570468175
   19      H       0.9316373238     3.6212024193     1.4940801272
   20      H       4.3459645060    -1.3760064656     0.7036745398
   21      H       3.7864558203     0.3323191174     0.4919508393
   22      H      -1.7403332909    -3.9190081413     0.2689197335
   23      H      -3.3358332689     0.1220235212     0.0938612905
   24      H       0.5885612085    -3.0017196153     0.0189703898
 ----------------------------------------------------------------
 Molecular Point Group                 C1    NOp =  1
 Largest Abelian Subgroup              C1    NOp =  1
 Nuclear Repulsion Energy =   871.0273082736 hartrees
 There are       51 alpha and       51 beta electrons
 Applying Cartesian multipole field
    Component          Value
    ---------          -----
     (2,0,0)        1.00000E-11
     (0,2,0)        2.00000E-11
     (0,0,2)       -3.00000E-10
 Nucleus-field energy     =     0.0000000055 hartrees
 Requested basis set is STO-3G
 There are 38 shells and 80 basis functions
 A cutoff of  1.0D-12 yielded    629 shell pairs
 There are      3146 function pairs
 Smallest overlap matrix eigenvalue = 1.81E-01
 Guess MOs from SCF MO coefficient file
 Reading MOs from coefficient file
 Reading MOs from coefficient file
 A restricted hybrid HF-DFT SCF calculation will be
 performed using Pulay DIIS extrapolation
 Exchange:     0.2000 Hartree-Fock + 0.0800 Slater + 0.7200 B88
 Correlation:  0.1900 VWN1RPA + 0.8100 LYP
 Using SG-1 standard quadrature grid
 Dispersion:   Grimme D3
 SCF converges when DIIS error is below 1.0E-08
 Geometry optimization detected.  Setting ReadMinima to 0
 Setting SaveMinima to 0
 -------------------------------------------------------
 OpenMP Integral computing Module                
 Release: version 1.0, May 2013, Q-Chem Inc. Pittsburgh 
 -------------------------------------------------------
 -------------------------------------------------------
 OpenMP BLAS3 based DFT computing Module                
 Release: version 1.0, May 2013, Q-Chem Inc. Pittsburgh 
 -------------------------------------------------------
 ---------------------------------------
  Cycle       Energy         DIIS Error
 ---------------------------------------
    1    -679.0977756039      3.40E-04
    2    -679.0968186964      3.10E-05
    3    -679.0968170792      5.51E-05
    4    -679.0968200593      1.10E-05
    5    -679.0968201115      8.09E-06
    6    -679.0968201761      8.05E-07
    7    -679.0968201767      4.20E-07
    8    -679.0968201768      1.49E-07
    9    -679.0968201769      7.22E-08
   10    -679.0968201769      1.17E-08
   11    -679.0968201769      3.28E-09 Convergence criterion met
 ---------------------------------------
 SCF time:  CPU 36.22 s  wall 1.53 s
 SCF   energy in the final basis set = -679.0968201769
 Total energy in the final basis set = -679.0968201769
 
 --------------------------------------------------------------
 
                    Orbital Energies (a.u.)
 --------------------------------------------------------------
 
 Alpha MOs
 -- Occupied --
-18.938 -18.933 -18.877 -18.876 -10.106 -10.103 -10.066 -10.061
-10.032 -10.032 -10.021 -10.021 -10.021 -10.020  -1.014  -1.007
 -0.938  -0.933  -0.816  -0.724  -0.717  -0.666  -0.658  -0.589
 -0.578  -0.523  -0.496  -0.463  -0.443  -0.420  -0.417  -0.412
 -0.406  -0.399  -0.375  -0.368  -0.357  -0.349  -0.333  -0.319
 -0.317  -0.304  -0.293  -0.260  -0.254  -0.204  -0.200  -0.181
 -0.173  -0.156  -0.152
 -- Virtual --
  0.042   0.065   0.116   0.131   0.235   0.248   0.271   0.316
  0.337   0.351   0.377   0.390   0.416   0.421   0.427   0.429
  0.434   0.436   0.440   0.444   0.449   0.536   0.546   0.566
  0.577   0.645   0.648   0.744   0.772
 --------------------------------------------------------------
 
          Ground-State Mulliken Net Atomic Charges

     Atom                 Charge (a.u.)
  ----------------------------------------
      1 C                    -0.013929
      2 C                    -0.011219
      3 C                     0.210423
      4 C                     0.213535
      5 O                    -0.166435
      6 O                    -0.209527
      7 O                    -0.165756
      8 O                    -0.206103
      9 C                    -0.127777
     10 C                    -0.127896
     11 C                    -0.071246
     12 C                    -0.074399
     13 C                    -0.072693
     14 C                    -0.071839
     15 H                     0.093468
     16 H                     0.088898
     17 H                     0.085557
     18 H                     0.088186
     19 H                     0.089881
     20 H                     0.091193
     21 H                     0.091116
     22 H                     0.085101
     23 H                     0.088911
     24 H                     0.092550
  ----------------------------------------
  Sum of atomic charges =    -0.000000

 -----------------------------------------------------------------
                    Cartesian Multipole Moments
 -----------------------------------------------------------------
    Charge (ESU x 10^10)
                -0.0000
    Dipole Moment (Debye)
[...]
 C         -0.093 -0.001  0.007    0.022 -0.002  0.002   -0.007 -0.034 -0.043
 C         -0.010 -0.019  0.003    0.019 -0.082  0.008   -0.002 -0.001  0.000
 C         -0.008  0.007 -0.000   -0.132 -0.008  0.005    0.001  0.001 -0.000
 C          0.005  0.015 -0.002    0.011  0.131 -0.013    0.001  0.000 -0.000
 C          0.001 -0.016  0.002    0.063 -0.042  0.003   -0.001 -0.002  0.000
 H          0.016  0.083  0.030    0.059  0.256  0.098    0.046  0.055  0.046
 H          0.512 -0.072  0.115   -0.107  0.044 -0.023   -0.337  0.325 -0.091
 H          0.020 -0.023  0.001    0.215 -0.433  0.038   -0.000  0.004 -0.000
 H          0.052  0.068  0.001    0.177  0.233  0.041   -0.026 -0.032 -0.067
 H          0.013  0.088 -0.034    0.021  0.312 -0.106    0.097 -0.028 -0.059
 H          0.540  0.274 -0.251   -0.128 -0.073  0.052    0.023  0.400  0.586
 H          0.466 -0.125 -0.020   -0.103  0.042 -0.030    0.418 -0.198  0.155
 H          0.071 -0.007 -0.001    0.526 -0.139 -0.005    0.002  0.001  0.000
 H          0.043  0.029 -0.003    0.036 -0.095  0.009    0.007  0.007 -0.001
 H          0.059  0.060 -0.012    0.197  0.102 -0.020    0.006  0.008 -0.001
 TransDip   0.133  0.049 -0.018    0.032  0.087  0.013    0.019  0.055  0.067

 Mode:                49                     50                     51
 Frequency:      1485.61                1497.04                1497.64
 Force Cnst:      1.3599                 1.3817                 1.3845
 Red. Mass:       1.0458                 1.0464                 1.0476
 IR Active:          YES                    YES                    YES
 IR Intens:       11.211                 16.475                  3.628
 Raman Active:       YES                    YES                    YES
               X      Y      Z        X      Y      Z        X      Y      Z
 C          0.001 -0.004  0.000   -0.003  0.003 -0.000    0.001  0.004 -0.001
 C          0.003  0.003 -0.001    0.001 -0.005  0.000   -0.002 -0.003  0.000
 C         -0.002  0.001  0.000   -0.002  0.000 -0.001   -0.005  0.004 -0.003
 C          0.000  0.002  0.002   -0.002  0.003 -0.001    0.003  0.001  0.002
 O          0.001  0.001  0.002    0.002  0.008 -0.006    0.003  0.011 -0.008
 O          0.000  0.000 -0.000    0.001 -0.003  0.001    0.001 -0.006  0.004
 O         -0.010 -0.002  0.009   -0.009  0.003 -0.011    0.006 -0.003  0.008
 O         -0.000 -0.000 -0.001    0.004 -0.002  0.004   -0.003  0.001 -0.004
 C         -0.043  0.002  0.034   -0.025  0.015 -0.030    0.017 -0.013  0.023
 C          0.003  0.005  0.008    0.008  0.025 -0.019    0.012  0.033 -0.027
 C         -0.003  0.001  0.000    0.004  0.003 -0.000    0.003 -0.000 -0.000
 C          0.006  0.001 -0.000   -0.001 -0.003  0.000   -0.005 -0.002  0.000
 C          0.000 -0.004  0.000   -0.002  0.002 -0.000    0.000  0.004 -0.000
 C         -0.004 -0.000  0.000    0.003  0.003 -0.000    0.002 -0.000  0.000
 H          0.217  0.363  0.243    0.436 -0.252  0.235   -0.318  0.202 -0.166
 H          0.049 -0.041  0.013   -0.141 -0.375 -0.031   -0.205 -0.494 -0.046
 H         -0.007  0.018 -0.002    0.002 -0.012  0.001    0.007 -0.015  0.001
 H         -0.133 -0.169 -0.459   -0.166 -0.194  0.416    0.124  0.145 -0.320
 H          0.568 -0.201 -0.333    0.134  0.225 -0.164   -0.085 -0.166  0.111
 H         -0.020 -0.075 -0.091    0.131  0.088 -0.037    0.171  0.127 -0.029
 H         -0.077  0.040 -0.037   -0.100 -0.121  0.376   -0.128 -0.167  0.511
 H         -0.017  0.006 -0.000   -0.002 -0.003  0.000    0.012 -0.005  0.000
 H          0.004  0.009 -0.001   -0.012 -0.014  0.002   -0.002 -0.006  0.000
 H         -0.002  0.004 -0.000   -0.011 -0.015  0.001   -0.004 -0.009 -0.000
 TransDip   0.053 -0.037 -0.086    0.098 -0.023  0.083    0.021 -0.057 -0.002

 Mode:                52                     53                     54
 Frequency:      1515.89                1612.87                1636.69
 Force Cnst:      3.5841                 9.7163                 9.0449
 Red. Mass:       2.6473                 6.3395                 5.7309
 IR Active:          YES                    YES                    YES
 IR Intens:       12.973                 12.492                  6.455
 Raman Active:       YES                    YES                    YES
               X      Y      Z        X      Y      Z        X      Y      Z
 C          0.179 -0.051 -0.004    0.182 -0.238  0.019    0.097  0.188 -0.028
 C         -0.049  0.174 -0.012   -0.262  0.132 -0.008   -0.170 -0.149  0.014
 C         -0.058  0.017 -0.000   -0.047 -0.005  0.021    0.002  0.009 -0.013
 C         -0.015 -0.039 -0.029    0.006  0.003 -0.033    0.024  0.030  0.004
 O          0.003 -0.002  0.001   -0.005 -0.002 -0.000    0.001  0.003 -0.001
 O          0.005 -0.005  0.001    0.016  0.020 -0.017   -0.011 -0.022  0.015
 O          0.004  0.009  0.004    0.001  0.006  0.003   -0.001  0.001 -0.000
 O          0.009 -0.011  0.016    0.009 -0.020  0.023   -0.005 -0.002 -0.001
 C          0.005  0.015  0.001    0.000  0.002  0.002   -0.001 -0.003 -0.001
 C          0.015  0.004 -0.002    0.004  0.000 -0.001    0.002 -0.000  0.001
 C         -0.121 -0.119  0.017   -0.110  0.112 -0.008   -0.233 -0.237  0.034
 C         -0.015  0.090 -0.009    0.318 -0.159  0.006    0.200  0.097 -0.015
 C          0.089 -0.046  0.002   -0.204  0.289 -0.025   -0.068 -0.212  0.025
 C         -0.114 -0.116  0.013    0.133 -0.086  0.007    0.213  0.269 -0.032
 H          0.000 -0.091 -0.020   -0.011 -0.022 -0.009   -0.003  0.005  0.001
 H         -0.059 -0.039 -0.015    0.003 -0.008 -0.002   -0.014 -0.002 -0.002
 H         -0.021  0.326 -0.033    0.037 -0.466  0.047   -0.224  0.184 -0.020
 H         -0.050 -0.062  0.022   -0.006 -0.003 -0.000    0.008  0.011  0.003
 H         -0.009 -0.053  0.026   -0.006 -0.009  0.008   -0.005  0.006 -0.001
 H         -0.043 -0.033  0.008    0.003 -0.003 -0.002    0.001 -0.000  0.002
 H         -0.070  0.008  0.035   -0.007 -0.000  0.006   -0.005  0.001  0.003
 H          0.199  0.069 -0.013   -0.465 -0.025  0.019   -0.213  0.193 -0.018
 H          0.376  0.448 -0.043    0.070 -0.185  0.014   -0.321 -0.332  0.033
 H          0.356  0.436 -0.063   -0.185  0.052  0.007    0.261  0.342 -0.053
 TransDip  -0.107 -0.002 -0.042   -0.108 -0.033 -0.006   -0.056  0.059 -0.002

 Mode:                55                     56                     57
 Frequency:      1772.24                1783.43                3050.26
 Force Cnst:     21.8502                22.2854                 5.6435
 Red. Mass:      11.8076                11.8921                 1.0295
 IR Active:          YES                    YES                    YES
 IR Intens:      251.723                300.927                 25.736
 Raman Active:       YES                    YES                    YES
               X      Y      Z        X      Y      Z        X      Y      Z
 C         -0.049 -0.090  0.026    0.021  0.003 -0.004    0.000 -0.000  0.000
 C         -0.008  0.033 -0.006   -0.031  0.085 -0.022   -0.000 -0.000 -0.000
 C          0.247  0.635 -0.396   -0.019 -0.022  0.016   -0.001  0.002 -0.001
 C          0.028 -0.007  0.024    0.338 -0.500  0.509    0.001  0.000  0.001
 O         -0.003 -0.045  0.028    0.002  0.002 -0.001    0.002 -0.000  0.000
 O         -0.137 -0.404  0.260    0.006  0.016 -0.012   -0.000 -0.001  0.000
 O         -0.009 -0.002 -0.004   -0.031  0.017 -0.040   -0.001 -0.001 -0.000
 O         -0.011  0.007 -0.012   -0.223  0.303 -0.339   -0.000  0.000 -0.000
 C         -0.001 -0.001 -0.002   -0.002 -0.031  0.006   -0.004 -0.023  0.008
 C          0.029  0.013 -0.010   -0.002 -0.001  0.001    0.031  0.015 -0.013
 C         -0.015  0.019  0.001   -0.009 -0.010  0.003    0.000 -0.000  0.000
 C          0.025 -0.009 -0.001    0.012 -0.002 -0.000    0.000  0.000 -0.000
 C         -0.009  0.015 -0.001   -0.014  0.006  0.002    0.000 -0.000  0.000
 C          0.006 -0.015  0.001    0.017 -0.007  0.004    0.000 -0.000  0.000
 H          0.013 -0.025  0.003    0.052  0.101  0.088    0.198  0.048 -0.298
 H         -0.128  0.048 -0.059    0.006 -0.002  0.004   -0.093  0.013  0.533
 H          0.002 -0.019  0.004    0.001 -0.037  0.005    0.000 -0.000  0.000
 H          0.002 -0.004  0.021    0.105  0.086  0.078   -0.283  0.195 -0.004
 H         -0.003  0.012 -0.003    0.016  0.227 -0.056    0.135  0.043  0.204
 H         -0.210 -0.097  0.071    0.009  0.004 -0.004   -0.188  0.264 -0.173
 H         -0.127  0.076 -0.017    0.004 -0.003  0.000   -0.109 -0.458 -0.196
 H         -0.028 -0.000 -0.000   -0.011  0.002 -0.004   -0.000 -0.001  0.000
 H          0.035  0.018 -0.005   -0.003 -0.049 -0.014    0.000  0.000 -0.000
 H         -0.048 -0.004  0.004    0.004  0.006  0.003   -0.002  0.001 -0.000
 TransDip   0.125  0.427 -0.245    0.254 -0.293  0.398    0.128 -0.096 -0.028

 Mode:                58                     59                     60
 Frequency:      3050.51                3123.21                3126.04
 Force Cnst:      5.6442                 6.3624                 6.3747
 Red. Mass:       1.0295                 1.1071                 1.1072
 IR Active:          YES                    YES                    YES
 IR Intens:       43.768                 17.309                 14.481
 Raman Active:       YES                    YES                    YES
               X      Y      Z        X      Y      Z        X      Y      Z
 C          0.000 -0.000  0.000    0.000 -0.000 -0.000    0.000  0.000 -0.000
 C          0.000  0.000  0.000    0.000  0.000  0.000   -0.000  0.000  0.000
 C         -0.001  0.001 -0.001    0.000  0.000  0.000   -0.000 -0.000  0.000
 C         -0.002 -0.000 -0.002   -0.000 -0.000 -0.000    0.000  0.000 -0.000
 O          0.001 -0.000  0.000   -0.000  0.000  0.000   -0.000  0.000 -0.000
 O         -0.000 -0.000  0.000    0.000  0.000  0.000    0.000  0.000 -0.000
 O          0.001  0.002  0.001    0.000  0.000  0.000    0.000 -0.000 -0.000
 O          0.000 -0.000  0.001    0.000  0.000  0.000    0.000 -0.000 -0.000
 C          0.006  0.034 -0.012    0.001 -0.000 -0.000   -0.077  0.026  0.049
 C          0.021  0.010 -0.009   -0.004 -0.052 -0.079   -0.000 -0.000 -0.001
 C          0.000 -0.000  0.000   -0.000  0.000  0.000   -0.000 -0.000 -0.000
 C          0.000  0.000 -0.000    0.000 -0.000  0.000    0.000  0.000 -0.000
 C          0.000  0.000 -0.000   -0.000  0.000 -0.000   -0.000  0.000 -0.000
 C          0.000 -0.000 -0.000   -0.000 -0.000  0.000    0.000 -0.000 -0.000
 H         -0.295 -0.072  0.444   -0.004 -0.001  0.006    0.367  0.099 -0.582
 H         -0.062  0.008  0.358   -0.118 -0.002  0.682   -0.002  0.000  0.009
 H         -0.001 -0.000  0.000    0.000  0.000 -0.000    0.000  0.000  0.000
 H          0.421 -0.291  0.006   -0.007  0.005 -0.000    0.584 -0.405  0.026
 H         -0.201 -0.064 -0.303   -0.001 -0.000 -0.001   -0.033 -0.001 -0.019
 H         -0.126  0.177 -0.116    0.017 -0.035  0.001    0.001 -0.002  0.001
 H         -0.073 -0.307 -0.131    0.151  0.650  0.256    0.002  0.007  0.003
 H         -0.000 -0.001  0.000    0.000  0.000 -0.000   -0.000 -0.000  0.000
 H         -0.001  0.000  0.000   -0.000  0.000 -0.000   -0.000  0.000  0.000
 H         -0.001  0.000 -0.000    0.000 -0.000 -0.000    0.000 -0.000 -0.000
 TransDip   0.149  0.150  0.011   -0.008 -0.070 -0.113   -0.090  0.047  0.067

 Mode:                61                     62                     63
 Frequency:      3157.75                3157.77                3172.99
 Force Cnst:      6.4993                 6.4993                 6.4464
 Red. Mass:       1.1063                 1.1063                 1.0867
 IR Active:          YES                    YES                    YES
 IR Intens:       13.779                 12.988                  1.598
 Raman Active:       YES                    YES                    YES
               X      Y      Z        X      Y      Z        X      Y      Z
 C          0.000  0.000 -0.000    0.000 -0.000 -0.000    0.000  0.000 -0.000
 C         -0.000 -0.000 -0.000    0.000 -0.000  0.000   -0.000 -0.000  0.000
 C         -0.001 -0.001  0.000   -0.000  0.000 -0.000   -0.000 -0.000  0.000
 C         -0.000 -0.000 -0.000   -0.000  0.001 -0.000    0.000 -0.000  0.000
 O         -0.000  0.000 -0.000    0.000 -0.000  0.000    0.000  0.000 -0.000
 O          0.000  0.000 -0.000    0.000  0.000  0.000    0.000  0.000 -0.000
 O          0.000 -0.000 -0.000    0.000 -0.000  0.000   -0.000 -0.000 -0.000
 O          0.000 -0.000 -0.000    0.000 -0.000  0.000   -0.000  0.000 -0.000
 C          0.001 -0.000  0.001   -0.049  0.005 -0.081    0.000  0.000  0.000
 C          0.029 -0.076  0.048    0.000 -0.001  0.001   -0.000  0.000 -0.000
 C          0.000 -0.000  0.000    0.000 -0.000  0.000    0.008 -0.008  0.000
 C          0.000  0.000 -0.000    0.000  0.000 -0.000    0.012  0.055 -0.006
 C         -0.000 -0.000  0.000   -0.000 -0.000  0.000   -0.055 -0.020  0.003
 C          0.000 -0.000  0.000    0.000 -0.000  0.000    0.017 -0.013  0.001
 H          0.003  0.001 -0.005   -0.171 -0.036  0.230    0.000 -0.000 -0.000
 H          0.053 -0.021 -0.282    0.001 -0.000 -0.003   -0.000  0.000  0.001
 H          0.001  0.000 -0.000    0.002  0.001 -0.000    0.651  0.220 -0.038
 H         -0.003  0.002  0.000    0.266 -0.185 -0.010   -0.001  0.000  0.000
 H         -0.008 -0.002 -0.011    0.487  0.154  0.735   -0.001 -0.000 -0.002
 H         -0.458  0.645 -0.423   -0.007  0.010 -0.006    0.002 -0.003  0.002
 H          0.072  0.282  0.135    0.002  0.006  0.003   -0.000 -0.001 -0.000
 H         -0.001 -0.004  0.000   -0.000 -0.000  0.000   -0.123 -0.642  0.069
 H         -0.001  0.000 -0.000   -0.001  0.001 -0.000   -0.194  0.167 -0.013
 H         -0.003  0.003 -0.000   -0.001  0.000 -0.000   -0.108  0.094 -0.004
 TransDip   0.062 -0.085  0.055   -0.065 -0.020 -0.093   -0.030  0.027 -0.005

 Mode:                64                     65                     66
 Frequency:      3186.70                3198.22                3211.43
 Force Cnst:      6.5300                 6.5996                 6.6442
 Red. Mass:       1.0914                 1.0951                 1.0934
 IR Active:          YES                    YES                    YES
 IR Intens:        8.561                  7.582                  3.490
 Raman Active:       YES                    YES                    YES
               X      Y      Z        X      Y      Z        X      Y      Z
 C         -0.000  0.000  0.000    0.000 -0.001  0.000   -0.001 -0.003  0.000
 C         -0.001 -0.001  0.000    0.003  0.001 -0.000    0.000 -0.001  0.000
 C         -0.000  0.000 -0.000    0.000  0.000 -0.000   -0.001  0.001 -0.000
 C          0.000 -0.000  0.000   -0.000  0.001 -0.000    0.000 -0.000  0.000
 O         -0.000 -0.000  0.000   -0.000 -0.000  0.000   -0.000 -0.000  0.000
 O          0.000 -0.000  0.000   -0.000 -0.000  0.000    0.000 -0.000 -0.000
 O         -0.000  0.000 -0.000   -0.000 -0.000 -0.000    0.000  0.000  0.000
 O         -0.000  0.000 -0.000    0.000 -0.000  0.000   -0.000  0.000 -0.000
 C          0.000  0.000  0.000   -0.000  0.000 -0.000   -0.000 -0.000 -0.000
 C          0.000 -0.000  0.000    0.000 -0.000  0.000    0.000 -0.000  0.000
 C         -0.011  0.013 -0.001   -0.011  0.010 -0.000   -0.064  0.054 -0.002
 C         -0.009 -0.058  0.006   -0.001 -0.017  0.002    0.007  0.025 -0.003
 C         -0.042 -0.011  0.002   -0.043 -0.017  0.003    0.009  0.002 -0.000
 C          0.034 -0.027  0.002   -0.053  0.049 -0.004    0.005 -0.005  0.000
 H          0.000  0.000 -0.000   -0.000 -0.000  0.000    0.000  0.000  0.000
 H         -0.000 -0.000 -0.000   -0.000 -0.000  0.000    0.000 -0.000 -0.000
 H          0.470  0.153 -0.027    0.484  0.165 -0.028   -0.092 -0.029  0.005
 H         -0.000  0.000  0.000    0.001 -0.001 -0.000   -0.000  0.000 -0.000
 H         -0.001 -0.000 -0.001    0.000 -0.000  0.000    0.000  0.000  0.001
 H         -0.001  0.002 -0.001   -0.001  0.001 -0.001   -0.002  0.002 -0.002
 H         -0.000 -0.000 -0.000   -0.000 -0.000 -0.000   -0.000 -0.000 -0.000
 H          0.122  0.655 -0.070    0.031  0.179 -0.019   -0.054 -0.269  0.029
 H         -0.383  0.331 -0.026    0.613 -0.538  0.042   -0.058  0.051 -0.004
 H          0.156 -0.137  0.006    0.131 -0.113  0.005    0.722 -0.615  0.028
 TransDip  -0.044 -0.082  0.009   -0.086 -0.020  0.007    0.010  0.059 -0.003

 STANDARD THERMODYNAMIC QUANTITIES AT   298.15 K  AND     1.00 ATM

   This Molecule has  0 Imaginary Frequencies
   Zero point vibrational energy:      116.220 kcal/mol

   Atom    1 Element C  Has Mass   12.00000
   Atom    2 Element C  Has Mass   12.00000
   Atom    3 Element C  Has Mass   12.00000
   Atom    4 Element C  Has Mass   12.00000
   Atom    5 Element O  Has Mass   15.99491
   Atom    6 Element O  Has Mass   15.99491
   Atom    7 Element O  Has Mass   15.99491
   Atom    8 Element O  Has Mass   15.99491
   Atom    9 Element C  Has Mass   12.00000
   Atom   10 Element C  Has Mass   12.00000
   Atom   11 Element C  Has Mass   12.00000
   Atom   12 Element C  Has Mass   12.00000
   Atom   13 Element C  Has Mass   12.00000
   Atom   14 Element C  Has Mass   12.00000
   Atom   15 Element H  Has Mass    1.00783
   Atom   16 Element H  Has Mass    1.00783
   Atom   17 Element H  Has Mass    1.00783
   Atom   18 Element H  Has Mass    1.00783
   Atom   19 Element H  Has Mass    1.00783
   Atom   20 Element H  Has Mass    1.00783
   Atom   21 Element H  Has Mass    1.00783
   Atom   22 Element H  Has Mass    1.00783
   Atom   23 Element H  Has Mass    1.00783
   Atom   24 Element H  Has Mass    1.00783
   Molecular Mass:   194.057940 amu
   Principal axes and moments of inertia in amu*Bohr^2:
                             1           2           3
    Eigenvalues --     2397.76819  2463.75062  4479.07888
          X               0.96230     0.27200    -0.00050
          Y              -0.27199     0.96225     0.00987
          Z               0.00316    -0.00937     0.99995
   Rotational Symmetry Number is   1
   The Molecule is an Asymmetric Top
   Translational Enthalpy:        0.889 kcal/mol
   Rotational Enthalpy:           0.889 kcal/mol
   Vibrational Enthalpy:        122.845 kcal/mol
   gas constant (RT):             0.592 kcal/mol
   Translational Entropy:        41.694  cal/mol.K
   Rotational Entropy:           31.648  cal/mol.K
   Vibrational Entropy:          43.121  cal/mol.K

   Total Enthalpy:              125.215 kcal/mol
   Total Entropy:               116.463  cal/mol.K
Archival summary:
1\1\nid04368\FREQ\ProcedureUnspecified\BasisUnspecified\41010\junteng\WedOct419:28:252017WedOct419:28:252017\0\\#,FREQ,ProcedureUnspecified,BasisUnspecified,\\0,1\O\C,1,1.34413\O,2,1.20634,1,124.516\C,1,1.43904,2,115.884,3,-9.75952,0\H,4,1.08764,1,105.424,2,177.076,0\H,4,1.09062,1,110.662,2,57.2124,0\H,4,1.09129,1,109.569,2,-63.8582,0\C,2,1.49906,1,111.283,3,-176.227,0\C,8,1.39516,2,117.354,1,124.554,0\H,9,1.08333,8,118.97,2,1.81572,0\C,9,1.39288,8,120.616,2,-177.822,0\H,11,1.08403,9,119.8,8,179.663,0\C,11,1.39285,9,119.935,8,-0.332027,0\H,13,1.08392,11,120.3,9,-179.821,0\C,13,1.39181,11,119.836,9,-0.553959,0\H,15,1.08199,13,120.31,11,-178.503,0\C,15,1.39943,13,120.673,11,0.372164,0\C,17,1.49343,15,119.87,13,-173.456,0\O,18,1.20841,17,124.8,15,149.487,0\O,18,1.34983,17,111.848,15,-28.3297,0\C,20,1.43919,18,115.881,17,176.334,0\H,21,1.08769,20,105.377,18,179.948,0\H,21,1.09078,20,110.416,18,60.4064,0\H,21,1.09115,20,110.393,18,-60.4812,0\\\@

 Total job time:  4094.72s(wall), 20269.37s(cpu) 
 Wed Oct  4 19:28:25 2017

        *************************************************************
        *                                                           *
        *  Thank you very much for using Q-Chem.  Have a nice day.  *
        *                                                           *
        *************************************************************


