nid03056 10.128.12
Q-Chem Developer Version! Running on 10.128.12.*
                  Welcome to Q-Chem
     A Quantum Leap Into The Future Of Chemistry


 Q-Chem 5.0, Q-Chem, Inc., Pleasanton, CA (2017)

 Yihan Shao,  Zhengting Gan,  E. Epifanovsky,  A. T. B. Gilbert,  M. Wormit,  
 J. Kussmann,  A. W. Lange,  A. Behn,  Jia Deng,  Xintian Feng,  D. Ghosh,  
 M. Goldey,  P. R. Horn,  L. D. Jacobson,  I. Kaliman,  T. Kus,  A. Landau,  
 Jie Liu,  E. I. Proynov,  R. M. Richard,  R. P. Steele,  E. J. Sundstrom,  
 H. L. Woodcock III,  P. M. Zimmerman,  D. Zuev,  B. Albrecht,  E. Alguire,  
 S. A. Baeppler,  Z. Benda,  Y. A. Bernard,  E. J. Berquist,  K. B. Bravaya,  
 D. Casanova,  Chun-Min Chang,  Yunqing Chen,  A. Chien,  K. D. Closser,  
 M. P. Coons,  S. Dasgupta,  M. Diedenhofen,  Hainam Do,  R. G. Edgar,  
 Po-Tung Fang,  S. Fatehi,  Qingguo Feng,  Qinghui Ge,  A. Ghysels,  
 J. Gomes,  J. Gonthier,  A. Gunina,  M. W. D. Hanson-Heine,  
 P. H. P. Harbach,  A. W. Hauser,  J. E. Herr,  E. G. Hohenstein,  
 Z. C. Holden,  Kerwin Hui,  T.-C. Jagau,  Hyunjun Ji,  B. Kaduk,  
 K. Khistyaev,  Jaehoon Kim,  P. Klunzinger,  K. Koh,  D. Kosenkov,  
 T. Kowalczyk,  C. M. Krauter,  A. Kunitsa,  Ka Un Lao,  A. Laurent,  
 K. V. Lawler,  Joonho Lee,  D. Lefrancois,  S. Lehtola,  D. S. Levine,  
 Yi-Pei Li,  You-Sheng Lin,  Fenglai Liu,  E. Livshits,  A. Luenser,  
 P. Manohar,  E. Mansoor,  S. F. Manzer,  Shan-Ping Mao,  Yuezhi Mao,  
 N. Mardirossian,  A. V. Marenich,  L. A. Martinez-Martinez,  S. A. Maurer,  
 N. J. Mayhall,  S. C. McKenzie,  J.-M. Mewes,  A. F. Morrison,  K. Nanda,  
 T. S. Nguyen-Beck,  R. Olivares-Amaya,  J. A. Parkhill,  T. M. Perrine,  
 F. Plasser,  S. Prager,  A. Prociuk,  D. R. Rehn,  F. Rob,  M. Schneider,  
 N. Sergueev,  S. M. Sharada,  S. Sharma,  D. W. Small,  T. Stauch,  
 T. Stein,  Yu-Chuan Su,  A. J. W. Thom,  T. Tsuchimochi,  L. Vogt,  
 O. Vydrov,  M. A. Watson,  J. Wenzel,  M. de Wergifosse,  T. A. Wesolowski,  
 A. White,  J. Witte,  A. Yamada,  Jun Yang,  K. Yao,  S. Yeganeh,  
 S. R. Yost,  Zhi-Qiang You,  A. Zech,  Igor Ying Zhang,  Xing Zhang,  
 Yan Zhao,  Ying Zhu,  B. R. Brooks,  G. K. L. Chan,  C. J. Cramer,  
 M. S. Gordon,  W. J. Hehre,  A. Klamt,  M. W. Schmidt,  C. D. Sherrill,  
 D. G. Truhlar,  A. Aspuru-Guzik,  R. Baer,  A. T. Bell,  N. A. Besley,  
 Jeng-Da Chai,  A. Dreuw,  B. D. Dunietz,  T. R. Furlani,  Chao-Ping Hsu,  
 Yousung Jung,  Jing Kong,  D. S. Lambrecht,  WanZhen Liang,  C. Ochsenfeld,  
 V. A. Rassolov,  L. V. Slipchenko,  J. E. Subotnik,  T. Van Voorhis,  
 J. M. Herbert,  A. I. Krylov,  P. M. W. Gill,  M. Head-Gordon

 Contributors to earlier versions of Q-Chem not listed above: 
 R. D. Adamson,  B. Austin,  J. Baker,  G. J. O. Beran,  K. Brandhorst,  
 S. T. Brown,  E. F. C. Byrd,  A. K. Chakraborty,  C.-L. Cheng,  
 Siu Hung Chien,  D. M. Chipman,  D. L. Crittenden,  H. Dachsel,  
 R. A. DiStasio Jr.,  R. J. Doerksen,  A. D. Dutoi,  L. Fusti-Molnar,  
 W. A. Goddard III,  A. Golubeva-Zadorozhnaya,  S. R. Gwaltney,  G. Hawkins,  
 A. Heyden,  S. Hirata,  G. Kedziora,  F. J. Keil,  C. Kelley,  Jihan Kim,  
 R. A. King,  R. Z. Khaliullin,  P. P. Korambath,  W. Kurlancheek,  
 A. M. Lee,  M. S. Lee,  S. V. Levchenko,  Ching Yeh Lin,  D. Liotard,  
 R. C. Lochan,  I. Lotan,  P. E. Maslen,  N. Nair,  D. P. O'Neill,  
 D. Neuhauser,  E. Neuscamman,  C. M. Oana,  R. Olson,  B. Peters,  
 R. Peverati,  P. A. Pieniazek,  Y. M. Rhee,  J. Ritchie,  M. A. Rohrdanz,  
 E. Rosta,  N. J. Russ,  H. F. Schaefer III,  N. E. Schultz,  N. Shenvi,  
 A. C. Simmonett,  A. Sodt,  D. Stuck,  K. S. Thanthiriwatte,  V. Vanovschi,  
 Tao Wang,  A. Warshel,  C. F. Williams,  Q. Wu,  X. Xu,  W. Zhang

 Please cite Q-Chem as follows:
 Y. Shao et al., Mol. Phys. 113, 184-215 (2015)
 DOI: 10.1080/00268976.2014.952696

 Q-Chem 5.0.0 for Intel X86 EM64T Linux

 Parts of Q-Chem use Armadillo 5.200.1 (Boston Tea Smuggler).
 http://arma.sourceforge.net/

 Q-Chem begins on Wed Oct  4 18:26:26 2017  

Host: nid03056
0

     Scratch files written to /global/cscratch1/sd/junteng/scratch/18/opt_11n11-o.save//

Checking the input file for inconsistencies... 	...done.

--------------------------------------------------------------
User input:
--------------------------------------------------------------
$molecule
0  1
C    0.304  -2.425   0.241
C   -0.187  -2.670   1.539
C    0.664  -1.037  -0.131
C   -0.223  -1.586   2.547
O    1.892  -1.027  -0.706
O   -0.050  -0.071   0.073
O    1.036  -1.102   2.698
O   -1.208  -1.281   3.197
C    1.131  -0.051   3.659
C    2.346   0.277  -1.069
C    0.337  -3.468  -0.713
C   -0.078  -4.750  -0.324
C   -0.556  -4.992   0.965
C   -0.619  -3.961   1.912
H    0.496   0.792   3.371
H    1.683   0.717  -1.820
H   -0.885  -5.997   1.223
H    0.862  -0.417   4.655
H    2.169   0.291   3.685
H    3.345   0.180  -1.503
H    2.413   0.921  -0.186
H   -0.050  -5.576  -1.034
C   -1.153  -4.262   3.286
C    0.800  -3.263  -2.130
H    0.377  -2.346  -2.553
H    0.472  -4.085  -2.776
H    1.893  -3.221  -2.170
H   -2.134  -3.796   3.422
H   -0.464  -3.904   4.057
H   -1.273  -5.340   3.441
$end


$opt
CONSTRAINT
tors    2    1    3    5    130.2
tors    1    2    4    7    -57.3
ENDCONSTRAINT
$end

$rem
JOBTYPE                   OPT
METHOD                    B3LYP
DFT_D                     D3_OP
BASIS                     STO-3G
GEOM_OPT_MAX_CYCLES       500
SYMMETRY                  False
THRESH                    12
SCF_CONVERGENCE           8
MAX_SUB_FILE_NUM          128
MEM_STATIC                400
MEM_TOTAL                 4000
$end

--------------------------------------------------------------
 Adding empirical dispersion correction 
 ----------------------------------------------------------------
 Doing -D3(op) with
 s6 =   1.00000
 s8 =   0.78311
 a1 =   0.30000
 a2 =   4.25000
 n  =  10.00000
 -D3 energy without 3body term =     -0.0331083887 hartrees
 ----------------------------------------------------------------
             Standard Nuclear Orientation (Angstroms)
    I     Atom           X                Y                Z
 ----------------------------------------------------------------
    1      C       0.4125011125    -0.6355076896    -0.1241194854
    2      C      -0.9199718424    -0.1775825584    -0.0970935988
    3      C       1.4909203662     0.3367582974    -0.4177838583
    4      C      -1.2227722681     1.2652754643    -0.2345295060
    5      O       2.4794071129     0.2069212582     0.5013164054
    6      O       1.4599007613     1.1281261782    -1.3437118584
    7      O      -0.5671603921     1.9341318938     0.7477851812
    8      O      -2.0192894914     1.7300109239    -1.0316062059
    9      C      -0.7911410252     3.3435492204     0.7249274575
   10      C       3.5538033154     1.1302705963     0.3241165186
   11      C       0.6908325096    -2.0150972909     0.0112251320
   12      C      -0.3765806243    -2.9000235158     0.2224235647
   13      C      -1.6950140119    -2.4427633611     0.2572883515
   14      C      -1.9865449822    -1.0814074782     0.0977300441
   15      H      -0.4624112412     3.7697958433    -0.2274740049
   16      H       4.0453282984     0.9641147078    -0.6391930950
   17      H      -2.4970302573    -3.1634910569     0.4061222542
   18      H      -1.8474376543     3.5666794906     0.9059890877
   19      H      -0.2002982988     3.7931790170     1.5273126011
   20      H       4.2838919982     0.9582831261     1.1198280401
   21      H       3.1925407862     2.1609409489     0.4023597877
   22      H      -0.1906002296    -3.9666582263     0.3443320837
   23      C      -3.4222635693    -0.6326602424     0.1288918324
   24      C       2.0849910947    -2.5767940219    -0.0602005081
   25      H       2.6449814024    -2.1343937269    -0.8905256458
   26      H       2.0671057384    -3.6580417916    -0.2367433488
   27      H       2.6144009167    -2.3996751371     0.8812702249
   28      H      -3.7454857248    -0.3261374563    -0.8709002559
   29      H      -3.5543120453     0.1968300833     0.8302013215
   30      H      -4.0860980650    -1.4390523749     0.4598971058
 ----------------------------------------------------------------
 Molecular Point Group                 C1    NOp =  1
 Largest Abelian Subgroup              C1    NOp =  1
 Nuclear Repulsion Energy =  1141.1730988225 hartrees
 There are       59 alpha and       59 beta electrons
 Requested basis set is STO-3G
 There are 46 shells and 94 basis functions

 Total QAlloc Memory Limit   4000 MB
 Mega-Array Size       392 MB
 MEM_STATIC part       400 MB
 A cutoff of  1.0D-12 yielded    921 shell pairs
 There are      4311 function pairs
 
 -------------------------------------------------------
 OpenMP Integral Computing Module                       
 Release: version 1.0, May 2013, Q-Chem Inc. Pittsburgh 
 -------------------------------------------------------
 Integral Job Info:
 Integral job number is                      11
 Integral operator is                         1
 short-range coefficients                     0
 long-range coefficients              100000000
 Omega coefficients                           0
 if combine SR and LR in K                    0
 Integral screening is                        0
 Integral computing path is                   2
 max size of driver memory is            800000
 size of driver memory is                 45569
 size of scratch memory is               945100
 max col of scratch BK array                289
 max len of scratch array in speh3           22
 max len of scratch index in speh4            8
 max int batch size is                      520
 min int batch size is                       52
 fixed nKL is                                52
 max L of basis functions is                  1
 order of int derivative is                   0
 number of shells is                         46
 number of basis is                          94
 number of cartesian basis is                94
 number of contracted shell pairs           921
 number of primitive shell pairs           4930
 maxK2 (contraction) of shell pair            9
 max number of K2 of shell pair               1
 max number of CS2 of shell pair            151
 max number of PS2 of shell pair            660
 mem total for path MDJ                   29642
 -------------------------------------------------------
 Smallest overlap matrix eigenvalue = 1.76E-01

 Scale SEOQF with 1.000000e-01/1.000000e-01/1.000000e+00

 Standard Electronic Orientation quadrupole field applied
 Nucleus-field energy     =    -0.0000000013 hartrees
 Guess from superposition of atomic densities
 Warning:  Energy on first SCF cycle will be non-variational
 A restricted hybrid HF-DFT SCF calculation will be
 performed using Pulay DIIS extrapolation
 Exchange:     0.2000 Hartree-Fock + 0.0800 Slater + 0.7200 B88
 Correlation:  0.1900 VWN1RPA + 0.8100 LYP
 Using SG-1 standard quadrature grid
 Dispersion:   Grimme D3
 SCF converges when DIIS error is below 1.0E-08
 -------------------------------------------------------
 OpenMP Integral computing Module                
 Release: version 1.0, May 2013, Q-Chem Inc. Pittsburgh 
 -------------------------------------------------------
 -------------------------------------------------------
 OpenMP BLAS3 based DFT computing Module                
 Release: version 1.0, May 2013, Q-Chem Inc. Pittsburgh 
 -------------------------------------------------------
 ---------------------------------------
  Cycle       Energy         DIIS Error
 ---------------------------------------
    1    -756.4854003916      1.14E-01
    2    -756.5487627268      1.27E-02
    3    -755.4707920431      3.40E-02
    4    -756.7513971877      4.53E-03
    5    -756.7739817500      1.66E-03
    6    -756.7772694929      3.92E-04
    7    -756.7774746141      1.05E-04
    8    -756.7774914576      3.18E-05
    9    -756.7774924185      1.90E-05
   10    -756.7774928824      3.60E-06
   11    -756.7774928987      8.95E-07
   12    -756.7774928997      2.23E-07
   13    -756.7774928998      8.13E-08
   14    -756.7774928998      3.01E-08
   15    -756.7774928998      6.43E-09 Convergence criterion met
 ---------------------------------------
 SCF time:  CPU 91.90 s  wall 4.01 s
 SCF   energy in the final basis set = -756.7774928998
 Total energy in the final basis set = -756.7774928998
 
 --------------------------------------------------------------
 
                    Orbital Energies (a.u.)
 --------------------------------------------------------------
 
 Alpha MOs
 -- Occupied --
-18.949 -18.946 -18.868 -18.867 -10.115 -10.112 -10.075 -10.072
-10.020 -10.019 -10.017 -10.016 -10.015 -10.013 -10.004 -10.003
 -1.048  -1.042  -0.958  -0.955  -0.820  -0.752  -0.730  -0.692
 -0.683  -0.672  -0.622  -0.590  -0.562  -0.506  -0.500  -0.461
 -0.453  -0.447  -0.432  -0.425  -0.415  -0.398  -0.392  -0.385
 -0.382  -0.369  -0.357  -0.350  -0.346  -0.339  -0.326  -0.321
 -0.309  -0.293  -0.287  -0.250  -0.248  -0.197  -0.184  -0.181
 -0.180  -0.152  -0.148
 -- Virtual --
  0.062   0.077   0.130   0.142   0.242   0.288   0.309   0.353
  0.372   0.389   0.394   0.406   0.410   0.436   0.440   0.445
  0.446   0.452   0.455   0.457   0.460   0.468   0.471   0.475
  0.484   0.492   0.504   0.577   0.590   0.602   0.627   0.702
  0.709   0.786   0.800
 --------------------------------------------------------------
 
          Ground-State Mulliken Net Atomic Charges

     Atom                 Charge (a.u.)
  ----------------------------------------
      1 C                    -0.020315
      2 C                    -0.018928
      3 C                     0.235748
      4 C                     0.236538
      5 O                    -0.181275
      6 O                    -0.229574
      7 O                    -0.184253
      8 O                    -0.224009
      9 C                    -0.127614
     10 C                    -0.126341
     11 C                     0.009809
     12 C                    -0.080336
     13 C                    -0.080433
     14 C                     0.010066
     15 H                     0.096676
     16 H                     0.093049
     17 H                     0.079304
     18 H                     0.092734
     19 H                     0.094731
     20 H                     0.096134
     21 H                     0.093638
     22 H                     0.078551
     23 C                    -0.231252
     24 C                    -0.229602
     25 H                     0.082934
     26 H                     0.080995
     27 H                     0.092446
     28 H                     0.095901
     29 H                     0.084121
     30 H                     0.080559
  ----------------------------------------
  Sum of atomic charges =    -0.000000

 -----------------------------------------------------------------
                    Cartesian Multipole Moments
 -----------------------------------------------------------------
    Charge (ESU x 10^10)
                -0.0000
    Dipole Moment (Debye)
         X       1.2962      Y      -0.1010      Z       1.7364
       Tot       2.1692
    Quadrupole Moments (Debye-Ang)
        XX     -77.8750     XY       2.5850     YY     -77.1677
        XZ      -2.0609     YZ       4.6538     ZZ     -90.4602
    Octopole Moments (Debye-Ang^2)
       XXX      31.3988    XXY       6.2045    XYY       3.2220
       YYY      33.1978    XXZ       7.9534    XYZ      -0.8801
       YYZ      11.8410    XZZ       4.7944    YZZ       7.2816
       ZZZ      -1.5429
    Hexadecapole Moments (Debye-Ang^3)
      XXXX   -1962.7992   XXXY      47.3519   XXYY    -646.4083
      XYYY     -13.2508   YYYY   -1735.6892   XXXZ      -1.7022
      XXYZ      17.5216   XYYZ      -9.7525   YYYZ      13.7299
      XXZZ    -388.8525   XYZZ      -6.2694   YYZZ    -361.9148
      XZZZ       9.5993   YZZZ       1.8299   ZZZZ    -235.9432
 -----------------------------------------------------------------
 Calculating analytic gradient of the SCF energy
 Gradient of SCF Energy
            1           2           3           4           5           6
    1   0.0213257  -0.0080944   0.0219533   0.0038728  -0.0213627  -0.0049191
    2   0.0280999   0.0335195   0.0130442   0.0252676   0.0316096  -0.0513407
    3  -0.0060298  -0.0071836  -0.0015978   0.0068760  -0.0526758   0.0521430
            7           8           9          10          11          12
    1  -0.0435928   0.0411236   0.0034144  -0.0167356   0.0111495   0.0041761
    2   0.0026304  -0.0357710  -0.0228437  -0.0142570   0.0022105   0.0017290
    3  -0.0483522   0.0435054  -0.0000375   0.0032563  -0.0024467   0.0009026
           13          14          15          16          17          18
    1  -0.0031860  -0.0059502   0.0008837  -0.0064515   0.0072787   0.0118702
    2   0.0033800   0.0100336  -0.0081916  -0.0041587   0.0033181  -0.0067733
    3  -0.0007584   0.0006345   0.0113512   0.0120997  -0.0015351   0.0021588
           19          20          21          22          23          24
    1  -0.0064546  -0.0051214   0.0007536  -0.0036346   0.0171200  -0.0151163
    2  -0.0018106   0.0037889  -0.0128389   0.0064391  -0.0027253   0.0083908
    3  -0.0085387  -0.0084767   0.0036917  -0.0000443  -0.0037533   0.0048797
           25          26          27          28          29          30
    1  -0.0053769   0.0027466  -0.0067816   0.0030568   0.0020212   0.0000315
    2  -0.0049794   0.0040361  -0.0027634  -0.0060541  -0.0076737   0.0046841
    3   0.0005309  -0.0013090  -0.0034106   0.0044744  -0.0000072  -0.0003474
 Max gradient component =       5.268E-02
 RMS gradient           =       1.699E-02
 Gradient time:  CPU 16.58 s  wall 0.71 s
 Geometry Optimization Parameters
   NAtoms,    NIC,     NZ,  NCons,   NDum,   NFix, NCnnct, MaxDiis
       30     194       0       2       0       0       0       0


** CONSTRAINED OPTIMIZATION IN DELOCALIZED INTERNAL COORDINATES **
   Searching for a Minimum

   Optimization Cycle:   1

                       Coordinates (Angstroms)
     ATOM                X               Y               Z
      1  C         0.4125011125   -0.6355076896   -0.1241194854
      2  C        -0.9199718424   -0.1775825584   -0.0970935988
      3  C         1.4909203662    0.3367582974   -0.4177838583
      4  C        -1.2227722681    1.2652754643   -0.2345295060
      5  O         2.4794071129    0.2069212582    0.5013164054
      6  O         1.4599007613    1.1281261782   -1.3437118584
      7  O        -0.5671603921    1.9341318938    0.7477851812
      8  O        -2.0192894914    1.7300109239   -1.0316062059
      9  C        -0.7911410252    3.3435492204    0.7249274575
     10  C         3.5538033154    1.1302705963    0.3241165186
     11  C         0.6908325096   -2.0150972909    0.0112251320
     12  C        -0.3765806243   -2.9000235158    0.2224235647
     13  C        -1.6950140119   -2.4427633611    0.2572883515
     14  C        -1.9865449822   -1.0814074782    0.0977300441
     15  H        -0.4624112412    3.7697958433   -0.2274740049
     16  H         4.0453282984    0.9641147078   -0.6391930950
     17  H        -2.4970302573   -3.1634910569    0.4061222542
     18  H        -1.8474376543    3.5666794906    0.9059890877
     19  H        -0.2002982988    3.7931790170    1.5273126011
     20  H         4.2838919982    0.9582831261    1.1198280401
     21  H         3.1925407862    2.1609409489    0.4023597877
     22  H        -0.1906002296   -3.9666582263    0.3443320837
     23  C        -3.4222635693   -0.6326602424    0.1288918324
     24  C         2.0849910947   -2.5767940219   -0.0602005081
     25  H         2.6449814024   -2.1343937269   -0.8905256458
     26  H         2.0671057384   -3.6580417916   -0.2367433488
     27  H         2.6144009167   -2.3996751371    0.8812702249
     28  H        -3.7454857248   -0.3261374563   -0.8709002559
     29  H        -3.5543120453    0.1968300833    0.8302013215
     30  H        -4.0860980650   -1.4390523749    0.4598971058
   Point Group: c1    Number of degrees of freedom:    84


   Energy is   -756.777492900

              Constraints and their Current Values
                                        Value     Constraint
   Dihedral:        2   1   3   5      131.435      130.200
   Dihedral:        1   2   4   7      -57.239      -57.300

 Attempting to Generate Delocalized Internal Coordinates

   Using Lagrange Multiplier Algorithm


 86 Hessian modes will be used to form the next step
  Hessian Eigenvalues:
    -0.977753   -0.977753    0.045000    0.045000    0.045000    0.045000
     0.045000    0.045000    0.045000    0.045000    0.045000    0.045001
     0.045002    0.045003    0.045005    0.045012    0.045013    0.045137
     0.045284    0.093755    0.094007    0.094234    0.094419    0.113828
     0.113875    0.116854    0.116890    0.159975    0.159998    0.160000
     0.160000    0.160000    0.160000    0.160000    0.160000    0.160000
     0.160000    0.160000    0.160000    0.160000    0.160000    0.224723
     0.244737    0.248923    0.249138    0.249624    0.249908    0.249990
     0.249993    0.250000    0.250000    0.250000    0.250000    0.250000
     0.318837    0.319059    0.341608    0.341647    0.342469    0.342555
     0.342769    0.342935    0.342935    0.343290    0.343371    0.343554
     0.344100    0.344105    0.344456    0.344917    0.348625    0.349867
     0.408089    0.409183    0.413229    0.413817    0.437594    0.446154
     0.449565    0.458786    0.535065    0.537664    0.958663    0.960829
     1.022753    1.022753

 Minimum Search - Taking P-RFO Step
 Searching for Lamda that Maximizes Along the Constraint modes Only
 Value Taken    Lamda =   0.00030590
 Searching for Lamda that Minimizes Along All other modes
 Value Taken    Lamda =  -0.05616788
 Calculated Step too Large.  Step scaled by  0.858323
 Step Taken.  Stepsize is  0.300000

                             Maximum     Tolerance    Cnvgd?
         Gradient            0.096534       0.000300      NO
         Displacement        0.133310       0.001200      NO
         Energy change     *********       0.000001      NO


 New Cartesian Coordinates Obtained by Inverse Iteration

 Displacement from previous Coordinates is:  0.801602
 Adding empirical dispersion correction 
 ----------------------------------------------------------------
 Doing -D3(op) with
 s6 =   1.00000
 s8 =   0.78311
 a1 =   0.30000
 a2 =   4.25000
 n  =  10.00000
 -D3 energy without 3body term =     -0.0327073473 hartrees
 ----------------------------------------------------------------
             Standard Nuclear Orientation (Angstroms)
    I     Atom           X                Y                Z
 ----------------------------------------------------------------
    1      C       0.3927383371    -0.6926798242    -0.1189514496
    2      C      -0.9492908850    -0.2277731535    -0.0768295261
    3      C       1.4978904657     0.3338169047    -0.4042962433
    4      C      -1.2417801537     1.2733840834    -0.2235976252
    5      O       2.5256596402     0.2136228765     0.5466215259
    6      O       1.4775701357     1.1765786143    -1.3285535423
    7      O      -0.5469938243     1.9758428469     0.7794649361
    8      O      -2.0293805056     1.7924334174    -1.0434876326
    9      C      -0.7577269626     3.4252386434     0.7024639544
   10      C       3.5956512060     1.1960264183     0.3470650781
   11      C       0.6780380230    -2.0824885275     0.0017561508
   12      C      -0.4005659212    -2.9721584236     0.2046488275
   13      C      -1.7284489239    -2.5104233641     0.2520550315
   14      C      -2.0279647260    -1.1374597501     0.1096008073
   15      H      -0.4261701829     3.8364081058    -0.2721755513
   16      H       4.0986376748     1.0643367149    -0.6323416947
   17      H      -2.5423691715    -3.2318791455     0.3965126909
   18      H      -1.8210049395     3.6948914195     0.8647906806
   19      H      -0.1509178324     3.8825927147     1.5048647922
   20      H       4.3367605349     1.0319901008     1.1501743819
   21      H       3.2169829312     2.2354973034     0.4200285491
   22      H      -0.2045312897    -4.0465077789     0.3119280020
   23      C      -3.4871339826    -0.6641358448     0.1464546802
   24      C       2.1067905786    -2.6360192079    -0.0803650100
   25      H       2.6712765228    -2.1713042047    -0.9031939696
   26      H       2.0878529486    -3.7202229319    -0.2655687452
   27      H       2.6530576123    -2.4619313933     0.8608878752
   28      H      -3.8169110472    -0.3305211451    -0.8508592268
   29      H      -3.6216251830     0.1695713634     0.8530970510
   30      H      -4.1498973901    -1.4811457111     0.4669408250
 ----------------------------------------------------------------
 Molecular Point Group                 C1    NOp =  1
 Largest Abelian Subgroup              C1    NOp =  1
 Nuclear Repulsion Energy =  1119.2197898042 hartrees
 There are       59 alpha and       59 beta electrons
 Applying Cartesian multipole field
    Component          Value
    ---------          -----
     (2,0,0)        1.00000E-11
     (0,2,0)        2.00000E-11
     (0,0,2)       -3.00000E-10
 Nucleus-field energy     =     0.0000000004 hartrees
 Requested basis set is STO-3G
 There are 46 shells and 94 basis functions
 A cutoff of  1.0D-12 yielded    915 shell pairs
 There are      4293 function pairs
 Smallest overlap matrix eigenvalue = 1.83E-01
 Guess MOs from SCF MO coefficient file
 Reading MOs from coefficient file
 Reading MOs from coefficient file
 A restricted hybrid HF-DFT SCF calculation will be
 performed using Pulay DIIS extrapolation
 Exchange:     0.2000 Hartree-Fock + 0.0800 Slater + 0.7200 B88
 Correlation:  0.1900 VWN1RPA + 0.8100 LYP
 Using SG-1 standard quadrature grid
 Dispersion:   Grimme D3
 SCF converges when DIIS error is below 1.0E-08
 Geometry optimization detected.  Setting ReadMinima to 0
 Setting SaveMinima to 0
 -------------------------------------------------------
 OpenMP Integral computing Module                
 Release: version 1.0, May 2013, Q-Chem Inc. Pittsburgh 
 -------------------------------------------------------
 -------------------------------------------------------
 OpenMP BLAS3 based DFT computing Module                
 Release: version 1.0, May 2013, Q-Chem Inc. Pittsburgh 
 -------------------------------------------------------
 ---------------------------------------
  Cycle       Energy         DIIS Error
 ---------------------------------------
    1    -756.6347115589      6.29E-03
    2    -756.7973006693      2.46E-03
    3    -756.7830504868      4.18E-03
    4    -756.8045521125      6.47E-04
    5    -756.8051045889      1.65E-04
    6    -756.8051399906      5.09E-05
    7    -756.8051431699      2.22E-05
    8    -756.8051436973      1.06E-05
    9    -756.8051438497      1.74E-06
   10    -756.8051438546      4.08E-07
   11    -756.8051438549      1.35E-07
   12    -756.8051438549      4.29E-08
   13    -756.8051438549      1.93E-08
   14    -756.8051438549      5.49E-09 Convergence criterion met
 ---------------------------------------
 SCF time:  CPU 84.82 s  wall 3.63 s
 SCF   energy in the final basis set = -756.8051438549
 Total energy in the final basis set = -756.8051438549
 
 --------------------------------------------------------------
 
                    Orbital Energies (a.u.)
 --------------------------------------------------------------
 
 Alpha MOs
 -- Occupied --
-18.941 -18.938 -18.869 -18.869 -10.105 -10.103 -10.069 -10.066
-10.023 -10.023 -10.022 -10.021 -10.018 -10.016 -10.008 -10.007
 -1.019  -1.014  -0.938  -0.936  -0.814  -0.744  -0.720  -0.680
 -0.674  -0.662  -0.621  -0.585  -0.556  -0.497  -0.492  -0.450
 -0.442  -0.434  -0.415  -0.413  -0.409  -0.391  -0.383  -0.379
 -0.374  -0.369  -0.355  -0.347  -0.345  -0.336  -0.317  -0.313
 -0.307  -0.291  -0.284  -0.251  -0.249  -0.195  -0.182  -0.179
 -0.175  -0.151  -0.147
 -- Virtual --
  0.058   0.072   0.118   0.128   0.231   0.255   0.280   0.325
  0.351   0.354   0.374   0.387   0.401   0.419   0.422   0.425
  0.430   0.433   0.437   0.441   0.442   0.446   0.458   0.461
  0.468   0.480   0.484   0.551   0.564   0.577   0.604   0.656
  0.657   0.758   0.771
 --------------------------------------------------------------
 
          Ground-State Mulliken Net Atomic Charges

     Atom                 Charge (a.u.)
  ----------------------------------------
      1 C                    -0.018226
      2 C                    -0.017087
      3 C                     0.215086
      4 C                     0.215739
      5 O                    -0.169727
      6 O                    -0.215783
      7 O                    -0.172840
      8 O                    -0.211067
      9 C                    -0.125314
     10 C                    -0.124423
     11 C                     0.008890
     12 C                    -0.079104
     13 C                    -0.078997
     14 C                     0.009064
     15 H                     0.092788
     16 H                     0.088957
     17 H                     0.079444
     18 H                     0.088749
     19 H                     0.090890
     20 H                     0.092125
     21 H                     0.090226
     22 H                     0.078995
     23 C                    -0.224981
     24 C                    -0.223614
     25 H                     0.082716
     26 H                     0.080031
     27 H                     0.090778
     28 H                     0.093242
     29 H                     0.083585
     30 H                     0.079857
  ----------------------------------------
  Sum of atomic charges =     0.000000

 -----------------------------------------------------------------
                    Cartesian Multipole Moments
 -----------------------------------------------------------------
    Charge (ESU x 10^10)
                -0.0000
    Dipole Moment (Debye)
         X       1.1255      Y      -0.2916      Z       1.5609
       Tot       1.9464
    Quadrupole Moments (Debye-Ang)
        XX     -77.5134     XY       2.7675     YY     -76.6690
        XZ      -2.0689     YZ       4.4305     ZZ     -90.5616
    Octopole Moments (Debye-Ang^2)
       XXX      30.6069    XXY       7.1506    XYY       4.0410
       YYY      35.0414    XXZ       7.1116    XYZ      -0.6335
       YYZ      11.3443    XZZ       5.4018    YZZ       8.1729
       ZZZ      -3.4143
    Hexadecapole Moments (Debye-Ang^3)
      XXXX   -2004.0295   XXXY      38.1349   XXYY    -667.0126
      XYYY     -27.0127   YYYY   -1817.1779   XXXZ      -3.7579
      XXYZ      16.0780   XYYZ     -10.5083   YYYZ      13.0362
      XXZZ    -398.1806   XYZZ     -10.1961   YYZZ    -380.2090
      XZZZ       7.0051   YZZZ      -1.0764   ZZZZ    -236.6004
 -----------------------------------------------------------------
 Calculating analytic gradient of the SCF energy
 Gradient of SCF Energy
            1           2           3           4           5           6
    1   0.0027860  -0.0024290   0.0099435   0.0128325  -0.0076222  -0.0017666
    2   0.0058597   0.0052052  -0.0047187   0.0054699   0.0119737  -0.0060840
    3  -0.0004463  -0.0034844   0.0089151   0.0103661  -0.0175631   0.0039609
            7           8           9          10          11          12
    1  -0.0165091   0.0023532   0.0028869  -0.0051021   0.0020474   0.0018242
    2   0.0014040  -0.0051359  -0.0080819  -0.0068557   0.0000121  -0.0011794
    3  -0.0159260   0.0037722   0.0030196   0.0037644  -0.0017246   0.0011479
           13          14          15          16          17          18
    1  -0.0023505  -0.0015034   0.0011192   0.0007243   0.0012673   0.0010790
    2  -0.0002929   0.0018207   0.0001425  -0.0008468  -0.0000871   0.0000369
    3  -0.0000826   0.0011637   0.0014339   0.0014045  -0.0005079   0.0015060
           19          20          21          22          23          24
    1  -0.0010678   0.0009285   0.0007222  -0.0010569   0.0041144  -0.0029859
    2   0.0020620   0.0019285  -0.0006924   0.0007076   0.0002755   0.0029683
    3  -0.0012401  -0.0013664   0.0015420   0.0003770  -0.0017793   0.0019102
           25          26          27          28          29          30
    1  -0.0004463   0.0015258  -0.0008335  -0.0006964  -0.0009473  -0.0008371
    2  -0.0024278   0.0006399  -0.0017884  -0.0018942  -0.0018961   0.0014745
    3  -0.0009280  -0.0010048  -0.0000897   0.0004332   0.0010560   0.0003705
 Max gradient component =       1.756E-02
 RMS gradient           =       4.744E-03
 Gradient time:  CPU 18.31 s  wall 0.78 s
 Geometry Optimization Parameters
   NAtoms,    NIC,     NZ,  NCons,   NDum,   NFix, NCnnct, MaxDiis
       30     194       0       2       0       0       0       0

 Cartesian Hessian Update
 Hessian Updated using BFGS Update


** CONSTRAINED OPTIMIZATION IN DELOCALIZED INTERNAL COORDINATES **
   Searching for a Minimum

   Optimization Cycle:   2

                       Coordinates (Angstroms)
     ATOM                X               Y               Z
      1  C         0.3927383371   -0.6926798242   -0.1189514496
      2  C        -0.9492908850   -0.2277731535   -0.0768295261
      3  C         1.4978904657    0.3338169047   -0.4042962433
      4  C        -1.2417801537    1.2733840834   -0.2235976252
      5  O         2.5256596402    0.2136228765    0.5466215259
      6  O         1.4775701357    1.1765786143   -1.3285535423
      7  O        -0.5469938243    1.9758428469    0.7794649361
      8  O        -2.0293805056    1.7924334174   -1.0434876326
      9  C        -0.7577269626    3.4252386434    0.7024639544
     10  C         3.5956512060    1.1960264183    0.3470650781
     11  C         0.6780380230   -2.0824885275    0.0017561508
     12  C        -0.4005659212   -2.9721584236    0.2046488275
     13  C        -1.7284489239   -2.5104233641    0.2520550315
     14  C        -2.0279647260   -1.1374597501    0.1096008073
     15  H        -0.4261701829    3.8364081058   -0.2721755513
     16  H         4.0986376748    1.0643367149   -0.6323416947
     17  H        -2.5423691715   -3.2318791455    0.3965126909
     18  H        -1.8210049395    3.6948914195    0.8647906806
     19  H        -0.1509178324    3.8825927147    1.5048647922
     20  H         4.3367605349    1.0319901008    1.1501743819
     21  H         3.2169829312    2.2354973034    0.4200285491
     22  H        -0.2045312897   -4.0465077789    0.3119280020
     23  C        -3.4871339826   -0.6641358448    0.1464546802
     24  C         2.1067905786   -2.6360192079   -0.0803650100
     25  H         2.6712765228   -2.1713042047   -0.9031939696
     26  H         2.0878529486   -3.7202229319   -0.2655687452
     27  H         2.6530576123   -2.4619313933    0.8608878752
     28  H        -3.8169110472   -0.3305211451   -0.8508592268
     29  H        -3.6216251830    0.1695713634    0.8530970510
     30  H        -4.1498973901   -1.4811457111    0.4669408250
   Point Group: c1    Number of degrees of freedom:    84


   Energy is   -756.805143855

              Constraints and their Current Values
                                        Value     Constraint
   Dihedral:        2   1   3   5      130.401      130.200
   Dihedral:        1   2   4   7      -57.300      -57.300
 Hessian Updated using BFGS Update

   Using Lagrange Multiplier Algorithm


 70 Hessian modes will be used to form the next step
  Hessian Eigenvalues:
    -0.977761   -0.977719    0.044915    0.045000    0.045000    0.045000
     0.045001    0.045001    0.045002    0.045004    0.045007    0.045008
     0.045014    0.045111    0.045346    0.093594    0.093942    0.094234
     0.094415    0.113764    0.113857    0.116855    0.116890    0.158407
     0.159976    0.159999    0.162587    0.224722    0.236770    0.244887
     0.248937    0.249474    0.249636    0.249914    0.249992    0.249997
     0.250000    0.252691    0.318941    0.321881    0.341612    0.341650
     0.342500    0.342565    0.342802    0.342935    0.342962    0.343294
     0.343396    0.343574    0.344086    0.344394    0.344556    0.348588
     0.349808    0.371464    0.407374    0.408592    0.413472    0.423311
     0.438717    0.446240    0.457593    0.464866    0.520888    0.536442
     0.959693    0.989318    1.022751    1.023054

 Minimum Search - Taking P-RFO Step
 Searching for Lamda that Maximizes Along the Constraint modes Only
 Value Taken    Lamda =   0.00000682
 Searching for Lamda that Minimizes Along All other modes
 Value Taken    Lamda =  -0.00465938
 Step Taken.  Stepsize is  0.168170

                             Maximum     Tolerance    Cnvgd?
         Gradient            0.019732       0.000300      NO
         Displacement        0.060687       0.001200      NO
         Energy change     -0.027651       0.000001      NO


 New Cartesian Coordinates Obtained by Inverse Iteration

 Displacement from previous Coordinates is:  0.565034
 Adding empirical dispersion correction 
 ----------------------------------------------------------------
 Doing -D3(op) with
 s6 =   1.00000
 s8 =   0.78311
 a1 =   0.30000
 a2 =   4.25000
 n  =  10.00000
 -D3 energy without 3body term =     -0.0328431911 hartrees
 ----------------------------------------------------------------
             Standard Nuclear Orientation (Angstroms)
    I     Atom           X                Y                Z
 ----------------------------------------------------------------
    1      C       0.3804918239    -0.7066297717    -0.1072581927
    2      C      -0.9588314971    -0.2440590796    -0.0417106722
    3      C       1.4840324087     0.3432162382    -0.3585921333
    4      C      -1.2418066807     1.2661543629    -0.1964616644
    5      O       2.5235825146     0.1842728139     0.6019212746
    6      O       1.4741408518     1.2304039028    -1.2473575088
    7      O      -0.5062076509     1.9664084901     0.8060337659
    8      O      -2.0096058501     1.8135782316    -1.0231588092
    9      C      -0.7159576860     3.4185902002     0.6429316626
   10      C       3.5634500062     1.2070721215     0.3721751682
   11      C       0.6719777991    -2.0947068314    -0.0113181926
   12      C      -0.4056990375    -2.9901433109     0.1740092727
   13      C      -1.7343557493    -2.5299232011     0.2416551895
   14      C      -2.0366567348    -1.1542415979     0.1292488888
   15      H      -0.3876793583     3.7683901006    -0.3579839977
   16      H       4.0324595702     1.0997616190    -0.6282782715
   17      H      -2.5522437822    -3.2509241833     0.3776646719
   18      H      -1.7812477337     3.6978563083     0.7826797506
   19      H      -0.1011713962     3.9010540405     1.4256473487
   20      H       4.3249918719     1.0437162058     1.1574909119
   21      H       3.1530027607     2.2346110963     0.4594903832
   22      H      -0.2010256624    -4.0664990662     0.2564664334
   23      C      -3.4943202454    -0.6653522960     0.1767493292
   24      C       2.1124655957    -2.6271538316    -0.1020071850
   25      H       2.6680850809    -2.1269775826    -0.9112042940
   26      H       2.1030761673    -3.7101584321    -0.2994827325
   27      H       2.6550726397    -2.4488357496     0.8420695719
   28      H      -3.8114968982    -0.2986579474    -0.8143972007
   29      H      -3.6110459928     0.1624591416     0.8950696246
   30      H      -4.1612834454    -1.4877008708     0.4770432294
 ----------------------------------------------------------------
 Molecular Point Group                 C1    NOp =  1
 Largest Abelian Subgroup              C1    NOp =  1
 Nuclear Repulsion Energy =  1119.7791121218 hartrees
 There are       59 alpha and       59 beta electrons
 Applying Cartesian multipole field
    Component          Value
    ---------          -----
     (2,0,0)        1.00000E-11
     (0,2,0)        2.00000E-11
     (0,0,2)       -3.00000E-10
 Nucleus-field energy     =     0.0000000027 hartrees
 Requested basis set is STO-3G
 There are 46 shells and 94 basis functions
 A cutoff of  1.0D-12 yielded    917 shell pairs
 There are      4298 function pairs
 Smallest overlap matrix eigenvalue = 1.82E-01
 Guess MOs from SCF MO coefficient file
 Reading MOs from coefficient file
 Reading MOs from coefficient file
 A restricted hybrid HF-DFT SCF calculation will be
 performed using Pulay DIIS extrapolation
 Exchange:     0.2000 Hartree-Fock + 0.0800 Slater + 0.7200 B88
 Correlation:  0.1900 VWN1RPA + 0.8100 LYP
 Using SG-1 standard quadrature grid
 Dispersion:   Grimme D3
 SCF converges when DIIS error is below 1.0E-08
 Geometry optimization detected.  Setting ReadMinima to 0
 Setting SaveMinima to 0
 -------------------------------------------------------
 OpenMP Integral computing Module                
 Release: version 1.0, May 2013, Q-Chem Inc. Pittsburgh 
 -------------------------------------------------------
 -------------------------------------------------------
 OpenMP BLAS3 based DFT computing Module                
 Release: version 1.0, May 2013, Q-Chem Inc. Pittsburgh 
 -------------------------------------------------------
 ---------------------------------------
  Cycle       Energy         DIIS Error
 ---------------------------------------
    1    -756.7636478497      3.19E-03
    2    -756.8066040667      8.71E-04
    3    -756.8036587968      1.78E-03
    4    -756.8075393788      2.29E-04
    5    -756.8076072640      6.60E-05
    6    -756.8076125248      2.48E-05
    7    -756.8076131676      1.38E-05
    8    -756.8076134038      4.11E-06
    9    -756.8076134268      1.12E-06
   10    -756.8076134289      2.11E-07
   11    -756.8076134290      6.70E-08
   12    -756.8076134289      2.84E-08
   13    -756.8076134290      1.17E-08
   14    -756.8076134289      2.90E-09 Convergence criterion met
 ---------------------------------------
 SCF time:  CPU 83.40 s  wall 3.58 s
 SCF   energy in the final basis set = -756.8076134289
 Total energy in the final basis set = -756.8076134289
 
 --------------------------------------------------------------
 
                    Orbital Energies (a.u.)
 --------------------------------------------------------------
 
 Alpha MOs
 -- Occupied --
-18.939 -18.936 -18.873 -18.872 -10.103 -10.101 -10.066 -10.063
-10.024 -10.023 -10.022 -10.021 -10.018 -10.017 -10.009 -10.009
 -1.015  -1.008  -0.936  -0.934  -0.815  -0.744  -0.719  -0.680
 -0.669  -0.657  -0.621  -0.584  -0.556  -0.495  -0.490  -0.448
 -0.442  -0.433  -0.412  -0.410  -0.407  -0.390  -0.382  -0.376
 -0.370  -0.368  -0.356  -0.347  -0.346  -0.337  -0.316  -0.311
 -0.306  -0.290  -0.283  -0.255  -0.254  -0.195  -0.183  -0.179
 -0.174  -0.153  -0.149
 -- Virtual --
  0.056   0.070   0.116   0.126   0.231   0.253   0.277   0.315
  0.340   0.346   0.370   0.381   0.401   0.416   0.421   0.424
  0.430   0.432   0.434   0.437   0.441   0.445   0.454   0.457
  0.464   0.475   0.481   0.548   0.561   0.576   0.602   0.648
  0.650   0.758   0.770
 --------------------------------------------------------------
 
          Ground-State Mulliken Net Atomic Charges

     Atom                 Charge (a.u.)
  ----------------------------------------
      1 C                    -0.018741
      2 C                    -0.017956
      3 C                     0.210293
      4 C                     0.210890
      5 O                    -0.164491
      6 O                    -0.212874
      7 O                    -0.167731
      8 O                    -0.207210
      9 C                    -0.127632
     10 C                    -0.126742
     11 C                     0.008641
     12 C                    -0.078972
     13 C                    -0.078790
     14 C                     0.008620
     15 H                     0.092880
     16 H                     0.088361
     17 H                     0.079498
     18 H                     0.088284
     19 H                     0.089055
     20 H                     0.090358
     21 H                     0.090159
     22 H                     0.079231
     23 C                    -0.223990
     24 C                    -0.222422
     25 H                     0.082905
     26 H                     0.080058
     27 H                     0.091335
     28 H                     0.092985
     29 H                     0.083740
     30 H                     0.080259
  ----------------------------------------
  Sum of atomic charges =     0.000000

 -----------------------------------------------------------------
                    Cartesian Multipole Moments
 -----------------------------------------------------------------
    Charge (ESU x 10^10)
                -0.0000
    Dipole Moment (Debye)
         X       0.9908      Y      -0.4042      Z       1.3652
       Tot       1.7346
    Quadrupole Moments (Debye-Ang)
        XX     -77.8998     XY       2.7064     YY     -77.1936
        XZ      -2.0790     YZ       4.1297     ZZ     -90.4011
    Octopole Moments (Debye-Ang^2)
       XXX      27.6930    XXY       7.0122    XYY       3.9002
       YYY      33.2148    XXZ       5.5886    XYZ      -0.3598
       YYZ       9.2766    XZZ       5.6488    YZZ       8.5981
       ZZZ      -7.2634
    Hexadecapole Moments (Debye-Ang^3)
      XXXX   -2001.0171   XXXY      28.6383   XXYY    -667.1580
      XYYY     -32.7366   YYYY   -1833.8527   XXXZ      -6.1450
      XXYZ      14.4211   XYYZ     -10.1375   YYYZ      11.3903
      XXZZ    -394.2055   XYZZ     -11.9080   YYZZ    -381.8498
      XZZZ       3.2408   YZZZ      -3.4444   ZZZZ    -227.3688
 -----------------------------------------------------------------
 Calculating analytic gradient of the SCF energy
 Gradient of SCF Energy
            1           2           3           4           5           6
    1  -0.0011990   0.0009778   0.0062826   0.0065124  -0.0018362  -0.0006773
    2  -0.0011932  -0.0007076  -0.0015293   0.0046146   0.0012893   0.0021654
    3   0.0000351   0.0015509   0.0042553   0.0044623  -0.0010551  -0.0028352
            7           8           9          10          11          12
    1  -0.0026213  -0.0025664  -0.0009904  -0.0041512  -0.0001451   0.0004720
    2  -0.0009581   0.0009153  -0.0044935  -0.0021076   0.0002150  -0.0000805
    3  -0.0006823  -0.0029138  -0.0014333  -0.0011444  -0.0014424   0.0004565
           13          14          15          16          17          18
    1  -0.0002921  -0.0001425   0.0000888   0.0004006  -0.0001848  -0.0005401
    2   0.0001777   0.0009140   0.0004009   0.0000150  -0.0001117   0.0002519
    3  -0.0002351   0.0008280  -0.0004936  -0.0005440  -0.0001758   0.0001583
           19          20          21          22          23          24
    1   0.0004864  -0.0000865  -0.0001373   0.0000540   0.0005805   0.0001019
    2  -0.0004871  -0.0005224   0.0006340  -0.0001751   0.0007434   0.0013005
    3   0.0004116   0.0004735   0.0000940   0.0002970  -0.0006252   0.0005196
           25          26          27          28          29          30
    1   0.0000728  -0.0001991   0.0001099  -0.0002359  -0.0001000  -0.0000345
    2   0.0000478  -0.0003560  -0.0003969  -0.0002365   0.0001251  -0.0004543
    3  -0.0003454  -0.0003396   0.0002754  -0.0001642   0.0002638   0.0003484
 Max gradient component =       6.512E-03
 RMS gradient           =       1.673E-03
 Gradient time:  CPU 17.81 s  wall 0.75 s
 Geometry Optimization Parameters
   NAtoms,    NIC,     NZ,  NCons,   NDum,   NFix, NCnnct, MaxDiis
       30     194       0       2       0       0       0       0

 Cartesian Hessian Update
 Hessian Updated using BFGS Update


** CONSTRAINED OPTIMIZATION IN DELOCALIZED INTERNAL COORDINATES **
   Searching for a Minimum

   Optimization Cycle:   3

                       Coordinates (Angstroms)
     ATOM                X               Y               Z
      1  C         0.3804918239   -0.7066297717   -0.1072581927
      2  C        -0.9588314971   -0.2440590796   -0.0417106722
      3  C         1.4840324087    0.3432162382   -0.3585921333
      4  C        -1.2418066807    1.2661543629   -0.1964616644
      5  O         2.5235825146    0.1842728139    0.6019212746
      6  O         1.4741408518    1.2304039028   -1.2473575088
      7  O        -0.5062076509    1.9664084901    0.8060337659
      8  O        -2.0096058501    1.8135782316   -1.0231588092
      9  C        -0.7159576860    3.4185902002    0.6429316626
     10  C         3.5634500062    1.2070721215    0.3721751682
     11  C         0.6719777991   -2.0947068314   -0.0113181926
     12  C        -0.4056990375   -2.9901433109    0.1740092727
     13  C        -1.7343557493   -2.5299232011    0.2416551895
     14  C        -2.0366567348   -1.1542415979    0.1292488888
     15  H        -0.3876793583    3.7683901006   -0.3579839977
     16  H         4.0324595702    1.0997616190   -0.6282782715
     17  H        -2.5522437822   -3.2509241833    0.3776646719
     18  H        -1.7812477337    3.6978563083    0.7826797506
     19  H        -0.1011713962    3.9010540405    1.4256473487
     20  H         4.3249918719    1.0437162058    1.1574909119
     21  H         3.1530027607    2.2346110963    0.4594903832
     22  H        -0.2010256624   -4.0664990662    0.2564664334
     23  C        -3.4943202454   -0.6653522960    0.1767493292
     24  C         2.1124655957   -2.6271538316   -0.1020071850
     25  H         2.6680850809   -2.1269775826   -0.9112042940
     26  H         2.1030761673   -3.7101584321   -0.2994827325
     27  H         2.6550726397   -2.4488357496    0.8420695719
     28  H        -3.8114968982   -0.2986579474   -0.8143972007
     29  H        -3.6110459928    0.1624591416    0.8950696246
     30  H        -4.1612834454   -1.4877008708    0.4770432294
   Point Group: c1    Number of degrees of freedom:    84


   Energy is   -756.807613429

              Constraints and their Current Values
                                        Value     Constraint
   Dihedral:        2   1   3   5      130.200      130.200
   Dihedral:        1   2   4   7      -57.300      -57.300
 Hessian Updated using BFGS Update

   Using Lagrange Multiplier Algorithm


 73 Hessian modes will be used to form the next step
  Hessian Eigenvalues:
    -0.977746   -0.977339    0.041913    0.045000    0.045000    0.045000
     0.045001    0.045001    0.045002    0.045004    0.045005    0.045006
     0.045013    0.045079    0.045097    0.045431    0.092159    0.093897
     0.094233    0.094407    0.112969    0.113853    0.116855    0.116890
     0.159174    0.159981    0.159999    0.161182    0.164010    0.224652
     0.236662    0.244895    0.249007    0.249522    0.249641    0.249920
     0.249992    0.250000    0.250000    0.250582    0.293788    0.318940
     0.322115    0.341623    0.341763    0.342499    0.342617    0.342827
     0.342936    0.343035    0.343282    0.343472    0.343941    0.344099
     0.344357    0.344632    0.348611    0.349818    0.375571    0.394678
     0.408480    0.413497    0.422748    0.438963    0.446258    0.457941
     0.466666    0.476413    0.536425    0.959671    1.011480    1.022770
     1.028225

 Minimum Search - Taking P-RFO Step
 Searching for Lamda that Maximizes Along the Constraint modes Only
 Value Taken    Lamda =   0.00000184
 Searching for Lamda that Minimizes Along All other modes
 Value Taken    Lamda =  -0.00056346
 Step Taken.  Stepsize is  0.063965

                             Maximum     Tolerance    Cnvgd?
         Gradient            0.006946       0.000300      NO
         Displacement        0.022594       0.001200      NO
         Energy change     -0.002470       0.000001      NO


 New Cartesian Coordinates Obtained by Inverse Iteration

 Displacement from previous Coordinates is:  0.209584
 Adding empirical dispersion correction 
 ----------------------------------------------------------------
 Doing -D3(op) with
 s6 =   1.00000
 s8 =   0.78311
 a1 =   0.30000
 a2 =   4.25000
 n  =  10.00000
 -D3 energy without 3body term =     -0.0328534392 hartrees
 ----------------------------------------------------------------
             Standard Nuclear Orientation (Angstroms)
    I     Atom           X                Y                Z
 ----------------------------------------------------------------
    1      C       0.3716644496    -0.7053720478    -0.1120744655
    2      C      -0.9702720624    -0.2485845132    -0.0348486327
    3      C       1.4730568814     0.3499442951    -0.3531516571
    4      C      -1.2587372869     1.2598200554    -0.1968309435
    5      O       2.5236416729     0.1812998045     0.6051281798
    6      O       1.4650231709     1.2470611840    -1.2295302791
    7      O      -0.5109442898     1.9745015773     0.7978468419
    8      O      -2.0253816072     1.8055901298    -1.0227598384
    9      C      -0.7011383734     3.4343810634     0.6251912486
   10      C       3.5752963309     1.2041353967     0.3899615560
   11      C       0.6680270632    -2.0934029184    -0.0184987545
   12      C      -0.4059879911    -2.9934121418     0.1643475560
   13      C      -1.7353885910    -2.5394497931     0.2404485535
   14      C      -2.0434314352    -1.1649725232     0.1351442124
   15      H      -0.3699203038     3.7679412631    -0.3792489899
   16      H       4.0399555302     1.1064967758    -0.6123518767
   17      H      -2.5498174221    -3.2638030960     0.3778684625
   18      H      -1.7626992809     3.7260034788     0.7602053298
   19      H      -0.0817175626     3.9185861205     1.4023459584
   20      H       4.3374272985     1.0287131376     1.1712707926
   21      H       3.1689838798     2.2311880120     0.4883453024
   22      H      -0.1962163963    -4.0690808504     0.2395985263
   23      C      -3.5024819915    -0.6798013418     0.1893830641
   24      C       2.1103175438    -2.6215437704    -0.1114726144
   25      H       2.6627088982    -2.1173040685    -0.9197493110
   26      H       2.1069495481    -3.7046037885    -0.3055176395
   27      H       2.6516565923    -2.4355762236     0.8315211868
   28      H      -3.8183541835    -0.3042030434    -0.7986667912
   29      H      -3.6164104727     0.1443918487     0.9117437451
   30      H      -4.1696159195    -1.5033629016     0.4834869002
 ----------------------------------------------------------------
 Molecular Point Group                 C1    NOp =  1
 Largest Abelian Subgroup              C1    NOp =  1
 Nuclear Repulsion Energy =  1118.5310796332 hartrees
 There are       59 alpha and       59 beta electrons
 Applying Cartesian multipole field
    Component          Value
    ---------          -----
     (2,0,0)        1.00000E-11
     (0,2,0)        2.00000E-11
     (0,0,2)       -3.00000E-10
 Nucleus-field energy     =     0.0000000034 hartrees
 Requested basis set is STO-3G
 There are 46 shells and 94 basis functions
 A cutoff of  1.0D-12 yielded    914 shell pairs
 There are      4289 function pairs
 Smallest overlap matrix eigenvalue = 1.82E-01
 Guess MOs from SCF MO coefficient file
 Reading MOs from coefficient file
 Reading MOs from coefficient file
 A restricted hybrid HF-DFT SCF calculation will be
 performed using Pulay DIIS extrapolation
 Exchange:     0.2000 Hartree-Fock + 0.0800 Slater + 0.7200 B88
 Correlation:  0.1900 VWN1RPA + 0.8100 LYP
 Using SG-1 standard quadrature grid
 Dispersion:   Grimme D3
 SCF converges when DIIS error is below 1.0E-08
 Geometry optimization detected.  Setting ReadMinima to 0
 Setting SaveMinima to 0
 -------------------------------------------------------
 OpenMP Integral computing Module                
 Release: version 1.0, May 2013, Q-Chem Inc. Pittsburgh 
 -------------------------------------------------------
 -------------------------------------------------------
 OpenMP BLAS3 based DFT computing Module                
 Release: version 1.0, May 2013, Q-Chem Inc. Pittsburgh 
 -------------------------------------------------------
 ---------------------------------------
  Cycle       Energy         DIIS Error
 ---------------------------------------
    1    -756.8022572820      1.07E-03
    2    -756.8077662716      3.23E-04
    3    -756.8072551553      7.10E-04
    4    -756.8079016755      6.41E-05
    5    -756.8079067698      1.58E-05
    6    -756.8079070726      5.72E-06
    7    -756.8079071224      2.16E-06
    8    -756.8079071290      6.85E-07
    9    -756.8079071294      4.63E-07
   10    -756.8079071297      7.15E-08
   11    -756.8079071297      1.88E-08
   12    -756.8079071297      9.87E-09 Convergence criterion met
 ---------------------------------------
 SCF time:  CPU 67.41 s  wall 2.87 s
 SCF   energy in the final basis set = -756.8079071297
 Total energy in the final basis set = -756.8079071297
 
 --------------------------------------------------------------
 
                    Orbital Energies (a.u.)
 --------------------------------------------------------------
 
 Alpha MOs
 -- Occupied --
-18.936 -18.932 -18.875 -18.873 -10.102 -10.100 -10.065 -10.061
-10.024 -10.024 -10.023 -10.022 -10.018 -10.018 -10.010 -10.009
 -1.011  -1.005  -0.935  -0.932  -0.816  -0.745  -0.719  -0.681
 -0.668  -0.657  -0.621  -0.584  -0.556  -0.494  -0.489  -0.447
 -0.442  -0.432  -0.411  -0.409  -0.407  -0.390  -0.382  -0.376
 -0.370  -0.368  -0.356  -0.347  -0.346  -0.338  -0.316  -0.311
 -0.306  -0.291  -0.284  -0.254  -0.252  -0.195  -0.183  -0.178
 -0.173  -0.154  -0.150
 -- Virtual --
  0.056   0.070   0.115   0.126   0.230   0.248   0.273   0.314
  0.338   0.346   0.369   0.380   0.400   0.415   0.422   0.425
  0.431   0.432   0.434   0.438   0.442   0.446   0.454   0.457
  0.464   0.475   0.481   0.547   0.560   0.575   0.601   0.648
  0.650   0.757   0.770
 --------------------------------------------------------------
 
          Ground-State Mulliken Net Atomic Charges

     Atom                 Charge (a.u.)
  ----------------------------------------
      1 C                    -0.018277
      2 C                    -0.017746
      3 C                     0.209809
      4 C                     0.210308
      5 O                    -0.164698
      6 O                    -0.212327
      7 O                    -0.167827
      8 O                    -0.206507
      9 C                    -0.129168
     10 C                    -0.128306
     11 C                     0.009057
     12 C                    -0.078910
     13 C                    -0.078804
     14 C                     0.008891
     15 H                     0.092773
     16 H                     0.088195
     17 H                     0.079805
     18 H                     0.088129
     19 H                     0.089383
     20 H                     0.090701
     21 H                     0.090112
     22 H                     0.079440
     23 C                    -0.224337
     24 C                    -0.222704
     25 H                     0.083204
     26 H                     0.080232
     27 H                     0.091793
     28 H                     0.093108
     29 H                     0.084063
     30 H                     0.080609
  ----------------------------------------
  Sum of atomic charges =     0.000000

 -----------------------------------------------------------------
                    Cartesian Multipole Moments
 -----------------------------------------------------------------
    Charge (ESU x 10^10)
                -0.0000
    Dipole Moment (Debye)
         X       0.9794      Y      -0.4439      Z       1.3267
       Tot       1.7077
    Quadrupole Moments (Debye-Ang)
        XX     -77.8860     XY       2.7779     YY     -77.1521
        XZ      -2.0580     YZ       4.0819     ZZ     -90.3344
    Octopole Moments (Debye-Ang^2)
       XXX      28.8318    XXY       6.9925    XYY       4.1629
       YYY      33.4396    XXZ       5.7866    XYZ      -0.2017
       YYZ       9.1212    XZZ       6.1186    YZZ       8.7075
       ZZZ      -7.5453
    Hexadecapole Moments (Debye-Ang^3)
      XXXX   -2006.0867   XXXY      26.6704   XXYY    -669.2487
      XYYY     -35.8688   YYYY   -1838.0325   XXXZ      -6.9260
      XXYZ      14.3549   XYYZ     -10.2817   YYYZ      11.6131
      XXZZ    -394.9409   XYZZ     -12.7097   YYZZ    -382.9171
      XZZZ       1.6479   YZZZ      -3.9916   ZZZZ    -225.3460
 -----------------------------------------------------------------
 Calculating analytic gradient of the SCF energy
 Gradient of SCF Energy
            1           2           3           4           5           6
    1  -0.0012372   0.0001781   0.0003857   0.0019768  -0.0009363  -0.0000550
    2  -0.0009600  -0.0007412  -0.0016084  -0.0005718   0.0005859   0.0008917
    3  -0.0019239   0.0026013   0.0005502  -0.0006705   0.0000640  -0.0008955
            7           8           9          10          11          12
    1  -0.0013794  -0.0004561   0.0003729   0.0012546  -0.0002856  -0.0002283
    2  -0.0005886   0.0006340   0.0012294   0.0003841  -0.0000785   0.0001969
    3   0.0004197  -0.0009598   0.0005835   0.0005360  -0.0006790   0.0002805
           13          14          15          16          17          18
    1   0.0003353   0.0000917  -0.0003056  -0.0001673  -0.0000846   0.0001073
    2   0.0000365   0.0001532  -0.0000755   0.0001478   0.0000143  -0.0000413
    3  -0.0002048   0.0005236   0.0000222   0.0000507  -0.0000637  -0.0001437
           19          20          21          22          23          24
    1   0.0000688   0.0001938   0.0000229   0.0000656  -0.0003715   0.0003636
    2   0.0002094   0.0001170  -0.0001097  -0.0000067   0.0000066   0.0000471
    3   0.0000001   0.0000048  -0.0002099   0.0001387   0.0000032  -0.0000665
           25          26          27          28          29          30
    1  -0.0000788  -0.0001156  -0.0000724   0.0000715   0.0001857   0.0000993
    2   0.0002706  -0.0000398  -0.0001088  -0.0000531   0.0001516  -0.0000927
    3   0.0001784  -0.0001040   0.0000371  -0.0000043  -0.0001911   0.0001229
 Max gradient component =       2.601E-03
 RMS gradient           =       6.158E-04
 Gradient time:  CPU 18.93 s  wall 0.83 s
 Geometry Optimization Parameters
   NAtoms,    NIC,     NZ,  NCons,   NDum,   NFix, NCnnct, MaxDiis
       30     194       0       2       0       0       0       0

 Cartesian Hessian Update
 Hessian Updated using BFGS Update


** CONSTRAINED OPTIMIZATION IN DELOCALIZED INTERNAL COORDINATES **
   Searching for a Minimum

   Optimization Cycle:   4

                       Coordinates (Angstroms)
     ATOM                X               Y               Z
      1  C         0.3716644496   -0.7053720478   -0.1120744655
      2  C        -0.9702720624   -0.2485845132   -0.0348486327
      3  C         1.4730568814    0.3499442951   -0.3531516571
      4  C        -1.2587372869    1.2598200554   -0.1968309435
      5  O         2.5236416729    0.1812998045    0.6051281798
      6  O         1.4650231709    1.2470611840   -1.2295302791
      7  O        -0.5109442898    1.9745015773    0.7978468419
      8  O        -2.0253816072    1.8055901298   -1.0227598384
      9  C        -0.7011383734    3.4343810634    0.6251912486
     10  C         3.5752963309    1.2041353967    0.3899615560
     11  C         0.6680270632   -2.0934029184   -0.0184987545
     12  C        -0.4059879911   -2.9934121418    0.1643475560
     13  C        -1.7353885910   -2.5394497931    0.2404485535
     14  C        -2.0434314352   -1.1649725232    0.1351442124
     15  H        -0.3699203038    3.7679412631   -0.3792489899
     16  H         4.0399555302    1.1064967758   -0.6123518767
     17  H        -2.5498174221   -3.2638030960    0.3778684625
     18  H        -1.7626992809    3.7260034788    0.7602053298
     19  H        -0.0817175626    3.9185861205    1.4023459584
     20  H         4.3374272985    1.0287131376    1.1712707926
     21  H         3.1689838798    2.2311880120    0.4883453024
     22  H        -0.1962163963   -4.0690808504    0.2395985263
     23  C        -3.5024819915   -0.6798013418    0.1893830641
     24  C         2.1103175438   -2.6215437704   -0.1114726144
     25  H         2.6627088982   -2.1173040685   -0.9197493110
     26  H         2.1069495481   -3.7046037885   -0.3055176395
     27  H         2.6516565923   -2.4355762236    0.8315211868
     28  H        -3.8183541835   -0.3042030434   -0.7986667912
     29  H        -3.6164104727    0.1443918487    0.9117437451
     30  H        -4.1696159195   -1.5033629016    0.4834869002
   Point Group: c1    Number of degrees of freedom:    84


   Energy is   -756.807907130

              Constraints and their Current Values
                                        Value     Constraint
   Dihedral:        2   1   3   5      130.200      130.200
   Dihedral:        1   2   4   7      -57.300      -57.300
 Hessian Updated using BFGS Update

 71 Hessian modes will be used to form the next step
  Hessian Eigenvalues:
     0.037594    0.045000    0.045000    0.045001    0.045001    0.045002
     0.045003    0.045005    0.045006    0.045012    0.045013    0.045087
     0.045175    0.045868    0.092979    0.093928    0.094234    0.094406
     0.113853    0.114770    0.116853    0.116886    0.159524    0.159982
     0.159999    0.160253    0.161257    0.164310    0.224336    0.235054
     0.244937    0.249042    0.249531    0.249642    0.249928    0.249994
     0.250000    0.250000    0.250187    0.250493    0.299150    0.318942
     0.321931    0.341617    0.341677    0.342530    0.342615    0.342882
     0.342932    0.343045    0.343294    0.343478    0.343925    0.344329
     0.344526    0.346882    0.348642    0.349814    0.371585    0.408051
     0.409759    0.413525    0.437845    0.446187    0.453605    0.459876
     0.465494    0.514532    0.536458    0.959653    0.988282

 Minimum Search - Taking Simple RFO Step
 Searching for Lamda that Minimizes Along All modes
 Value Taken    Lamda =  -0.00004710
 Step Taken.  Stepsize is  0.021242

                             Maximum     Tolerance    Cnvgd?
         Gradient           0.002059      0.000300      NO
         Displacement       0.007555      0.001200      NO
         Energy change     -0.000294      0.000001      NO


 New Cartesian Coordinates Obtained by Inverse Iteration

 Displacement from previous Coordinates is:  0.047732
 Adding empirical dispersion correction 
 ----------------------------------------------------------------
 Doing -D3(op) with
 s6 =   1.00000
 s8 =   0.78311
 a1 =   0.30000
 a2 =   4.25000
 n  =  10.00000
 -D3 energy without 3body term =     -0.0328511729 hartrees
 ----------------------------------------------------------------
             Standard Nuclear Orientation (Angstroms)
    I     Atom           X                Y                Z
 ----------------------------------------------------------------
    1      C       0.3726068613    -0.7020496621    -0.1128318509
    2      C      -0.9703195389    -0.2460562131    -0.0331607980
    3      C       1.4745229904     0.3519957186    -0.3515379913
    4      C      -1.2616683493     1.2609340466    -0.1946339638
    5      O       2.5245129563     0.1778657956     0.6065871064
    6      O       1.4692611076     1.2504905473    -1.2255128023
    7      O      -0.5126640029     1.9762196846     0.7990140614
    8      O      -2.0318698065     1.8051790873    -1.0172090838
    9      C      -0.7035510372     3.4344693146     0.6209069161
   10      C       3.5755279581     1.1997676969     0.3901740921
   11      C       0.6692905878    -2.0905934877    -0.0187261842
   12      C      -0.4044978000    -2.9914449846     0.1620976264
   13      C      -1.7343165292    -2.5385614693     0.2387210094
   14      C      -2.0429164603    -1.1640477370     0.1352790261
   15      H      -0.3683220072     3.7656551152    -0.3831882096
   16      H       4.0394026580     1.1021782868    -0.6127022315
   17      H      -2.5479589361    -3.2637931392     0.3757351335
   18      H      -1.7654692101     3.7266621412     0.7531698803
   19      H      -0.0862547605     3.9202011947     1.3985586961
   20      H       4.3380130267     1.0218362245     1.1703348802
   21      H       3.1707909475     2.2273139100     0.4915266215
   22      H      -0.1945202367    -4.0671899295     0.2350619631
   23      C      -3.5024135751    -0.6799828232     0.1914425105
   24      C       2.1110477094    -2.6204784408    -0.1113811449
   25      H       2.6644223250    -2.1202597943    -0.9215404804
   26      H       2.1071241250    -3.7039859364    -0.3022326544
   27      H       2.6533274712    -2.4324364940     0.8306869156
   28      H      -3.8190419535    -0.3003392303    -0.7948746807
   29      H      -3.6181080045     0.1406197911     0.9176733411
   30      H      -4.1697648265    -1.5045880924     0.4816979185
 ----------------------------------------------------------------
 Molecular Point Group                 C1    NOp =  1
 Largest Abelian Subgroup              C1    NOp =  1
 Nuclear Repulsion Energy =  1118.6030607712 hartrees
 There are       59 alpha and       59 beta electrons
 Applying Cartesian multipole field
    Component          Value
    ---------          -----
     (2,0,0)        1.00000E-11
     (0,2,0)        2.00000E-11
     (0,0,2)       -3.00000E-10
 Nucleus-field energy     =     0.0000000037 hartrees
 Requested basis set is STO-3G
 There are 46 shells and 94 basis functions
 A cutoff of  1.0D-12 yielded    916 shell pairs
 There are      4297 function pairs
 Smallest overlap matrix eigenvalue = 1.83E-01
 Guess MOs from SCF MO coefficient file
 Reading MOs from coefficient file
 Reading MOs from coefficient file
 A restricted hybrid HF-DFT SCF calculation will be
 performed using Pulay DIIS extrapolation
 Exchange:     0.2000 Hartree-Fock + 0.0800 Slater + 0.7200 B88
 Correlation:  0.1900 VWN1RPA + 0.8100 LYP
 Using SG-1 standard quadrature grid
 Dispersion:   Grimme D3
 SCF converges when DIIS error is below 1.0E-08
 Geometry optimization detected.  Setting ReadMinima to 0
 Setting SaveMinima to 0
 -------------------------------------------------------
 OpenMP Integral computing Module                
 Release: version 1.0, May 2013, Q-Chem Inc. Pittsburgh 
 -------------------------------------------------------
 -------------------------------------------------------
 OpenMP BLAS3 based DFT computing Module                
 Release: version 1.0, May 2013, Q-Chem Inc. Pittsburgh 
 -------------------------------------------------------
 ---------------------------------------
  Cycle       Energy         DIIS Error
 ---------------------------------------
    1    -756.8085458737      2.67E-04
    2    -756.8079265290      2.09E-05
    3    -756.8079266194      2.47E-05
    4    -756.8079272743      1.42E-05
    5    -756.8079275168      2.91E-06
    6    -756.8079275251      1.49E-06
    7    -756.8079275280      3.70E-07
    8    -756.8079275281      2.16E-07
    9    -756.8079275282      5.14E-08
   10    -756.8079275282      1.37E-08
   11    -756.8079275282      3.36E-09 Convergence criterion met
 ---------------------------------------
 SCF time:  CPU 61.58 s  wall 2.63 s
 SCF   energy in the final basis set = -756.8079275282
 Total energy in the final basis set = -756.8079275282
 
 --------------------------------------------------------------
 
                    Orbital Energies (a.u.)
 --------------------------------------------------------------
 
 Alpha MOs
 -- Occupied --
-18.936 -18.932 -18.875 -18.873 -10.102 -10.101 -10.065 -10.061
-10.024 -10.024 -10.023 -10.022 -10.018 -10.018 -10.010 -10.009
 -1.012  -1.006  -0.935  -0.933  -0.815  -0.745  -0.719  -0.681
 -0.668  -0.657  -0.621  -0.585  -0.556  -0.494  -0.489  -0.447
 -0.442  -0.432  -0.411  -0.409  -0.407  -0.390  -0.382  -0.376
 -0.370  -0.368  -0.356  -0.347  -0.346  -0.338  -0.316  -0.311
 -0.306  -0.291  -0.284  -0.254  -0.253  -0.195  -0.183  -0.178
 -0.173  -0.154  -0.150
 -- Virtual --
  0.055   0.069   0.115   0.126   0.230   0.249   0.274   0.314
  0.338   0.346   0.369   0.380   0.399   0.415   0.422   0.426
  0.431   0.432   0.434   0.438   0.442   0.445   0.454   0.457
  0.464   0.476   0.481   0.547   0.560   0.575   0.601   0.649
  0.651   0.756   0.769
 --------------------------------------------------------------
 
          Ground-State Mulliken Net Atomic Charges

     Atom                 Charge (a.u.)
  ----------------------------------------
      1 C                    -0.018324
      2 C                    -0.017813
      3 C                     0.210082
      4 C                     0.210573
      5 O                    -0.164669
      6 O                    -0.212354
      7 O                    -0.167789
      8 O                    -0.206507
      9 C                    -0.129117
     10 C                    -0.128245
     11 C                     0.009111
     12 C                    -0.078869
     13 C                    -0.078816
     14 C                     0.008939
     15 H                     0.092663
     16 H                     0.088139
     17 H                     0.079845
     18 H                     0.088147
     19 H                     0.089252
     20 H                     0.090542
     21 H                     0.090077
     22 H                     0.079430
     23 C                    -0.224395
     24 C                    -0.222742
     25 H                     0.083138
     26 H                     0.080199
     27 H                     0.091816
     28 H                     0.093093
     29 H                     0.084024
     30 H                     0.080570
  ----------------------------------------
  Sum of atomic charges =     0.000000

 -----------------------------------------------------------------
                    Cartesian Multipole Moments
 -----------------------------------------------------------------
    Charge (ESU x 10^10)
                -0.0000
    Dipole Moment (Debye)
         X       0.9756      Y      -0.4510      Z       1.3142
       Tot       1.6977
    Quadrupole Moments (Debye-Ang)
        XX     -77.9313     XY       2.7558     YY     -77.1928
        XZ      -2.0608     YZ       4.0597     ZZ     -90.3145
    Octopole Moments (Debye-Ang^2)
       XXX      28.7703    XXY       6.8037    XYY       4.1040
       YYY      33.1285    XXZ       5.7485    XYZ      -0.1841
       YYZ       8.9816    XZZ       6.0995    YZZ       8.6756
       ZZZ      -7.7265
    Hexadecapole Moments (Debye-Ang^3)
      XXXX   -2008.5294   XXXY      27.2337   XXYY    -669.6111
      XYYY     -34.9930   YYYY   -1837.2988   XXXZ      -7.0532
      XXYZ      14.3675   XYYZ     -10.1923   YYYZ      11.4533
      XXZZ    -395.1408   XYZZ     -12.4656   YYZZ    -382.6276
      XZZZ       1.6874   YZZZ      -4.1544   ZZZZ    -224.5000
 -----------------------------------------------------------------
 Calculating analytic gradient of the SCF energy
 Gradient of SCF Energy
            1           2           3           4           5           6
    1  -0.0003340  -0.0001297   0.0006147   0.0012216  -0.0005151   0.0000105
    2  -0.0003182   0.0002486  -0.0006165   0.0000344   0.0003081   0.0001255
    3  -0.0024061   0.0030329  -0.0001682  -0.0017112   0.0005426  -0.0002024
            7           8           9          10          11          12
    1  -0.0011231   0.0000849   0.0000939   0.0003758  -0.0000917  -0.0001235
    2  -0.0003212   0.0001123   0.0004848   0.0002176  -0.0001472   0.0000280
    3   0.0010549  -0.0001931   0.0001061   0.0000519  -0.0003399   0.0002561
           13          14          15          16          17          18
    1   0.0001223   0.0000416  -0.0000926  -0.0000235  -0.0000157  -0.0000080
    2  -0.0000895   0.0000195  -0.0000325   0.0000003   0.0000026   0.0000004
    3  -0.0002020   0.0003513  -0.0000633  -0.0000427  -0.0000118   0.0000432
           19          20          21          22          23          24
    1   0.0000185  -0.0000621  -0.0000260   0.0000033  -0.0001824   0.0001009
    2  -0.0000449  -0.0000209   0.0000075   0.0000023  -0.0000916  -0.0000979
    3  -0.0000776  -0.0000463  -0.0000385   0.0000660   0.0000610  -0.0000775
           25          26          27          28          29          30
    1   0.0000301   0.0000366  -0.0000457  -0.0000378   0.0000328   0.0000232
    2   0.0001274   0.0000616  -0.0001349  -0.0000822   0.0001130   0.0001036
    3   0.0001628  -0.0001297   0.0000547  -0.0000306  -0.0001435   0.0001008
 Max gradient component =       3.033E-03
 RMS gradient           =       5.256E-04
 Gradient time:  CPU 17.92 s  wall 0.78 s
 Geometry Optimization Parameters
   NAtoms,    NIC,     NZ,  NCons,   NDum,   NFix, NCnnct, MaxDiis
       30     194       0       2       0       0       0       0

 Cartesian Hessian Update
 Hessian Updated using BFGS Update


** CONSTRAINED OPTIMIZATION IN DELOCALIZED INTERNAL COORDINATES **
   Searching for a Minimum

   Optimization Cycle:   5

                       Coordinates (Angstroms)
     ATOM                X               Y               Z
      1  C         0.3726068613   -0.7020496621   -0.1128318509
      2  C        -0.9703195389   -0.2460562131   -0.0331607980
      3  C         1.4745229904    0.3519957186   -0.3515379913
      4  C        -1.2616683493    1.2609340466   -0.1946339638
      5  O         2.5245129563    0.1778657956    0.6065871064
      6  O         1.4692611076    1.2504905473   -1.2255128023
      7  O        -0.5126640029    1.9762196846    0.7990140614
      8  O        -2.0318698065    1.8051790873   -1.0172090838
      9  C        -0.7035510372    3.4344693146    0.6209069161
     10  C         3.5755279581    1.1997676969    0.3901740921
     11  C         0.6692905878   -2.0905934877   -0.0187261842
     12  C        -0.4044978000   -2.9914449846    0.1620976264
     13  C        -1.7343165292   -2.5385614693    0.2387210094
     14  C        -2.0429164603   -1.1640477370    0.1352790261
     15  H        -0.3683220072    3.7656551152   -0.3831882096
     16  H         4.0394026580    1.1021782868   -0.6127022315
     17  H        -2.5479589361   -3.2637931392    0.3757351335
     18  H        -1.7654692101    3.7266621412    0.7531698803
     19  H        -0.0862547605    3.9202011947    1.3985586961
     20  H         4.3380130267    1.0218362245    1.1703348802
     21  H         3.1707909475    2.2273139100    0.4915266215
     22  H        -0.1945202367   -4.0671899295    0.2350619631
     23  C        -3.5024135751   -0.6799828232    0.1914425105
     24  C         2.1110477094   -2.6204784408   -0.1113811449
     25  H         2.6644223250   -2.1202597943   -0.9215404804
     26  H         2.1071241250   -3.7039859364   -0.3022326544
     27  H         2.6533274712   -2.4324364940    0.8306869156
     28  H        -3.8190419535   -0.3003392303   -0.7948746807
     29  H        -3.6181080045    0.1406197911    0.9176733411
     30  H        -4.1697648265   -1.5045880924    0.4816979185
   Point Group: c1    Number of degrees of freedom:    84


   Energy is   -756.807927528

              Constraints and their Current Values
                                        Value     Constraint
   Dihedral:        2   1   3   5      130.200      130.200
   Dihedral:        1   2   4   7      -57.300      -57.300
 Hessian Updated using BFGS Update

 72 Hessian modes will be used to form the next step
  Hessian Eigenvalues:
     0.023862    0.043409    0.045000    0.045000    0.045000    0.045001
     0.045002    0.045003    0.045003    0.045005    0.045008    0.045013
     0.045084    0.045175    0.045888    0.092105    0.093889    0.094238
     0.094410    0.113844    0.114881    0.116853    0.116879    0.159351
     0.159817    0.159983    0.159999    0.160769    0.163464    0.165074
     0.224388    0.236239    0.244708    0.247301    0.249366    0.249593
[...]
 H         -0.005  0.005 -0.000   -0.003 -0.007  0.006    0.008 -0.065  0.014
 H         -0.004 -0.002  0.005    0.000 -0.007 -0.001    0.183  0.121 -0.080
 H         -0.011  0.001  0.005   -0.010 -0.002 -0.003    0.136 -0.019  0.054
 H         -0.344  0.156  0.024   -0.457 -0.086  0.056    0.009 -0.000 -0.000
 C         -0.002 -0.026  0.003   -0.030  0.007  0.004    0.001 -0.004  0.001
 C          0.022  0.014 -0.003    0.023 -0.021 -0.002   -0.003 -0.001  0.000
 H          0.194 -0.038  0.101    0.047  0.004  0.025    0.017 -0.008  0.010
 H         -0.246  0.082 -0.024    0.005 -0.016  0.014   -0.010  0.008 -0.023
 H          0.149  0.064 -0.095    0.051 -0.013 -0.029    0.006  0.040 -0.006
 H          0.020 -0.177 -0.067   -0.018  0.052  0.024    0.015  0.012  0.002
 H          0.131 -0.134  0.121   -0.008  0.043 -0.042    0.003  0.006 -0.011
 H         -0.188  0.174 -0.036   -0.015 -0.010 -0.010    0.005 -0.004  0.004
 TransDip  -0.074  0.085 -0.007   -0.047 -0.005 -0.013   -0.130 -0.217  0.309

 Mode:                70                     71                     72
 Frequency:      1781.18                3037.06                3041.04
 Force Cnst:     21.8963                 5.6331                 5.6426
 Red. Mass:      11.7140                 1.0365                 1.0356
 IR Active:          YES                    YES                    YES
 IR Intens:      363.793                 25.405                 22.578
 Raman Active:       YES                    YES                    YES
               X      Y      Z        X      Y      Z        X      Y      Z
 C         -0.031 -0.023  0.013   -0.000  0.001 -0.000   -0.000  0.000 -0.000
 C          0.051 -0.075  0.015    0.000 -0.000  0.000    0.001  0.000 -0.000
 C          0.052  0.122 -0.153    0.000 -0.000  0.000    0.000  0.000  0.000
 C         -0.438  0.456 -0.415    0.000  0.000  0.000   -0.000  0.000 -0.000
 O         -0.000 -0.007  0.011   -0.000  0.000 -0.000   -0.000 -0.000 -0.000
 O         -0.023 -0.077  0.102   -0.000 -0.000  0.000   -0.000 -0.000  0.000
 O          0.032 -0.018  0.029   -0.000 -0.000 -0.000   -0.000 -0.000  0.000
 O          0.288 -0.271  0.281    0.000 -0.000  0.000    0.000 -0.000  0.000
 C         -0.002  0.030 -0.007   -0.000 -0.000  0.000    0.000 -0.000  0.000
 C          0.007  0.004 -0.003   -0.000  0.000  0.000   -0.000 -0.000  0.000
 C          0.008  0.014 -0.004   -0.001  0.000 -0.000    0.000 -0.000 -0.000
 C         -0.014  0.003  0.001   -0.001  0.001 -0.000   -0.000  0.000 -0.000
 C          0.018 -0.012 -0.002    0.000  0.000  0.000    0.001 -0.000 -0.000
 C         -0.032  0.019 -0.003   -0.000 -0.000  0.000    0.000 -0.001  0.000
 H         -0.056 -0.103 -0.075    0.001  0.001 -0.004    0.002  0.001 -0.006
 H         -0.032 -0.003 -0.025    0.000 -0.000 -0.000    0.002 -0.002 -0.005
 H         -0.019  0.043 -0.001    0.000 -0.000 -0.000   -0.013 -0.006  0.002
 H         -0.102 -0.090 -0.050   -0.003  0.002  0.001   -0.006  0.003  0.001
 H          0.011 -0.216  0.054    0.002  0.001  0.002    0.003  0.001  0.003
 H         -0.048 -0.031  0.022   -0.000  0.000 -0.000    0.002 -0.001  0.003
 H         -0.032  0.005 -0.015    0.000 -0.002  0.000   -0.001  0.006  0.000
 H          0.010  0.003  0.000    0.000 -0.012  0.000   -0.000  0.000  0.000
 C         -0.004 -0.009  0.004    0.000 -0.000 -0.000   -0.042  0.026  0.007
 C          0.001 -0.001 -0.000    0.045 -0.020 -0.013    0.000 -0.000 -0.000
 H         -0.012  0.004 -0.009   -0.372 -0.196  0.537   -0.004 -0.002  0.006
 H          0.010 -0.006  0.006    0.130  0.486  0.052    0.001  0.004  0.000
 H         -0.008 -0.011  0.007   -0.286 -0.056 -0.437   -0.003 -0.001 -0.005
 H          0.080  0.055 -0.001   -0.001  0.002 -0.004    0.119 -0.198  0.484
 H          0.025  0.041 -0.046    0.000  0.005  0.004   -0.035 -0.471 -0.400
 H          0.047 -0.047  0.022   -0.005 -0.004  0.002    0.409  0.363 -0.164
 TransDip  -0.325  0.325 -0.403    0.120 -0.103 -0.031   -0.143  0.030  0.042

 Mode:                73                     74                     75
 Frequency:      3049.96                3050.73                3093.35
 Force Cnst:      5.6429                 5.6441                 6.1987
 Red. Mass:       1.0296                 1.0293                 1.0995
 IR Active:          YES                    YES                    YES
 IR Intens:       27.501                 40.672                 12.554
 Raman Active:       YES                    YES                    YES
               X      Y      Z        X      Y      Z        X      Y      Z
 C         -0.000  0.000 -0.000    0.000 -0.000  0.000    0.000 -0.000  0.000
 C          0.000 -0.000  0.000    0.000  0.000  0.000    0.000 -0.000 -0.000
 C          0.002 -0.001  0.002   -0.000  0.000 -0.000   -0.000 -0.000 -0.000
 C         -0.000 -0.000 -0.000   -0.002 -0.001 -0.002    0.000  0.000 -0.000
 O         -0.003 -0.001 -0.000    0.000  0.000  0.000   -0.000 -0.000  0.000
 O          0.000  0.001 -0.001   -0.000 -0.000  0.000   -0.000 -0.000  0.000
 O          0.000  0.001  0.000    0.001  0.002  0.000   -0.000  0.000  0.000
 O          0.000 -0.000  0.000    0.001 -0.000  0.001   -0.000 -0.000  0.000
 C          0.000  0.008 -0.003    0.001  0.040 -0.015   -0.000 -0.000  0.000
 C         -0.033 -0.023  0.017    0.007  0.005 -0.004   -0.000  0.000  0.000
 C          0.000  0.000 -0.000    0.000 -0.000  0.000    0.000  0.001 -0.001
 C          0.000 -0.000  0.000   -0.000  0.000 -0.000    0.000 -0.001 -0.000
 C         -0.000  0.000  0.000    0.000  0.000 -0.000   -0.000  0.000 -0.000
 C         -0.000 -0.000  0.000   -0.000  0.000 -0.000   -0.000 -0.000  0.000
 H         -0.048 -0.024  0.124   -0.225 -0.115  0.587    0.000  0.000 -0.001
 H          0.239 -0.188 -0.548   -0.051  0.040  0.117    0.000 -0.000 -0.001
 H          0.000  0.000 -0.000   -0.001 -0.000  0.000   -0.002 -0.001  0.000
 H          0.107 -0.061 -0.020    0.508 -0.289 -0.096    0.000 -0.000 -0.000
 H         -0.064 -0.021 -0.066   -0.300 -0.101 -0.308    0.000  0.000  0.000
 H          0.242 -0.136  0.329   -0.051  0.029 -0.070    0.000  0.000  0.000
 H         -0.068  0.609  0.015    0.014 -0.128 -0.003    0.000 -0.003  0.000
 H         -0.000  0.000  0.000    0.000 -0.001  0.000   -0.001  0.013 -0.001
 C          0.000 -0.000 -0.000   -0.000  0.000  0.000    0.000  0.000  0.001
 C         -0.000 -0.001 -0.000    0.000  0.000 -0.000    0.007  0.032 -0.085
 H         -0.001 -0.000  0.001   -0.002 -0.001  0.003   -0.395 -0.196  0.538
 H          0.001  0.006  0.000    0.000  0.001  0.000   -0.066 -0.259 -0.048
 H          0.001  0.001  0.002   -0.002 -0.000 -0.003    0.381  0.078  0.532
 H         -0.001  0.001 -0.004    0.002 -0.003  0.006   -0.002  0.003 -0.007
 H          0.000  0.003  0.003   -0.000 -0.006 -0.005   -0.000 -0.005 -0.004
 H         -0.003 -0.003  0.001    0.004  0.004 -0.002   -0.001 -0.001  0.000
 TransDip  -0.166 -0.025  0.002    0.078  0.188  0.015    0.012  0.063 -0.094

 Mode:                76                     77                     78
 Frequency:      3098.74                3110.08                3110.95
 Force Cnst:      6.2233                 6.2820                 6.2890
 Red. Mass:       1.1000                 1.1023                 1.1029
 IR Active:          YES                    YES                    YES
 IR Intens:       10.859                 16.344                 15.193
 Raman Active:       YES                    YES                    YES
               X      Y      Z        X      Y      Z        X      Y      Z
 C          0.000 -0.000 -0.000   -0.000 -0.000 -0.000    0.000 -0.000  0.000
 C          0.000 -0.000  0.000   -0.000  0.000 -0.000    0.000 -0.000  0.000
 C         -0.000 -0.000  0.000   -0.000  0.000 -0.000   -0.000 -0.000  0.000
 C          0.000  0.000 -0.000   -0.000 -0.000 -0.000    0.001 -0.000  0.000
 O          0.000  0.000  0.000    0.000 -0.000  0.000   -0.000  0.000 -0.000
 O         -0.000  0.000 -0.000    0.000 -0.000  0.000   -0.000  0.000 -0.000
 O          0.000  0.000 -0.000    0.000  0.000  0.000   -0.000 -0.000 -0.000
 O          0.000  0.000  0.000    0.000 -0.000  0.000   -0.000  0.000 -0.000
 C         -0.000  0.000  0.000    0.000 -0.000 -0.000   -0.000  0.000 -0.000
 C         -0.000  0.000  0.000    0.001 -0.001 -0.001   -0.000  0.000  0.000
 C          0.000  0.000 -0.000   -0.001 -0.001 -0.000    0.000  0.000 -0.000
 C         -0.000 -0.000  0.000    0.000  0.004 -0.000   -0.000 -0.000  0.000
 C          0.001  0.000 -0.000   -0.000 -0.000  0.000    0.003  0.002 -0.000
 C         -0.001 -0.000 -0.000    0.000  0.000 -0.000    0.000 -0.001  0.000
 H          0.001  0.001 -0.002   -0.001 -0.000  0.002   -0.000 -0.000  0.001
 H          0.000 -0.000 -0.001   -0.005  0.004  0.012    0.000 -0.000 -0.001
 H         -0.009 -0.004  0.001    0.007  0.004 -0.001   -0.034 -0.017  0.005
 H          0.004 -0.002 -0.001   -0.002  0.001  0.000    0.002 -0.001 -0.000
 H          0.000  0.000  0.000   -0.000 -0.000 -0.000    0.001  0.000  0.001
 H          0.000 -0.000  0.000   -0.001  0.000 -0.002    0.000 -0.000  0.000
 H          0.000 -0.001 -0.000   -0.001  0.005 -0.000    0.000 -0.002 -0.000
 H          0.000  0.003 -0.000    0.001 -0.042  0.002    0.000  0.008 -0.000
 C         -0.028 -0.039 -0.078   -0.000  0.000 -0.000   -0.036 -0.071  0.047
 C          0.000  0.001 -0.001   -0.048 -0.073 -0.031   -0.000 -0.000  0.000
 H         -0.004 -0.002  0.006    0.095  0.039 -0.160    0.001  0.000 -0.001
 H         -0.001 -0.005 -0.001    0.196  0.787  0.085    0.001  0.004  0.000
 H          0.003  0.001  0.004    0.296  0.040  0.445   -0.000 -0.000 -0.000
 H          0.141 -0.254  0.548    0.001 -0.002  0.004   -0.144  0.205 -0.511
 H          0.029  0.575  0.471    0.000  0.001  0.001    0.004  0.163  0.164
 H          0.164  0.140 -0.083   -0.001 -0.001  0.000    0.568  0.490 -0.223
 TransDip  -0.037 -0.065 -0.074   -0.051 -0.114 -0.033   -0.087 -0.080  0.040

 Mode:                79                     80                     81
 Frequency:      3122.85                3126.32                3156.92
 Force Cnst:      6.3606                 6.3754                 6.4972
 Red. Mass:       1.1070                 1.1071                 1.1065
 IR Active:          YES                    YES                    YES
 IR Intens:       17.659                 13.671                 13.089
 Raman Active:       YES                    YES                    YES
               X      Y      Z        X      Y      Z        X      Y      Z
 C          0.000 -0.000 -0.000   -0.000 -0.000  0.000    0.000 -0.000 -0.000
 C          0.000  0.000  0.000    0.000 -0.000 -0.000    0.000 -0.000  0.000
 C         -0.000  0.000  0.000    0.000  0.000 -0.000   -0.000  0.000 -0.000
 C         -0.000 -0.000 -0.000    0.000  0.000  0.000   -0.000  0.001 -0.000
 O         -0.000  0.000  0.000    0.000 -0.000  0.000    0.000  0.000  0.000
 O         -0.000  0.000  0.000   -0.000 -0.000  0.000    0.000 -0.000  0.000
 O          0.000  0.000  0.000   -0.000 -0.000  0.000    0.000 -0.000  0.000
 O          0.000  0.000  0.000   -0.000  0.000  0.000    0.000 -0.000  0.000
 C          0.002 -0.001 -0.002    0.067 -0.019 -0.064   -0.066  0.001 -0.068
 C          0.028 -0.075 -0.051   -0.001  0.002  0.002   -0.000 -0.000 -0.001
 C         -0.000 -0.000  0.000    0.000  0.000  0.000   -0.000 -0.000  0.000
 C          0.000 -0.000  0.000   -0.000 -0.000  0.000    0.000  0.000  0.000
 C         -0.000  0.000 -0.000    0.000 -0.000  0.000   -0.000 -0.000  0.000
 C         -0.000 -0.000  0.000   -0.000  0.000  0.000   -0.000  0.000  0.000
 H         -0.006 -0.004  0.018   -0.228 -0.129  0.639   -0.116 -0.050  0.257
 H         -0.260  0.193  0.617    0.008 -0.006 -0.020   -0.002  0.002  0.005
 H          0.000  0.000 -0.000   -0.000 -0.000  0.000    0.002  0.001 -0.000
 H         -0.021  0.012  0.003   -0.615  0.350  0.098    0.286 -0.166 -0.069
 H         -0.001 -0.000 -0.002    0.047  0.008  0.023    0.606  0.202  0.622
 H          0.008 -0.016 -0.007   -0.002  0.001 -0.002    0.004 -0.002  0.005
 H         -0.078  0.706 -0.002    0.002 -0.021  0.000    0.000  0.001 -0.000
 H         -0.000  0.001 -0.000   -0.000  0.001 -0.000   -0.000 -0.000  0.000
 C         -0.000 -0.000  0.000   -0.000 -0.000 -0.000    0.000  0.000 -0.000
 C          0.001  0.001  0.000    0.000  0.000  0.000   -0.000 -0.000 -0.000
 H         -0.003 -0.001  0.005   -0.001 -0.000  0.001    0.000  0.000 -0.000
 H         -0.003 -0.010 -0.001   -0.001 -0.002 -0.000    0.000  0.000  0.000
 H         -0.003 -0.000 -0.006   -0.000 -0.000 -0.001    0.000  0.000  0.000
 H         -0.000  0.000 -0.001    0.000 -0.001  0.002    0.000 -0.000  0.001
 H          0.000  0.001  0.001    0.000  0.003  0.003    0.000 -0.001 -0.001
 H          0.001  0.001 -0.000    0.001  0.001 -0.000   -0.001 -0.001  0.001
 TransDip   0.040 -0.105 -0.074    0.076 -0.039 -0.082   -0.083 -0.023 -0.078

 Mode:                82                     83                     84
 Frequency:      3158.01                3161.05                3178.21
 Force Cnst:      6.5002                 6.4001                 6.5137
 Red. Mass:       1.1062                 1.0871                 1.0945
 IR Active:          YES                    YES                    YES
 IR Intens:       12.634                  8.195                 20.190
 Raman Active:       YES                    YES                    YES
               X      Y      Z        X      Y      Z        X      Y      Z
 C         -0.000 -0.000  0.000   -0.000  0.001 -0.000   -0.000  0.001 -0.000
 C          0.000 -0.000  0.000   -0.000  0.000  0.000    0.001  0.000 -0.000
 C          0.001  0.001 -0.001    0.000  0.000  0.000    0.000  0.000 -0.000
 C          0.000 -0.000  0.000    0.000 -0.000  0.000   -0.000  0.000 -0.000
 O          0.000 -0.000  0.000   -0.000  0.000 -0.000   -0.000 -0.000 -0.000
 O         -0.000 -0.000  0.000   -0.000 -0.000  0.000   -0.000 -0.000  0.000
 O         -0.000  0.000  0.000    0.000  0.000  0.000   -0.000 -0.000 -0.000
 O         -0.000  0.000 -0.000   -0.000  0.000 -0.000    0.000 -0.000  0.000
 C          0.001 -0.000  0.000   -0.000 -0.000 -0.000    0.000  0.000  0.000
 C         -0.035  0.040 -0.078    0.000 -0.000  0.001    0.000 -0.000  0.000
 C         -0.000  0.000 -0.000    0.002 -0.000 -0.000    0.003  0.001 -0.000
 C         -0.000 -0.001  0.000   -0.004 -0.064  0.004    0.000 -0.058  0.003
 C          0.000  0.000 -0.000    0.046  0.028 -0.007   -0.059 -0.031  0.008
 C          0.000 -0.000 -0.000    0.001 -0.001 -0.000   -0.001  0.003 -0.000
 H          0.000 -0.000  0.000   -0.000  0.000 -0.000   -0.000 -0.000  0.000
 H         -0.122  0.102  0.258    0.001 -0.001 -0.002    0.000 -0.000 -0.000
 H         -0.005 -0.003  0.001   -0.558 -0.316  0.081    0.657  0.365 -0.095
 H         -0.004  0.002  0.001    0.001 -0.000 -0.000    0.000 -0.000 -0.000
 H         -0.004 -0.002 -0.005    0.001  0.000  0.001   -0.001 -0.000 -0.001
 H          0.505 -0.283  0.687   -0.005  0.003 -0.007   -0.001  0.001 -0.002
 H          0.031 -0.300 -0.022   -0.000  0.003  0.000   -0.000 -0.000  0.000
 H          0.000  0.009 -0.001    0.025  0.755 -0.045    0.016  0.644 -0.038
 C          0.000  0.000 -0.000    0.002  0.002 -0.001   -0.002 -0.002  0.001
 C          0.000  0.000  0.000   -0.001 -0.003 -0.000   -0.001 -0.002 -0.000
 H          0.000  0.000 -0.000    0.004  0.003 -0.007    0.001  0.002 -0.002
 H         -0.000 -0.000  0.000    0.007  0.038  0.004    0.004  0.023  0.003
 H         -0.001 -0.000 -0.000    0.004  0.001  0.007    0.000  0.001  0.002
 H          0.000 -0.000  0.000    0.002 -0.002  0.007   -0.000  0.001 -0.004
 H          0.000 -0.000 -0.000   -0.001 -0.006 -0.005    0.001  0.002  0.002
 H         -0.001 -0.000  0.000   -0.024 -0.018  0.009    0.021  0.016 -0.008
 TransDip  -0.063  0.037 -0.087    0.072 -0.057 -0.004   -0.080 -0.119  0.015

 STANDARD THERMODYNAMIC QUANTITIES AT   298.15 K  AND     1.00 ATM

   This Molecule has  0 Imaginary Frequencies
   Zero point vibrational energy:      150.547 kcal/mol

   Atom    1 Element C  Has Mass   12.00000
   Atom    2 Element C  Has Mass   12.00000
   Atom    3 Element C  Has Mass   12.00000
   Atom    4 Element C  Has Mass   12.00000
   Atom    5 Element O  Has Mass   15.99491
   Atom    6 Element O  Has Mass   15.99491
   Atom    7 Element O  Has Mass   15.99491
   Atom    8 Element O  Has Mass   15.99491
   Atom    9 Element C  Has Mass   12.00000
   Atom   10 Element C  Has Mass   12.00000
   Atom   11 Element C  Has Mass   12.00000
   Atom   12 Element C  Has Mass   12.00000
   Atom   13 Element C  Has Mass   12.00000
   Atom   14 Element C  Has Mass   12.00000
   Atom   15 Element H  Has Mass    1.00783
   Atom   16 Element H  Has Mass    1.00783
   Atom   17 Element H  Has Mass    1.00783
   Atom   18 Element H  Has Mass    1.00783
   Atom   19 Element H  Has Mass    1.00783
   Atom   20 Element H  Has Mass    1.00783
   Atom   21 Element H  Has Mass    1.00783
   Atom   22 Element H  Has Mass    1.00783
   Atom   23 Element C  Has Mass   12.00000
   Atom   24 Element C  Has Mass   12.00000
   Atom   25 Element H  Has Mass    1.00783
   Atom   26 Element H  Has Mass    1.00783
   Atom   27 Element H  Has Mass    1.00783
   Atom   28 Element H  Has Mass    1.00783
   Atom   29 Element H  Has Mass    1.00783
   Atom   30 Element H  Has Mass    1.00783
   Molecular Mass:   222.089260 amu
   Principal axes and moments of inertia in amu*Bohr^2:
                             1           2           3
    Eigenvalues --     2864.91043  3197.06741  5575.04360
          X               0.99994     0.01119     0.00006
          Y              -0.01119     0.99990     0.00868
          Z               0.00003    -0.00868     0.99996
   Rotational Symmetry Number is   1
   The Molecule is an Asymmetric Top
   Translational Enthalpy:        0.889 kcal/mol
   Rotational Enthalpy:           0.889 kcal/mol
   Vibrational Enthalpy:        159.368 kcal/mol
   gas constant (RT):             0.592 kcal/mol
   Translational Entropy:        42.096  cal/mol.K
   Rotational Entropy:           32.301  cal/mol.K
   Vibrational Entropy:          58.350  cal/mol.K

   Total Enthalpy:              161.738 kcal/mol
   Total Entropy:               132.747  cal/mol.K
Archival summary:
1\1\nid03056\FREQ\ProcedureUnspecified\BasisUnspecified\41214\junteng\WedOct421:24:172017WedOct421:24:172017\0\\#,FREQ,ProcedureUnspecified,BasisUnspecified,\\0,1\O\C,1,1.34981\O,2,1.20659,1,123.661\C,1,1.43901,2,115.853,3,-8.39945,0\H,4,1.08773,1,105.421,2,177.919,0\H,4,1.09057,1,110.628,2,58.1857,0\H,4,1.09124,1,109.772,2,-62.8169,0\C,2,1.49687,1,111.327,3,-178.64,0\C,8,1.4069,2,118.961,1,131.821,0\C,9,1.39576,8,117.524,2,-179.817,0\H,10,1.08492,9,119.079,8,179.293,0\C,10,1.38865,9,121.548,8,-1.15231,0\H,12,1.08502,10,119.326,9,-178.634,0\C,12,1.39599,10,121.591,9,0.920046,0\C,14,1.40527,12,117.562,10,0.185528,0\C,15,1.50017,14,119.886,12,-175.615,0\O,16,1.2079,15,124.433,14,120.306,0\O,16,1.34564,15,111.858,14,-58.359,0\C,18,1.43959,16,115.835,15,178.272,0\H,19,1.0876,18,105.414,16,-179.128,0\H,19,1.09092,18,110.272,16,61.402,0\H,19,1.09111,18,110.467,16,-59.4213,0\C,9,1.51003,8,122.873,2,-0.147194,0\H,23,1.09163,9,110.205,8,-169.184,0\H,23,1.09204,9,111.022,8,70.4359,0\H,23,1.09259,9,111.997,8,-48.7164,0\C,14,1.51091,12,119.58,10,-178.715,0\H,27,1.09145,14,110.278,12,10.9359,0\H,27,1.09217,14,111.202,12,-109.315,0\H,27,1.09331,14,111.831,12,130.805,0\\\@

 Total job time:  8323.55s(wall), 47208.02s(cpu) 
 Wed Oct  4 21:24:17 2017

        *************************************************************
        *                                                           *
        *  Thank you very much for using Q-Chem.  Have a nice day.  *
        *                                                           *
        *************************************************************


