nid05255 10.128.20
Q-Chem Developer Version! Running on 10.128.20.*
                  Welcome to Q-Chem
     A Quantum Leap Into The Future Of Chemistry


 Q-Chem 5.0, Q-Chem, Inc., Pleasanton, CA (2017)

 Yihan Shao,  Zhengting Gan,  E. Epifanovsky,  A. T. B. Gilbert,  M. Wormit,  
 J. Kussmann,  A. W. Lange,  A. Behn,  Jia Deng,  Xintian Feng,  D. Ghosh,  
 M. Goldey,  P. R. Horn,  L. D. Jacobson,  I. Kaliman,  T. Kus,  A. Landau,  
 Jie Liu,  E. I. Proynov,  R. M. Richard,  R. P. Steele,  E. J. Sundstrom,  
 H. L. Woodcock III,  P. M. Zimmerman,  D. Zuev,  B. Albrecht,  E. Alguire,  
 S. A. Baeppler,  Z. Benda,  Y. A. Bernard,  E. J. Berquist,  K. B. Bravaya,  
 D. Casanova,  Chun-Min Chang,  Yunqing Chen,  A. Chien,  K. D. Closser,  
 M. P. Coons,  S. Dasgupta,  M. Diedenhofen,  Hainam Do,  R. G. Edgar,  
 Po-Tung Fang,  S. Fatehi,  Qingguo Feng,  Qinghui Ge,  A. Ghysels,  
 J. Gomes,  J. Gonthier,  A. Gunina,  M. W. D. Hanson-Heine,  
 P. H. P. Harbach,  A. W. Hauser,  J. E. Herr,  E. G. Hohenstein,  
 Z. C. Holden,  Kerwin Hui,  T.-C. Jagau,  Hyunjun Ji,  B. Kaduk,  
 K. Khistyaev,  Jaehoon Kim,  P. Klunzinger,  K. Koh,  D. Kosenkov,  
 T. Kowalczyk,  C. M. Krauter,  A. Kunitsa,  Ka Un Lao,  A. Laurent,  
 K. V. Lawler,  Joonho Lee,  D. Lefrancois,  S. Lehtola,  D. S. Levine,  
 Yi-Pei Li,  You-Sheng Lin,  Fenglai Liu,  E. Livshits,  A. Luenser,  
 P. Manohar,  E. Mansoor,  S. F. Manzer,  Shan-Ping Mao,  Yuezhi Mao,  
 N. Mardirossian,  A. V. Marenich,  L. A. Martinez-Martinez,  S. A. Maurer,  
 N. J. Mayhall,  S. C. McKenzie,  J.-M. Mewes,  A. F. Morrison,  K. Nanda,  
 T. S. Nguyen-Beck,  R. Olivares-Amaya,  J. A. Parkhill,  T. M. Perrine,  
 F. Plasser,  S. Prager,  A. Prociuk,  D. R. Rehn,  F. Rob,  M. Schneider,  
 N. Sergueev,  S. M. Sharada,  S. Sharma,  D. W. Small,  T. Stauch,  
 T. Stein,  Yu-Chuan Su,  A. J. W. Thom,  T. Tsuchimochi,  L. Vogt,  
 O. Vydrov,  M. A. Watson,  J. Wenzel,  M. de Wergifosse,  T. A. Wesolowski,  
 A. White,  J. Witte,  A. Yamada,  Jun Yang,  K. Yao,  S. Yeganeh,  
 S. R. Yost,  Zhi-Qiang You,  A. Zech,  Igor Ying Zhang,  Xing Zhang,  
 Yan Zhao,  Ying Zhu,  B. R. Brooks,  G. K. L. Chan,  C. J. Cramer,  
 M. S. Gordon,  W. J. Hehre,  A. Klamt,  M. W. Schmidt,  C. D. Sherrill,  
 D. G. Truhlar,  A. Aspuru-Guzik,  R. Baer,  A. T. Bell,  N. A. Besley,  
 Jeng-Da Chai,  A. Dreuw,  B. D. Dunietz,  T. R. Furlani,  Chao-Ping Hsu,  
 Yousung Jung,  Jing Kong,  D. S. Lambrecht,  WanZhen Liang,  C. Ochsenfeld,  
 V. A. Rassolov,  L. V. Slipchenko,  J. E. Subotnik,  T. Van Voorhis,  
 J. M. Herbert,  A. I. Krylov,  P. M. W. Gill,  M. Head-Gordon

 Contributors to earlier versions of Q-Chem not listed above: 
 R. D. Adamson,  B. Austin,  J. Baker,  G. J. O. Beran,  K. Brandhorst,  
 S. T. Brown,  E. F. C. Byrd,  A. K. Chakraborty,  C.-L. Cheng,  
 Siu Hung Chien,  D. M. Chipman,  D. L. Crittenden,  H. Dachsel,  
 R. A. DiStasio Jr.,  R. J. Doerksen,  A. D. Dutoi,  L. Fusti-Molnar,  
 W. A. Goddard III,  A. Golubeva-Zadorozhnaya,  S. R. Gwaltney,  G. Hawkins,  
 A. Heyden,  S. Hirata,  G. Kedziora,  F. J. Keil,  C. Kelley,  Jihan Kim,  
 R. A. King,  R. Z. Khaliullin,  P. P. Korambath,  W. Kurlancheek,  
 A. M. Lee,  M. S. Lee,  S. V. Levchenko,  Ching Yeh Lin,  D. Liotard,  
 R. C. Lochan,  I. Lotan,  P. E. Maslen,  N. Nair,  D. P. O'Neill,  
 D. Neuhauser,  E. Neuscamman,  C. M. Oana,  R. Olson,  B. Peters,  
 R. Peverati,  P. A. Pieniazek,  Y. M. Rhee,  J. Ritchie,  M. A. Rohrdanz,  
 E. Rosta,  N. J. Russ,  H. F. Schaefer III,  N. E. Schultz,  N. Shenvi,  
 A. C. Simmonett,  A. Sodt,  D. Stuck,  K. S. Thanthiriwatte,  V. Vanovschi,  
 Tao Wang,  A. Warshel,  C. F. Williams,  Q. Wu,  X. Xu,  W. Zhang

 Please cite Q-Chem as follows:
 Y. Shao et al., Mol. Phys. 113, 184-215 (2015)
 DOI: 10.1080/00268976.2014.952696

 Q-Chem 5.0.0 for Intel X86 EM64T Linux

 Parts of Q-Chem use Armadillo 5.200.1 (Boston Tea Smuggler).
 http://arma.sourceforge.net/

 Q-Chem begins on Tue Oct  3 13:43:40 2017  

Host: nid05255
0

     Scratch files written to /global/cscratch1/sd/junteng/scratch/13/opt_1001.save//

Checking the input file for inconsistencies... 	...done.

--------------------------------------------------------------
User input:
--------------------------------------------------------------
$molecule
0  1
C    0.656  -1.997   0.550
C   -0.379  -2.055   1.685
C    1.075  -0.633   0.035
C   -0.743  -0.756   2.367
O    2.254  -0.766  -0.643
O    0.466   0.414   0.178
O    0.380  -0.211   2.923
O   -1.879  -0.339   2.537
C    0.159   1.039   3.578
C    2.798   0.433  -1.203
C   -0.074  -2.721  -0.584
C   -0.239  -4.209  -0.268
C   -1.341  -4.194   0.796
C   -1.585  -2.694   0.978
O   -1.425  -2.250  -0.391
H    1.566  -2.528   0.855
H   -0.041  -2.721   2.491
H   -0.505   1.690   2.999
H    2.061   1.233  -1.326
H    0.286  -2.514  -1.595
H   -0.592  -4.755  -1.150
H    0.687  -4.677   0.078
H   -2.237  -4.682   0.398
H   -1.053  -4.703   1.720
H   -2.574  -2.451   1.372
H   -0.249   0.863   4.578
H    1.124   1.543   3.677
H    3.204   0.190  -2.189
H    3.617   0.777  -0.565
$end


$opt
CONSTRAINT
tors    2    1    3    5    162.3
tors    1    2    4    7    -61.6
ENDCONSTRAINT
$end

$rem
JOBTYPE                   OPT
METHOD                    B3LYP
DFT_D                     D3_OP
BASIS                     6-311++G(d,p)
GEOM_OPT_MAX_CYCLES       500
GEOM_OPT_TOL_DISPLACEMENT 1
SYMMETRY                  False
THRESH                    12
SCF_CONVERGENCE           8
MAX_SUB_FILE_NUM          128
MEM_STATIC                400
MEM_TOTAL                 4000
$end

--------------------------------------------------------------
 Adding empirical dispersion correction 
 ----------------------------------------------------------------
 Doing -D3(op) with
 s6 =   1.00000
 s8 =   0.78311
 a1 =   0.30000
 a2 =   4.25000
 n  =  10.00000
 -D3 energy without 3body term =     -0.0301175666 hartrees
 ----------------------------------------------------------------
             Standard Nuclear Orientation (Angstroms)
    I     Atom           X                Y                Z
 ----------------------------------------------------------------
    1      C       0.3697342729    -0.6344652785    -0.5682185024
    2      C       0.5830892856     0.8866305416    -0.5085431759
    3      C      -0.8699014548    -1.2078766031     0.0919214188
    4      C      -0.5598235439     1.7339384151     0.0021824174
    5      O      -1.0906277378    -2.4603631032    -0.4080500553
    6      O      -1.5566019091    -0.6636803128     0.9403504869
    7      O      -1.6498149946     1.5482939899    -0.8007775971
    8      O      -0.4799332706     2.5718972711     0.8880308806
    9      C      -2.8044492191     2.2858543985    -0.3968092184
   10      C      -2.2289112229    -3.1547881210     0.1108156327
   11      C       1.5897974066    -1.1573410878     0.1940667708
   12      C       2.8778742489    -0.9023938644    -0.5914807846
   13      C       3.0736984138     0.6062805862    -0.4118163796
   14      C       1.8273869003     0.9943712392     0.3874040257
   15      O       1.7087539834    -0.1697627505     1.2404077097
   16      H       0.3688686773    -0.9646705244    -1.6141868320
   17      H       0.8207486346     1.2891342672    -1.5030002060
   18      H      -2.9457124994     2.2580152575     0.6891040690
   19      H      -2.5806906233    -2.7639184006     1.0709042303
   20      H       1.5042519872    -2.1684976679     0.6000401094
   21      H       3.7202931181    -1.4355074158    -0.1367617613
   22      H       2.8052766319    -1.2051355012    -1.6399525713
   23      H       3.9784423183     0.7875324718     0.1780566756
   24      H       3.1670514341     1.1432862684    -1.3598201301
   25      H       1.9410338999     1.9133998678     0.9660893801
   26      H      -2.7227111035     3.3187026777    -0.7489218606
   27      H      -3.6791460159     1.8248750106    -0.8631197561
   28      H      -1.9485029726    -4.2023825341     0.2522304790
   29      H      -3.0343825811    -3.1071758873    -0.6274864507
 ----------------------------------------------------------------
 Molecular Point Group                 C1    NOp =  1
 Largest Abelian Subgroup              C1    NOp =  1
 Nuclear Repulsion Energy =  1110.7745787068 hartrees
 There are       57 alpha and       57 beta electrons
 Requested basis set is 6-311++G(d,p)
 There are 160 shells and 428 basis functions

 Total QAlloc Memory Limit   4000 MB
 Mega-Array Size       392 MB
 MEM_STATIC part       400 MB
 A cutoff of  1.0D-12 yielded  10702 shell pairs
 There are     78089 function pairs (     83400 Cartesian)
 
 -------------------------------------------------------
 OpenMP Integral Computing Module                       
 Release: version 1.0, May 2013, Q-Chem Inc. Pittsburgh 
 -------------------------------------------------------
 Integral Job Info:
 Integral job number is                      11
 Integral operator is                         1
 short-range coefficients                     0
 long-range coefficients              100000000
 Omega coefficients                           0
 if combine SR and LR in K                    0
 Integral screening is                        0
 Integral computing path is                   2
 max size of driver memory is            800000
 size of driver memory is                593474
 size of scratch memory is              2260544
 max col of scratch BK array               1296
 max len of scratch array in speh3          155
 max len of scratch index in speh4           18
 max int batch size is                      520
 min int batch size is                       52
 fixed nKL is                                52
 max L of basis functions is                  2
 order of int derivative is                   0
 number of shells is                        160
 number of basis is                         443
 number of cartesian basis is               443
 number of contracted shell pairs         10702
 number of primitive shell pairs          24539
 maxK2 (contraction) of shell pair           36
 max number of K2 of shell pair               1
 max number of CS2 of shell pair           1962
 max number of PS2 of shell pair           3528
 mem total for path MDJ                  142806
 -------------------------------------------------------
 Smallest overlap matrix eigenvalue = 9.06E-07
 Linear dependence detected in AO basis
 Number of orthogonalized atomic orbitals = 427
 Maximum deviation from orthogonality = 5.818E-11

 Scale SEOQF with 1.000000e-01/1.000000e-01/1.000000e-01

 Standard Electronic Orientation quadrupole field applied
 Nucleus-field energy     =     0.0000000330 hartrees
 Guess from superposition of atomic densities
 Warning:  Energy on first SCF cycle will be non-variational
 A restricted hybrid HF-DFT SCF calculation will be
 performed using Pulay DIIS extrapolation
 Exchange:     0.2000 Hartree-Fock + 0.0800 Slater + 0.7200 B88
 Correlation:  0.1900 VWN1RPA + 0.8100 LYP
 Using SG-1 standard quadrature grid
 Dispersion:   Grimme D3
 SCF converges when DIIS error is below 1.0E-08
 -------------------------------------------------------
 OpenMP Integral computing Module                
 Release: version 1.0, May 2013, Q-Chem Inc. Pittsburgh 
 -------------------------------------------------------
 -------------------------------------------------------
 OpenMP BLAS3 based DFT computing Module                
 Release: version 1.0, May 2013, Q-Chem Inc. Pittsburgh 
 -------------------------------------------------------
 ---------------------------------------
  Cycle       Energy         DIIS Error
 ---------------------------------------
    1    -768.9435788812      3.08E-02
    2    -765.5570648663      3.98E-03
    3    -764.9854860804      7.09E-03
    4    -765.8094781848      1.54E-03
    5    -765.8499026229      4.61E-04
    6    -765.8530346917      1.47E-04
    7    -765.8533802466      4.76E-05
    8    -765.8534177120      1.32E-05
    9    -765.8534206531      4.58E-06
   10    -765.8534209223      2.08E-06
   11    -765.8534209976      3.60E-07
   12    -765.8534209996      1.78E-07
   13    -765.8534210001      4.07E-08
   14    -765.8534210001      1.70E-08
   15    -765.8534210001      3.61E-09 Convergence criterion met
 ---------------------------------------
 SCF time:  CPU 1419.51 s  wall 66.00 s
 SCF   energy in the final basis set = -765.8534210001
 Total energy in the final basis set = -765.8534210001
 
 --------------------------------------------------------------
 
                    Orbital Energies (a.u.)
 --------------------------------------------------------------
 
 Alpha MOs
 -- Occupied --
-19.182 -19.170 -19.128 -19.124 -19.115 -10.316 -10.307 -10.239
-10.232 -10.228 -10.221 -10.209 -10.205 -10.179 -10.176  -1.115
 -1.104  -1.060  -1.031  -1.020  -0.837  -0.789  -0.782  -0.738
 -0.724  -0.656  -0.608  -0.590  -0.583  -0.561  -0.546  -0.523
 -0.503  -0.492  -0.487  -0.487  -0.480  -0.473  -0.461  -0.430
 -0.422  -0.418  -0.412  -0.398  -0.384  -0.372  -0.369  -0.363
 -0.361  -0.357  -0.336  -0.333  -0.321  -0.306  -0.293  -0.282
 -0.272
 -- Virtual --
 -0.024  -0.013  -0.005  -0.001   0.003   0.009   0.013   0.021
  0.024   0.033   0.037   0.039   0.046   0.048   0.051   0.058
  0.062   0.077   0.079   0.085   0.085   0.091   0.095   0.100
  0.102   0.107   0.113   0.116   0.118   0.123   0.124   0.126
  0.132   0.134   0.137   0.138   0.140   0.143   0.147   0.150
  0.156   0.159   0.163   0.166   0.170   0.173   0.174   0.178
  0.181   0.184   0.188   0.192   0.194   0.196   0.205   0.207
  0.215   0.222   0.224   0.231   0.236   0.238   0.249   0.253
  0.258   0.263   0.272   0.279   0.280   0.283   0.289   0.296
  0.301   0.302   0.308   0.312   0.313   0.326   0.327   0.330
  0.335   0.343   0.344   0.348   0.354   0.356   0.361   0.364
  0.369   0.378   0.386   0.387   0.390   0.401   0.403   0.406
  0.414   0.416   0.429   0.439   0.456   0.469   0.471   0.482
  0.489   0.504   0.507   0.519   0.527   0.533   0.553   0.557
  0.570   0.579   0.586   0.588   0.604   0.614   0.621   0.631
  0.634   0.645   0.653   0.661   0.663   0.670   0.673   0.678
  0.685   0.696   0.713   0.714   0.719   0.726   0.736   0.743
  0.749   0.756   0.761   0.767   0.774   0.786   0.792   0.801
  0.812   0.823   0.850   0.881   0.916   0.938   0.949   0.954
  0.988   1.007   1.010   1.021   1.049   1.057   1.085   1.095
  1.108   1.143   1.154   1.170   1.189   1.198   1.203   1.218
  1.229   1.239   1.244   1.254   1.258   1.286   1.298   1.312
  1.314   1.329   1.338   1.355   1.366   1.383   1.394   1.417
  1.421   1.447   1.450   1.465   1.467   1.475   1.513   1.521
  1.535   1.545   1.555   1.565   1.567   1.578   1.589   1.592
  1.601   1.611   1.621   1.627   1.644   1.656   1.669   1.674
  1.695   1.702   1.704   1.709   1.714   1.722   1.746   1.762
  1.768   1.783   1.795   1.807   1.817   1.840   1.852   1.863
  1.890   1.908   1.925   1.936   1.944   1.949   1.963   1.977
  1.988   2.002   2.023   2.040   2.045   2.081   2.093   2.126
  2.130   2.140   2.143   2.162   2.172   2.177   2.187   2.231
  2.241   2.264   2.297   2.314   2.363   2.385   2.427   2.438
  2.447   2.464   2.466   2.482   2.495   2.508   2.515   2.525
  2.532   2.560   2.570   2.572   2.576   2.607   2.635   2.647
  2.668   2.694   2.717   2.738   2.748   2.790   2.801   2.824
  2.831   2.845   2.858   2.868   2.879   2.899   2.919   2.931
  2.941   2.947   2.979   2.992   3.015   3.018   3.035   3.047
  3.060   3.070   3.082   3.103   3.114   3.123   3.154   3.170
  3.192   3.211   3.226   3.244   3.273   3.280   3.331   3.363
  3.381   3.389   3.421   3.460   3.557   3.584   3.641   3.668
  3.700   3.779   3.792   3.798   3.816   3.895   3.968   4.016
  4.036   4.040   4.077   4.103   4.108   4.134   4.143   4.191
  4.244   4.267   4.431   4.508   5.022   5.055   5.103   5.153
  5.196   5.238   5.282   5.375   5.410   5.485   5.597   5.621
  5.639   5.856   5.877  23.785  23.831  23.837  23.875  23.897
 23.915  23.934  23.936  23.986  24.053  49.888  49.905  49.962
 50.010  50.029
 --------------------------------------------------------------
 
          Ground-State Mulliken Net Atomic Charges

     Atom                 Charge (a.u.)
  ----------------------------------------
      1 C                     0.026563
      2 C                    -0.021409
      3 C                    -0.624336
      4 C                    -0.390896
      5 O                    -0.028512
      6 O                    -0.192286
      7 O                    -0.038021
      8 O                    -0.212459
      9 C                    -0.221428
     10 C                    -0.222754
     11 C                     0.369927
     12 C                    -0.500937
     13 C                    -0.451806
     14 C                    -0.064811
     15 O                    -0.146558
     16 H                     0.277213
     17 H                     0.237606
     18 H                     0.204949
     19 H                     0.185819
     20 H                     0.278087
     21 H                     0.178323
     22 H                     0.123287
     23 H                     0.189930
     24 H                     0.125055
     25 H                     0.289020
     26 H                     0.167721
     27 H                     0.150684
     28 H                     0.147924
     29 H                     0.164106
  ----------------------------------------
  Sum of atomic charges =     0.000000

 -----------------------------------------------------------------
                    Cartesian Multipole Moments
 -----------------------------------------------------------------
    Charge (ESU x 10^10)
                 0.0000
    Dipole Moment (Debye)
         X       0.0384      Y      -2.2924      Z      -3.6816
       Tot       4.3371
    Quadrupole Moments (Debye-Ang)
        XX     -77.9463     XY       2.2559     YY     -84.0812
        XZ      -1.0736     YZ      -5.3584     ZZ     -94.6789
    Octopole Moments (Debye-Ang^2)
       XXX     -32.8932    XXY       2.5089    XYY     -24.7644
       YYY     -35.4882    XXZ      -4.5742    XYZ       3.6491
       YYZ      -1.9672    XZZ      -4.5983    YZZ      -1.9989
       ZZZ      -4.5720
    Hexadecapole Moments (Debye-Ang^3)
      XXXX   -1896.0100   XXXY     -11.7186   XXYY    -516.6118
      XYYY      44.1543   YYYY   -1601.8311   XXXZ      29.6411
      XXYZ       1.3369   XYYZ      11.5991   YYYZ     -63.5352
      XXZZ    -402.8312   XYZZ       7.3902   YYZZ    -340.2221
      XZZZ      -6.5011   YZZZ       2.6984   ZZZZ    -342.2116
 -----------------------------------------------------------------
 Calculating analytic gradient of the SCF energy
 Gradient of SCF Energy
            1           2           3           4           5           6
    1   0.0116731  -0.0044523   0.0147190   0.0034990   0.0002271  -0.0154197
    2   0.0117366  -0.0137361  -0.0130543  -0.0202505  -0.0119538   0.0161516
    3   0.0169606  -0.0066943  -0.0080942  -0.0046802  -0.0107665   0.0173552
            7           8           9          10          11          12
    1  -0.0086078   0.0061997   0.0139649   0.0089365  -0.0143858  -0.0080125
    2  -0.0030137   0.0226383  -0.0041661   0.0124167  -0.0054585   0.0122549
    3  -0.0140120   0.0210969  -0.0000256  -0.0029508  -0.0106548   0.0097997
           13          14          15          16          17          18
    1  -0.0085607  -0.0120163   0.0074957   0.0003890   0.0038161  -0.0040599
    2  -0.0107801   0.0070700   0.0006919   0.0028050   0.0034563  -0.0011061
    3   0.0056925  -0.0060377  -0.0092071  -0.0047317  -0.0010749   0.0034110
           19          20          21          22          23          24
    1  -0.0038662   0.0024447   0.0042218  -0.0001224   0.0031089  -0.0003735
    2  -0.0037606  -0.0049379   0.0024016   0.0012951  -0.0035624  -0.0008918
    3   0.0044351  -0.0013489   0.0020897  -0.0006924   0.0012715  -0.0005077
           25          26          27          28          29
    1   0.0065775  -0.0001679  -0.0046971  -0.0022813  -0.0002496
    2   0.0054338   0.0001922   0.0017706  -0.0021751  -0.0014674
    3  -0.0006625  -0.0033941   0.0022131   0.0024985  -0.0012883
 Max gradient component =       2.264E-02
 RMS gradient           =       8.383E-03
 Gradient time:  CPU 433.13 s  wall 26.59 s
 Geometry Optimization Parameters
   NAtoms,    NIC,     NZ,  NCons,   NDum,   NFix, NCnnct, MaxDiis
       29     227       0       2       0       0       0       0


** CONSTRAINED OPTIMIZATION IN DELOCALIZED INTERNAL COORDINATES **
   Searching for a Minimum

   Optimization Cycle:   1

                       Coordinates (Angstroms)
     ATOM                X               Y               Z
      1  C         0.3697342729   -0.6344652785   -0.5682185024
      2  C         0.5830892856    0.8866305416   -0.5085431759
      3  C        -0.8699014548   -1.2078766031    0.0919214188
      4  C        -0.5598235439    1.7339384151    0.0021824174
      5  O        -1.0906277378   -2.4603631032   -0.4080500553
      6  O        -1.5566019091   -0.6636803128    0.9403504869
      7  O        -1.6498149946    1.5482939899   -0.8007775971
      8  O        -0.4799332706    2.5718972711    0.8880308806
      9  C        -2.8044492191    2.2858543985   -0.3968092184
     10  C        -2.2289112229   -3.1547881210    0.1108156327
     11  C         1.5897974066   -1.1573410878    0.1940667708
     12  C         2.8778742489   -0.9023938644   -0.5914807846
     13  C         3.0736984138    0.6062805862   -0.4118163796
     14  C         1.8273869003    0.9943712392    0.3874040257
     15  O         1.7087539834   -0.1697627505    1.2404077097
     16  H         0.3688686773   -0.9646705244   -1.6141868320
     17  H         0.8207486346    1.2891342672   -1.5030002060
     18  H        -2.9457124994    2.2580152575    0.6891040690
     19  H        -2.5806906233   -2.7639184006    1.0709042303
     20  H         1.5042519872   -2.1684976679    0.6000401094
     21  H         3.7202931181   -1.4355074158   -0.1367617613
     22  H         2.8052766319   -1.2051355012   -1.6399525713
     23  H         3.9784423183    0.7875324718    0.1780566756
     24  H         3.1670514341    1.1432862684   -1.3598201301
     25  H         1.9410338999    1.9133998678    0.9660893801
     26  H        -2.7227111035    3.3187026777   -0.7489218606
     27  H        -3.6791460159    1.8248750106   -0.8631197561
     28  H        -1.9485029726   -4.2023825341    0.2522304790
     29  H        -3.0343825811   -3.1071758873   -0.6274864507
   Point Group: c1    Number of degrees of freedom:    81


   Energy is   -765.853421000

              Constraints and their Current Values
                                        Value     Constraint
   Dihedral:        2   1   3   5      161.585      162.300
   Dihedral:        1   2   4   7      -59.895      -61.600

 Attempting to Generate Delocalized Internal Coordinates

   Using Lagrange Multiplier Algorithm


 83 Hessian modes will be used to form the next step
  Hessian Eigenvalues:
    -0.977753   -0.977753    0.045000    0.045000    0.045000    0.045000
     0.045004    0.045352    0.045530    0.048627    0.058814    0.061923
     0.065581    0.067904    0.070808    0.072130    0.074343    0.075916
     0.081732    0.083785    0.084157    0.085390    0.086890    0.088227
     0.091114    0.091429    0.097232    0.098159    0.112260    0.112299
     0.113404    0.116979    0.117194    0.120275    0.121575    0.138015
     0.140421    0.160000    0.160000    0.160000    0.160000    0.160000
     0.160000    0.168655    0.174257    0.246664    0.248450    0.249983
     0.250000    0.250000    0.250000    0.250000    0.257040    0.266186
     0.268519    0.290485    0.293737    0.306576    0.311874    0.329392
     0.338114    0.340326    0.341575    0.341941    0.342237    0.342787
     0.342803    0.343231    0.343866    0.343905    0.343937    0.344082
     0.344477    0.344724    0.345856    0.408772    0.412181    0.516485
     0.516574    0.945024    0.955398    1.022753    1.022753

 Minimum Search - Taking P-RFO Step
 Searching for Lamda that Maximizes Along the Constraint modes Only
 Value Taken    Lamda =   0.00053658
 Searching for Lamda that Minimizes Along All other modes
 Value Taken    Lamda =  -0.01197887
 Step Taken.  Stepsize is  0.256649

                             Maximum     Tolerance    Cnvgd?
         Gradient            0.035373       0.000300      NO
         Displacement        0.068449       0.000001      NO
         Energy change     *********       0.000001      NO


 New Cartesian Coordinates Obtained by Inverse Iteration

 Displacement from previous Coordinates is:  0.532267
 Adding empirical dispersion correction 
 ----------------------------------------------------------------
 Doing -D3(op) with
 s6 =   1.00000
 s8 =   0.78311
 a1 =   0.30000
 a2 =   4.25000
 n  =  10.00000
 -D3 energy without 3body term =     -0.0301055842 hartrees
 ----------------------------------------------------------------
             Standard Nuclear Orientation (Angstroms)
    I     Atom           X                Y                Z
 ----------------------------------------------------------------
    1      C       0.3752731924    -0.6419977577    -0.5801502930
    2      C       0.5924118048     0.8948477051    -0.4952846145
    3      C      -0.8727758689    -1.1940978325     0.0810442704
    4      C      -0.5694700099     1.7325532343     0.0139974733
    5      O      -1.1233806135    -2.4390092349    -0.3993201500
    6      O      -1.5337586138    -0.6614117891     0.9353288061
    7      O      -1.6383747230     1.6002254768    -0.8096604653
    8      O      -0.5278383926     2.5206458648     0.9242500238
    9      C      -2.8337913531     2.2967091209    -0.4293797324
   10      C      -2.2477046553    -3.1491892694     0.1402151144
   11      C       1.6175440384    -1.1601965160     0.1935360550
   12      C       2.9050023010    -0.9153964302    -0.6234918975
   13      C       3.0985915120     0.6147496271    -0.4206317724
   14      C       1.8472246420     0.9678877667     0.4130023581
   15      O       1.7186942089    -0.1964548168     1.2599230369
   16      H       0.3725247689    -0.9833645206    -1.6167248447
   17      H       0.8270113817     1.3130927306    -1.4788008112
   18      H      -3.0137149335     2.1955392424     0.6403994099
   19      H      -2.5413412342    -2.7372152772     1.1045561097
   20      H       1.5168362535    -2.1622632983     0.6031132879
   21      H       3.7369064027    -1.4708994972    -0.1871596635
   22      H       2.8137581751    -1.2188037550    -1.6697967061
   23      H       3.9982597601     0.8115985632     0.1646443747
   24      H       3.1750561998     1.1783130949    -1.3546586853
   25      H       1.9275537591     1.8664421760     1.0153210248
   26      H      -2.7650829109     3.3533098335    -0.6980813301
   27      H      -3.6449536506     1.8266589941    -0.9856669131
   28      H      -1.9443162605    -4.1907796047     0.2552228296
   29      H      -3.0810531164    -3.0872406210    -0.5630872909
 ----------------------------------------------------------------
 Molecular Point Group                 C1    NOp =  1
 Largest Abelian Subgroup              C1    NOp =  1
 Nuclear Repulsion Energy =  1107.9379754987 hartrees
 There are       57 alpha and       57 beta electrons
 Applying Cartesian multipole field
    Component          Value
    ---------          -----
     (2,0,0)        1.00000E-11
     (0,2,0)        2.00000E-11
     (0,0,2)       -3.00000E-11
 Nucleus-field energy     =     0.0000000329 hartrees
 Requested basis set is 6-311++G(d,p)
 There are 160 shells and 428 basis functions
 A cutoff of  1.0D-12 yielded  10684 shell pairs
 There are     77973 function pairs (     83267 Cartesian)
 Smallest overlap matrix eigenvalue = 9.57E-07
 Linear dependence detected in AO basis
 Number of orthogonalized atomic orbitals = 427
 Maximum deviation from orthogonality = 3.355E-11
 Guess MOs from SCF MO coefficient file
 Reading MOs from coefficient file
 Reading MOs from coefficient file
 A restricted hybrid HF-DFT SCF calculation will be
 performed using Pulay DIIS extrapolation
 Exchange:     0.2000 Hartree-Fock + 0.0800 Slater + 0.7200 B88
 Correlation:  0.1900 VWN1RPA + 0.8100 LYP
 Using SG-1 standard quadrature grid
 Dispersion:   Grimme D3
 SCF converges when DIIS error is below 1.0E-08
 Geometry optimization detected.  Setting ReadMinima to 0
 Setting SaveMinima to 0
 -------------------------------------------------------
 OpenMP Integral computing Module                
 Release: version 1.0, May 2013, Q-Chem Inc. Pittsburgh 
 -------------------------------------------------------
 -------------------------------------------------------
 OpenMP BLAS3 based DFT computing Module                
 Release: version 1.0, May 2013, Q-Chem Inc. Pittsburgh 
 -------------------------------------------------------
 ---------------------------------------
  Cycle       Energy         DIIS Error
 ---------------------------------------
    1    -765.8684455147      1.05E-03
    2    -765.8592215249      1.73E-04
    3    -765.8587361348      2.55E-04
    4    -765.8597880640      3.69E-05
    5    -765.8598053020      1.67E-05
    6    -765.8598094169      7.36E-06
    7    -765.8598101894      2.41E-06
    8    -765.8598102903      5.60E-07
    9    -765.8598102954      1.82E-07
   10    -765.8598102959      6.13E-08
   11    -765.8598102959      2.31E-08
   12    -765.8598102960      1.18E-08
   13    -765.8598102959      2.70E-09 Convergence criterion met
 ---------------------------------------
 SCF time:  CPU 1223.45 s  wall 57.27 s
 SCF   energy in the final basis set = -765.8598102959
 Total energy in the final basis set = -765.8598102959
 
 --------------------------------------------------------------
 
                    Orbital Energies (a.u.)
 --------------------------------------------------------------
 
 Alpha MOs
 -- Occupied --
-19.177 -19.165 -19.131 -19.121 -19.111 -10.311 -10.303 -10.240
-10.231 -10.229 -10.221 -10.209 -10.205 -10.183 -10.180  -1.117
 -1.106  -1.060  -1.033  -1.021  -0.833  -0.785  -0.778  -0.738
 -0.725  -0.655  -0.606  -0.594  -0.578  -0.559  -0.546  -0.520
 -0.503  -0.492  -0.487  -0.485  -0.478  -0.471  -0.459  -0.431
 -0.423  -0.420  -0.410  -0.399  -0.384  -0.370  -0.369  -0.365
 -0.361  -0.357  -0.339  -0.333  -0.319  -0.305  -0.292  -0.281
 -0.274
 -- Virtual --
 -0.020  -0.011  -0.004   0.001   0.006   0.011   0.013   0.021
  0.025   0.034   0.037   0.039   0.047   0.049   0.052   0.058
  0.063   0.077   0.079   0.084   0.085   0.091   0.096   0.100
  0.102   0.108   0.114   0.116   0.118   0.122   0.124   0.126
  0.132   0.135   0.137   0.138   0.140   0.144   0.147   0.150
  0.156   0.159   0.162   0.166   0.171   0.172   0.175   0.178
  0.180   0.182   0.188   0.191   0.193   0.195   0.204   0.208
  0.213   0.221   0.223   0.229   0.234   0.238   0.248   0.252
  0.259   0.262   0.274   0.278   0.281   0.283   0.290   0.293
  0.301   0.304   0.310   0.313   0.313   0.324   0.327   0.330
  0.334   0.343   0.346   0.347   0.355   0.357   0.359   0.363
  0.367   0.379   0.383   0.387   0.390   0.399   0.404   0.408
  0.415   0.417   0.428   0.439   0.455   0.470   0.472   0.484
  0.487   0.499   0.509   0.519   0.530   0.541   0.552   0.558
  0.571   0.581   0.585   0.589   0.605   0.615   0.619   0.630
  0.632   0.645   0.657   0.661   0.664   0.670   0.671   0.679
  0.685   0.695   0.710   0.714   0.720   0.726   0.738   0.744
  0.751   0.753   0.759   0.769   0.774   0.787   0.795   0.804
  0.815   0.822   0.853   0.880   0.915   0.934   0.954   0.957
  0.986   1.010   1.018   1.027   1.053   1.060   1.082   1.096
  1.111   1.135   1.149   1.174   1.189   1.195   1.202   1.210
  1.230   1.234   1.241   1.255   1.261   1.286   1.304   1.311
  1.316   1.329   1.341   1.361   1.365   1.382   1.401   1.415
  1.424   1.443   1.446   1.461   1.464   1.472   1.508   1.515
  1.536   1.541   1.548   1.560   1.565   1.573   1.581   1.589
  1.596   1.613   1.618   1.621   1.643   1.661   1.665   1.676
  1.694   1.700   1.710   1.712   1.718   1.720   1.748   1.768
  1.775   1.784   1.792   1.803   1.820   1.841   1.849   1.870
  1.885   1.900   1.910   1.932   1.942   1.950   1.956   1.969
  1.985   1.988   2.018   2.032   2.040   2.077   2.087   2.118
  2.131   2.136   2.140   2.162   2.169   2.172   2.187   2.227
  2.236   2.259   2.289   2.306   2.363   2.376   2.427   2.448
  2.454   2.461   2.466   2.489   2.503   2.511   2.513   2.525
  2.533   2.562   2.566   2.576   2.578   2.598   2.627   2.644
  2.668   2.696   2.719   2.737   2.749   2.775   2.799   2.824
  2.827   2.838   2.855   2.866   2.882   2.893   2.916   2.930
  2.936   2.943   2.975   2.987   3.015   3.020   3.034   3.042
  3.056   3.070   3.075   3.104   3.107   3.112   3.150   3.170
  3.196   3.212   3.228   3.232   3.256   3.276   3.330   3.356
  3.385   3.399   3.406   3.455   3.587   3.608   3.645   3.677
  3.712   3.785   3.796   3.816   3.833   3.895   3.937   4.003
  4.039   4.058   4.084   4.094   4.105   4.121   4.139   4.178
  4.216   4.244   4.403   4.492   5.026   5.063   5.110   5.150
  5.189   5.249   5.291   5.368   5.405   5.484   5.582   5.629
  5.644   5.878   5.898  23.813  23.836  23.844  23.874  23.894
 23.919  23.936  23.939  23.969  24.043  49.892  49.910  49.957
 50.026  50.044
 --------------------------------------------------------------
 
          Ground-State Mulliken Net Atomic Charges

     Atom                 Charge (a.u.)
  ----------------------------------------
      1 C                     0.024935
      2 C                     0.024068
      3 C                    -0.623759
      4 C                    -0.367199
      5 O                    -0.037746
      6 O                    -0.201670
      7 O                    -0.048871
      8 O                    -0.219020
      9 C                    -0.218687
     10 C                    -0.213837
     11 C                     0.357145
     12 C                    -0.484413
     13 C                    -0.455895
     14 C                    -0.102128
     15 O                    -0.142485
     16 H                     0.276903
     17 H                     0.237379
     18 H                     0.201757
     19 H                     0.183578
     20 H                     0.276772
     21 H                     0.177436
     22 H                     0.125836
     23 H                     0.190562
     24 H                     0.126637
     25 H                     0.286915
     26 H                     0.167225
     27 H                     0.148621
     28 H                     0.146035
     29 H                     0.163906
  ----------------------------------------
  Sum of atomic charges =     0.000000

 -----------------------------------------------------------------
                    Cartesian Multipole Moments
 -----------------------------------------------------------------
    Charge (ESU x 10^10)
                 0.0000
    Dipole Moment (Debye)
         X       0.0780      Y      -2.2296      Z      -3.7008
       Tot       4.3213
    Quadrupole Moments (Debye-Ang)
        XX     -77.3199     XY       2.2437     YY     -83.5914
        XZ      -1.0527     YZ      -5.3371     ZZ     -94.8139
    Octopole Moments (Debye-Ang^2)
       XXX     -34.1874    XXY       2.8071    XYY     -24.6091
       YYY     -33.2223    XXZ      -5.9816    XYZ       4.4269
       YYZ      -2.3185    XZZ      -4.4470    YZZ      -2.4757
       ZZZ      -4.9721
    Hexadecapole Moments (Debye-Ang^3)
      XXXX   -1918.7490   XXXY      -6.6857   XXYY    -517.2625
      XYYY      46.5527   YYYY   -1579.6557   XXXZ      30.4524
      XXYZ       1.6792   XYYZ      11.5111   YYYZ     -59.4547
      XXZZ    -407.5148   XYZZ       9.6925   YYZZ    -341.7886
      XZZZ      -5.8297   YZZZ       5.7296   ZZZZ    -349.7799
 -----------------------------------------------------------------
 Calculating analytic gradient of the SCF energy
 Gradient of SCF Energy
            1           2           3           4           5           6
    1   0.0043873  -0.0025123   0.0033403   0.0037714  -0.0030181  -0.0018574
    2   0.0040082  -0.0035138  -0.0009996  -0.0084044  -0.0022539  -0.0000584
    3   0.0079798  -0.0079430  -0.0010544   0.0037870   0.0010802   0.0007422
            7           8           9          10          11          12
    1  -0.0039378  -0.0009179   0.0037579   0.0022458  -0.0042610  -0.0005339
    2   0.0036519   0.0040003   0.0000162   0.0034312  -0.0015514   0.0006959
    3  -0.0007550  -0.0004382   0.0000626  -0.0023355  -0.0049558   0.0004064
           13          14          15          16          17          18
    1  -0.0007599  -0.0040669   0.0009281  -0.0007551   0.0016730  -0.0010177
    2  -0.0016167   0.0013247  -0.0000895   0.0013353   0.0033117  -0.0003774
    3   0.0003848  -0.0009338   0.0065846  -0.0011781   0.0012288  -0.0004102
           19          20          21          22          23          24
    1   0.0001145   0.0011491   0.0007436   0.0011753   0.0002363   0.0012471
    2  -0.0007007   0.0000824   0.0008615  -0.0007847  -0.0009537   0.0005540
    3   0.0002475  -0.0004782   0.0001972  -0.0006959   0.0001200  -0.0005592
           25          26          27          28          29
    1   0.0022638  -0.0010580  -0.0014333  -0.0006191  -0.0002852
    2   0.0000463   0.0000673  -0.0001273  -0.0009977  -0.0009576
    3  -0.0014329  -0.0010544   0.0005600   0.0011430  -0.0002995
 Max gradient component =       8.404E-03
 RMS gradient           =       2.522E-03
 Gradient time:  CPU 431.82 s  wall 24.74 s
 Geometry Optimization Parameters
   NAtoms,    NIC,     NZ,  NCons,   NDum,   NFix, NCnnct, MaxDiis
       29     227       0       2       0       0       0       0

 Cartesian Hessian Update
 Hessian Updated using BFGS Update


** CONSTRAINED OPTIMIZATION IN DELOCALIZED INTERNAL COORDINATES **
   Searching for a Minimum

   Optimization Cycle:   2

                       Coordinates (Angstroms)
     ATOM                X               Y               Z
      1  C         0.3752731924   -0.6419977577   -0.5801502930
      2  C         0.5924118048    0.8948477051   -0.4952846145
      3  C        -0.8727758689   -1.1940978325    0.0810442704
      4  C        -0.5694700099    1.7325532343    0.0139974733
      5  O        -1.1233806135   -2.4390092349   -0.3993201500
      6  O        -1.5337586138   -0.6614117891    0.9353288061
      7  O        -1.6383747230    1.6002254768   -0.8096604653
      8  O        -0.5278383926    2.5206458648    0.9242500238
      9  C        -2.8337913531    2.2967091209   -0.4293797324
     10  C        -2.2477046553   -3.1491892694    0.1402151144
     11  C         1.6175440384   -1.1601965160    0.1935360550
     12  C         2.9050023010   -0.9153964302   -0.6234918975
     13  C         3.0985915120    0.6147496271   -0.4206317724
     14  C         1.8472246420    0.9678877667    0.4130023581
     15  O         1.7186942089   -0.1964548168    1.2599230369
     16  H         0.3725247689   -0.9833645206   -1.6167248447
     17  H         0.8270113817    1.3130927306   -1.4788008112
     18  H        -3.0137149335    2.1955392424    0.6403994099
     19  H        -2.5413412342   -2.7372152772    1.1045561097
     20  H         1.5168362535   -2.1622632983    0.6031132879
     21  H         3.7369064027   -1.4708994972   -0.1871596635
     22  H         2.8137581751   -1.2188037550   -1.6697967061
     23  H         3.9982597601    0.8115985632    0.1646443747
     24  H         3.1750561998    1.1783130949   -1.3546586853
     25  H         1.9275537591    1.8664421760    1.0153210248
     26  H        -2.7650829109    3.3533098335   -0.6980813301
     27  H        -3.6449536506    1.8266589941   -0.9856669131
     28  H        -1.9443162605   -4.1907796047    0.2552228296
     29  H        -3.0810531164   -3.0872406210   -0.5630872909
   Point Group: c1    Number of degrees of freedom:    81


   Energy is   -765.859810296

              Constraints and their Current Values
                                        Value     Constraint
   Dihedral:        2   1   3   5      162.294      162.300
   Dihedral:        1   2   4   7      -61.590      -61.600
 Hessian Updated using BFGS Update

   Using Lagrange Multiplier Algorithm


 75 Hessian modes will be used to form the next step
  Hessian Eigenvalues:
    -0.977792   -0.976821    0.042400    0.045000    0.045094    0.045218
     0.045528    0.048588    0.058047    0.061876    0.065301    0.066553
     0.070760    0.072192    0.074142    0.075820    0.081715    0.083548
     0.083984    0.085175    0.086545    0.088195    0.090462    0.091404
     0.095296    0.098164    0.111426    0.112375    0.113217    0.116991
     0.117259    0.120791    0.126192    0.137996    0.141239    0.154512
     0.161790    0.165798    0.174885    0.243804    0.248709    0.248990
     0.249986    0.253992    0.261560    0.268138    0.270786    0.290217
     0.299172    0.306682    0.313485    0.329411    0.337859    0.339942
     0.341455    0.341883    0.342180    0.342677    0.343188    0.343583
     0.343877    0.343912    0.344040    0.344370    0.344535    0.345512
     0.357548    0.407858    0.412238    0.509870    0.516767    0.938984
     0.954373    1.022739    1.025464

 Minimum Search - Taking P-RFO Step
 Searching for Lamda that Maximizes Along the Constraint modes Only
 Value Taken    Lamda =   0.00000731
 Searching for Lamda that Minimizes Along All other modes
 Value Taken    Lamda =  -0.00147782
 Step Taken.  Stepsize is  0.147058

                             Maximum     Tolerance    Cnvgd?
         Gradient            0.005799       0.000300      NO
         Displacement        0.065769       0.000001      NO
         Energy change     -0.006389       0.000001      NO


 New Cartesian Coordinates Obtained by Inverse Iteration

 Displacement from previous Coordinates is:  0.363061
 Adding empirical dispersion correction 
 ----------------------------------------------------------------
 Doing -D3(op) with
 s6 =   1.00000
 s8 =   0.78311
 a1 =   0.30000
 a2 =   4.25000
 n  =  10.00000
 -D3 energy without 3body term =     -0.0302841760 hartrees
 ----------------------------------------------------------------
             Standard Nuclear Orientation (Angstroms)
    I     Atom           X                Y                Z
 ----------------------------------------------------------------
    1      C       0.3781787379    -0.6433457429    -0.5884873404
    2      C       0.6030457409     0.8978657482    -0.4910895194
    3      C      -0.8758200337    -1.1724477653     0.0763875406
    4      C      -0.5650622613     1.7296142676     0.0126494084
    5      O      -1.1447094413    -2.4097899103    -0.4057693138
    6      O      -1.5185854046    -0.6284290877     0.9338975146
    7      O      -1.6141836709     1.5962739196    -0.8277844516
    8      O      -0.5412495303     2.4836713435     0.9478303470
    9      C      -2.8304798045     2.2544462446    -0.4398491564
   10      C      -2.2641662707    -3.1200941352     0.1521773769
   11      C       1.6237644423    -1.1595789283     0.1955911751
   12      C       2.9068286999    -0.9128890216    -0.6282915898
   13      C       3.1026318414     0.6231782639    -0.4212935532
   14      C       1.8555492762     0.9673626587     0.4208272713
   15      O       1.7219387936    -0.1981398161     1.2563036655
   16      H       0.3783514165    -0.9940518208    -1.6200639824
   17      H       0.8339257357     1.3072494765    -1.4776775291
   18      H      -3.0182227042     2.1029376494     0.6223378969
   19      H      -2.5256865885    -2.7162060016     1.1285914225
   20      H       1.5128555368    -2.1589539131     0.6092693877
   21      H       3.7365260228    -1.4773434210    -0.2012789391
   22      H       2.8001504033    -1.2122444972    -1.6727770396
   23      H       4.0039352154     0.8278751345     0.1577864828
   24      H       3.1638276329     1.1912026312    -1.3519758449
   25      H       1.9171013455     1.8611089862     1.0330264468
   26      H      -2.7670140569     3.3233575407    -0.6527741521
   27      H      -3.6142929032     1.7945237126    -1.0388180099
   28      H      -1.9609934535    -4.1631449973     0.2318348212
   29      H      -3.1130526532    -3.0297553090    -0.5279213308
 ----------------------------------------------------------------
 Molecular Point Group                 C1    NOp =  1
 Largest Abelian Subgroup              C1    NOp =  1
 Nuclear Repulsion Energy =  1110.3717777398 hartrees
 There are       57 alpha and       57 beta electrons
 Applying Cartesian multipole field
    Component          Value
    ---------          -----
     (2,0,0)        1.00000E-11
     (0,2,0)        2.00000E-11
     (0,0,2)       -3.00000E-11
 Nucleus-field energy     =     0.0000000323 hartrees
 Requested basis set is 6-311++G(d,p)
 There are 160 shells and 428 basis functions
 A cutoff of  1.0D-12 yielded  10710 shell pairs
 There are     78170 function pairs (     83477 Cartesian)
 Smallest overlap matrix eigenvalue = 9.74E-07
 Linear dependence detected in AO basis
 Number of orthogonalized atomic orbitals = 427
 Maximum deviation from orthogonality = 8.103E-11
 Guess MOs from SCF MO coefficient file
 Reading MOs from coefficient file
 Reading MOs from coefficient file
 A restricted hybrid HF-DFT SCF calculation will be
 performed using Pulay DIIS extrapolation
 Exchange:     0.2000 Hartree-Fock + 0.0800 Slater + 0.7200 B88
 Correlation:  0.1900 VWN1RPA + 0.8100 LYP
 Using SG-1 standard quadrature grid
 Dispersion:   Grimme D3
 SCF converges when DIIS error is below 1.0E-08
 Geometry optimization detected.  Setting ReadMinima to 0
 Setting SaveMinima to 0
 -------------------------------------------------------
 OpenMP Integral computing Module                
 Release: version 1.0, May 2013, Q-Chem Inc. Pittsburgh 
 -------------------------------------------------------
 -------------------------------------------------------
 OpenMP BLAS3 based DFT computing Module                
 Release: version 1.0, May 2013, Q-Chem Inc. Pittsburgh 
 -------------------------------------------------------
 ---------------------------------------
  Cycle       Energy         DIIS Error
 ---------------------------------------
    1    -765.8658687626      5.72E-04
    2    -765.8606028446      6.84E-05
    3    -765.8605309723      1.03E-04
    4    -765.8607036814      1.99E-05
    5    -765.8607080356      1.04E-05
    6    -765.8607097940      3.23E-06
    7    -765.8607099374      1.24E-06
    8    -765.8607099640      1.98E-07
    9    -765.8607099646      8.42E-08
   10    -765.8607099646      2.61E-08
   11    -765.8607099647      1.03E-08
   12    -765.8607099647      4.80E-09 Convergence criterion met
 ---------------------------------------
 SCF time:  CPU 1136.98 s  wall 52.36 s
 SCF   energy in the final basis set = -765.8607099647
 Total energy in the final basis set = -765.8607099647
 
 --------------------------------------------------------------
 
                    Orbital Energies (a.u.)
 --------------------------------------------------------------
 
 Alpha MOs
 -- Occupied --
-19.177 -19.165 -19.131 -19.120 -19.110 -10.310 -10.301 -10.240
-10.231 -10.228 -10.221 -10.207 -10.202 -10.183 -10.180  -1.118
 -1.107  -1.062  -1.034  -1.023  -0.831  -0.784  -0.777  -0.738
 -0.725  -0.654  -0.605  -0.596  -0.577  -0.559  -0.545  -0.519
 -0.503  -0.492  -0.487  -0.485  -0.478  -0.470  -0.459  -0.430
 -0.423  -0.420  -0.411  -0.398  -0.385  -0.371  -0.368  -0.366
 -0.360  -0.358  -0.338  -0.332  -0.319  -0.305  -0.292  -0.280
 -0.273
 -- Virtual --
 -0.019  -0.011  -0.004   0.001   0.007   0.012   0.014   0.021
  0.025   0.034   0.037   0.039   0.047   0.049   0.052   0.059
  0.063   0.076   0.079   0.085   0.085   0.091   0.097   0.100
  0.102   0.108   0.114   0.117   0.118   0.122   0.125   0.126
  0.132   0.135   0.138   0.139   0.141   0.144   0.147   0.150
  0.157   0.159   0.162   0.166   0.171   0.172   0.175   0.178
  0.181   0.182   0.188   0.191   0.194   0.195   0.204   0.208
  0.213   0.221   0.223   0.229   0.234   0.238   0.248   0.253
  0.258   0.264   0.275   0.277   0.281   0.282   0.290   0.293
  0.301   0.304   0.312   0.313   0.314   0.324   0.327   0.331
  0.335   0.344   0.346   0.348   0.355   0.358   0.359   0.365
  0.367   0.380   0.383   0.387   0.390   0.400   0.404   0.408
  0.415   0.418   0.428   0.437   0.455   0.469   0.473   0.485
  0.486   0.498   0.511   0.519   0.532   0.543   0.553   0.560
  0.570   0.582   0.585   0.592   0.606   0.617   0.619   0.630
  0.634   0.646   0.657   0.662   0.665   0.671   0.673   0.679
  0.686   0.696   0.710   0.715   0.722   0.726   0.740   0.744
  0.751   0.752   0.760   0.770   0.775   0.788   0.794   0.806
  0.817   0.823   0.854   0.878   0.915   0.932   0.957   0.960
  0.984   1.011   1.024   1.029   1.055   1.059   1.081   1.097
  1.112   1.136   1.144   1.176   1.189   1.195   1.200   1.207
  1.233   1.237   1.239   1.257   1.265   1.288   1.307   1.313
  1.319   1.330   1.341   1.362   1.370   1.385   1.407   1.415
  1.427   1.443   1.447   1.459   1.465   1.474   1.507   1.515
  1.536   1.541   1.548   1.558   1.565   1.572   1.577   1.591
  1.596   1.609   1.618   1.622   1.642   1.663   1.667   1.677
  1.694   1.700   1.713   1.715   1.720   1.721   1.752   1.771
  1.779   1.788   1.795   1.803   1.820   1.842   1.850   1.875
  1.886   1.901   1.910   1.931   1.938   1.951   1.957   1.966
  1.983   1.988   2.020   2.030   2.040   2.077   2.085   2.116
  2.129   2.134   2.138   2.161   2.170   2.172   2.189   2.228
  2.240   2.260   2.288   2.306   2.366   2.371   2.429   2.450
  2.457   2.462   2.469   2.493   2.506   2.512   2.515   2.525
  2.534   2.565   2.566   2.579   2.581   2.599   2.629   2.648
  2.667   2.697   2.720   2.736   2.751   2.773   2.800   2.824
  2.829   2.837   2.856   2.865   2.882   2.892   2.917   2.931
  2.939   2.949   2.974   2.989   3.014   3.020   3.033   3.044
  3.056   3.071   3.077   3.106   3.110   3.114   3.152   3.173
  3.198   3.218   3.230   3.235   3.264   3.282   3.332   3.357
  3.384   3.402   3.412   3.458   3.589   3.610   3.651   3.685
  3.715   3.784   3.793   3.824   3.843   3.897   3.933   4.007
  4.036   4.058   4.083   4.098   4.106   4.123   4.141   4.176
  4.211   4.247   4.400   4.491   5.026   5.067   5.115   5.156
  5.188   5.253   5.294   5.369   5.411   5.488   5.592   5.634
  5.650   5.881   5.903  23.819  23.839  23.844  23.882  23.898
 23.919  23.937  23.942  23.971  24.043  49.894  49.913  49.958
 50.030  50.047
 --------------------------------------------------------------
 
          Ground-State Mulliken Net Atomic Charges

     Atom                 Charge (a.u.)
  ----------------------------------------
      1 C                     0.002648
      2 C                     0.021049
      3 C                    -0.631716
      4 C                    -0.334939
      5 O                    -0.035756
      6 O                    -0.206693
      7 O                    -0.041637
      8 O                    -0.221244
      9 C                    -0.211507
     10 C                    -0.212980
     11 C                     0.365679
     12 C                    -0.482916
     13 C                    -0.457954
     14 C                    -0.117869
     15 O                    -0.139601
     16 H                     0.277195
     17 H                     0.237266
     18 H                     0.200490
     19 H                     0.184070
     20 H                     0.275581
     21 H                     0.177854
     22 H                     0.124450
     23 H                     0.190610
     24 H                     0.125716
     25 H                     0.286743
     26 H                     0.166437
     27 H                     0.148223
     28 H                     0.146388
     29 H                     0.164412
  ----------------------------------------
  Sum of atomic charges =     0.000000

 -----------------------------------------------------------------
                    Cartesian Multipole Moments
 -----------------------------------------------------------------
    Charge (ESU x 10^10)
                 0.0000
    Dipole Moment (Debye)
         X       0.0188      Y      -2.2591      Z      -3.6786
       Tot       4.3169
    Quadrupole Moments (Debye-Ang)
        XX     -77.2392     XY       2.4282     YY     -83.3926
        XZ      -0.9690     YZ      -5.3497     ZZ     -94.9240
    Octopole Moments (Debye-Ang^2)
       XXX     -35.5204    XXY       2.1431    XYY     -23.8837
       YYY     -32.8860    XXZ      -5.9973    XYZ       4.8403
       YYZ      -2.0313    XZZ      -4.5692    YZZ      -3.0217
       ZZZ      -4.7330
    Hexadecapole Moments (Debye-Ang^3)
      XXXX   -1923.4260   XXXY      -7.1595   XXYY    -514.8262
      XYYY      43.6466   YYYY   -1544.9428   XXXZ      31.3095
      XXYZ       0.8972   XYYZ      11.0176   YYYZ     -57.1503
      XXZZ    -408.3908   XYZZ       9.0045   YYZZ    -338.0082
      XZZZ      -5.4700   YZZZ       5.2585   ZZZZ    -353.3042
 -----------------------------------------------------------------
 Calculating analytic gradient of the SCF energy
 Gradient of SCF Energy
            1           2           3           4           5           6
    1   0.0017355  -0.0019018  -0.0011644  -0.0006587  -0.0013103   0.0016475
    2   0.0000013  -0.0014315   0.0008498  -0.0008999   0.0000925  -0.0004998
    3   0.0026559  -0.0042266   0.0019420   0.0041659   0.0006101  -0.0025215
            7           8           9          10          11          12
    1  -0.0006756   0.0002432   0.0009172   0.0005392  -0.0003902  -0.0001736
    2   0.0014083  -0.0009518  -0.0003351   0.0002930  -0.0017386  -0.0009228
    3   0.0003132  -0.0027680   0.0000495  -0.0005631  -0.0023774  -0.0008683
           13          14          15          16          17          18
    1  -0.0003804  -0.0004656  -0.0000525  -0.0007139   0.0006904   0.0002479
    2   0.0006603   0.0005178   0.0007824   0.0003582   0.0019414   0.0003115
    3  -0.0011192   0.0013282   0.0029700  -0.0000984   0.0014552  -0.0003056
           19          20          21          22          23          24
    1   0.0001329  -0.0000449  -0.0002466   0.0005161  -0.0004969   0.0008530
    2   0.0001470   0.0004189   0.0001992  -0.0008789   0.0000802   0.0005742
    3  -0.0004128  -0.0000089   0.0001074   0.0002615   0.0002224   0.0002540
           25          26          27          28          29
    1   0.0006109  -0.0000667   0.0001316   0.0002065   0.0002703
    2   0.0000097  -0.0002013  -0.0005410   0.0000129  -0.0002580
    3  -0.0008295  -0.0003578   0.0000630   0.0002912  -0.0002325
 Max gradient component =       4.227E-03
 RMS gradient           =       1.167E-03
 Gradient time:  CPU 439.18 s  wall 24.64 s
 Geometry Optimization Parameters
   NAtoms,    NIC,     NZ,  NCons,   NDum,   NFix, NCnnct, MaxDiis
       29     227       0       2       0       0       0       0

 Cartesian Hessian Update
 Hessian Updated using BFGS Update


** CONSTRAINED OPTIMIZATION IN DELOCALIZED INTERNAL COORDINATES **
   Searching for a Minimum

   Optimization Cycle:   3

                       Coordinates (Angstroms)
     ATOM                X               Y               Z
      1  C         0.3781787379   -0.6433457429   -0.5884873404
      2  C         0.6030457409    0.8978657482   -0.4910895194
      3  C        -0.8758200337   -1.1724477653    0.0763875406
      4  C        -0.5650622613    1.7296142676    0.0126494084
      5  O        -1.1447094413   -2.4097899103   -0.4057693138
      6  O        -1.5185854046   -0.6284290877    0.9338975146
      7  O        -1.6141836709    1.5962739196   -0.8277844516
      8  O        -0.5412495303    2.4836713435    0.9478303470
      9  C        -2.8304798045    2.2544462446   -0.4398491564
     10  C        -2.2641662707   -3.1200941352    0.1521773769
     11  C         1.6237644423   -1.1595789283    0.1955911751
     12  C         2.9068286999   -0.9128890216   -0.6282915898
     13  C         3.1026318414    0.6231782639   -0.4212935532
     14  C         1.8555492762    0.9673626587    0.4208272713
     15  O         1.7219387936   -0.1981398161    1.2563036655
     16  H         0.3783514165   -0.9940518208   -1.6200639824
     17  H         0.8339257357    1.3072494765   -1.4776775291
     18  H        -3.0182227042    2.1029376494    0.6223378969
     19  H        -2.5256865885   -2.7162060016    1.1285914225
     20  H         1.5128555368   -2.1589539131    0.6092693877
     21  H         3.7365260228   -1.4773434210   -0.2012789391
     22  H         2.8001504033   -1.2122444972   -1.6727770396
     23  H         4.0039352154    0.8278751345    0.1577864828
     24  H         3.1638276329    1.1912026312   -1.3519758449
     25  H         1.9171013455    1.8611089862    1.0330264468
     26  H        -2.7670140569    3.3233575407   -0.6527741521
     27  H        -3.6142929032    1.7945237126   -1.0388180099
     28  H        -1.9609934535   -4.1631449973    0.2318348212
     29  H        -3.1130526532   -3.0297553090   -0.5279213308
   Point Group: c1    Number of degrees of freedom:    81


   Energy is   -765.860709965

              Constraints and their Current Values
                                        Value     Constraint
   Dihedral:        2   1   3   5      162.300      162.300
   Dihedral:        1   2   4   7      -61.600      -61.600
 Hessian Updated using BFGS Update

   Using Lagrange Multiplier Algorithm


 76 Hessian modes will be used to form the next step
  Hessian Eigenvalues:
    -0.975481    0.026555    0.045000    0.045022    0.045138    0.045414
     0.045918    0.048544    0.055930    0.062128    0.063798    0.065900
     0.070714    0.072267    0.074076    0.076175    0.081658    0.083183
     0.083972    0.085201    0.086955    0.088264    0.091365    0.092357
     0.096457    0.098164    0.112075    0.112690    0.113221    0.116991
     0.117258    0.121872    0.126312    0.139042    0.140460    0.159495
     0.161534    0.161745    0.173064    0.174856    0.242663    0.248716
     0.249639    0.249996    0.251815    0.253566    0.267822    0.269294
     0.279440    0.290211    0.299781    0.309100    0.317888    0.331140
     0.338796    0.340045    0.341585    0.341837    0.342260    0.342631
     0.343258    0.343755    0.343903    0.344013    0.344208    0.344441
     0.345110    0.345784    0.350903    0.406031    0.414386    0.516023
     0.518662    0.948675    0.972918    1.032677

 Minimum Search - Taking P-RFO Step
 Searching for Lamda that Maximizes Along the Constraint modes Only
 Value Taken    Lamda =   0.00000129
 Searching for Lamda that Minimizes Along All other modes
 Value Taken    Lamda =  -0.00054424
 Step Taken.  Stepsize is  0.128086

                             Maximum     Tolerance    Cnvgd?
         Gradient            0.002986       0.000300      NO
         Displacement        0.069354       0.000001      NO
         Energy change     -0.000900       0.000001      NO


 New Cartesian Coordinates Obtained by Inverse Iteration

 Displacement from previous Coordinates is:  0.269924
 Adding empirical dispersion correction 
 ----------------------------------------------------------------
 Doing -D3(op) with
 s6 =   1.00000
 s8 =   0.78311
 a1 =   0.30000
 a2 =   4.25000
 n  =  10.00000
 -D3 energy without 3body term =     -0.0302985911 hartrees
 ----------------------------------------------------------------
             Standard Nuclear Orientation (Angstroms)
    I     Atom           X                Y                Z
 ----------------------------------------------------------------
    1      C       0.3746355655    -0.6426826001    -0.5961620324
    2      C       0.6075835887     0.9010871370    -0.4895875178
    3      C      -0.8784214842    -1.1732473110     0.0724314423
    4      C      -0.5623112559     1.7390589189     0.0023415730
    5      O      -1.1548954311    -2.4054248391    -0.4161932025
    6      O      -1.5120924904    -0.6394154448     0.9442099819
    7      O      -1.6007748478     1.6159942345    -0.8509067245
    8      O      -0.5512501770     2.4735951193     0.9538166147
    9      C      -2.8280354458     2.2551578411    -0.4541380865
   10      C      -2.2609062730    -3.1222025166     0.1681683007
   11      C       1.6214395385    -1.1587070023     0.1948214732
   12      C       2.9042407104    -0.9087659486    -0.6286471344
   13      C       3.1037616814     0.6248861317    -0.4142892304
   14      C       1.8562518224     0.9647027949     0.4268627588
   15      O       1.7165109875    -0.2028207122     1.2533074285
   16      H       0.3810363431    -0.9948644768    -1.6265278382
   17      H       0.8378238138     1.2966113754    -1.4823428853
   18      H      -3.0305183059     2.0538878494     0.5974761602
   19      H      -2.4828607548    -2.7380138854     1.1625464271
   20      H       1.5061321753    -2.1594276539     0.6056008037
   21      H       3.7335651970    -1.4800670947    -0.2096849482
   22      H       2.7893313329    -1.1963559620    -1.6751765964
   23      H       4.0084049940     0.8288814413     0.1604001403
   24      H       3.1559476732     1.1939192925    -1.3440564207
   25      H       1.9068975345     1.8546995893     1.0467571063
   26      H      -2.7602900070     3.3333486753    -0.6118788837
   27      H      -3.5998056815     1.8254091478    -1.0887545078
   28      H      -1.9620167029    -4.1679953710     0.2083435622
   29      H      -3.1342920365    -3.0069955200    -0.4760787596
 ----------------------------------------------------------------
 Molecular Point Group                 C1    NOp =  1
 Largest Abelian Subgroup              C1    NOp =  1
 Nuclear Repulsion Energy =  1109.9855974026 hartrees
 There are       57 alpha and       57 beta electrons
 Applying Cartesian multipole field
    Component          Value
    ---------          -----
     (2,0,0)        1.00000E-11
     (0,2,0)        2.00000E-11
     (0,0,2)       -3.00000E-11
 Nucleus-field energy     =     0.0000000322 hartrees
 Requested basis set is 6-311++G(d,p)
 There are 160 shells and 428 basis functions
 A cutoff of  1.0D-12 yielded  10711 shell pairs
 There are     78160 function pairs (     83461 Cartesian)
 Smallest overlap matrix eigenvalue = 9.90E-07
 Linear dependence detected in AO basis
 Number of orthogonalized atomic orbitals = 427
 Maximum deviation from orthogonality = 6.103E-11
 Guess MOs from SCF MO coefficient file
 Reading MOs from coefficient file
 Reading MOs from coefficient file
 A restricted hybrid HF-DFT SCF calculation will be
 performed using Pulay DIIS extrapolation
 Exchange:     0.2000 Hartree-Fock + 0.0800 Slater + 0.7200 B88
 Correlation:  0.1900 VWN1RPA + 0.8100 LYP
 Using SG-1 standard quadrature grid
 Dispersion:   Grimme D3
 SCF converges when DIIS error is below 1.0E-08
 Geometry optimization detected.  Setting ReadMinima to 0
 Setting SaveMinima to 0
 -------------------------------------------------------
 OpenMP Integral computing Module                
 Release: version 1.0, May 2013, Q-Chem Inc. Pittsburgh 
 -------------------------------------------------------
 -------------------------------------------------------
 OpenMP BLAS3 based DFT computing Module                
 Release: version 1.0, May 2013, Q-Chem Inc. Pittsburgh 
 -------------------------------------------------------
 ---------------------------------------
  Cycle       Energy         DIIS Error
 ---------------------------------------
    1    -765.8546748415      4.01E-04
    2    -765.8609800171      4.94E-05
    3    -765.8609452254      7.42E-05
    4    -765.8610431322      1.33E-05
    5    -765.8610451058      7.55E-06
    6    -765.8610459578      2.77E-06
    7    -765.8610460739      8.35E-07
    8    -765.8610460852      1.88E-07
    9    -765.8610460858      5.52E-08
   10    -765.8610460858      3.38E-08
   11    -765.8610460858      9.47E-09 Convergence criterion met
 ---------------------------------------
 SCF time:  CPU 1064.12 s  wall 49.34 s
 SCF   energy in the final basis set = -765.8610460858
 Total energy in the final basis set = -765.8610460858
 
 --------------------------------------------------------------
 
                    Orbital Energies (a.u.)
 --------------------------------------------------------------
 
 Alpha MOs
 -- Occupied --
-19.177 -19.166 -19.131 -19.120 -19.110 -10.309 -10.301 -10.240
-10.231 -10.228 -10.222 -10.207 -10.202 -10.183 -10.180  -1.117
 -1.107  -1.064  -1.032  -1.023  -0.831  -0.784  -0.777  -0.738
 -0.725  -0.654  -0.604  -0.597  -0.577  -0.559  -0.545  -0.519
 -0.503  -0.492  -0.487  -0.485  -0.478  -0.470  -0.459  -0.430
 -0.423  -0.420  -0.411  -0.398  -0.385  -0.371  -0.368  -0.366
 -0.359  -0.358  -0.338  -0.333  -0.319  -0.306  -0.292  -0.280
 -0.273
 -- Virtual --
 -0.019  -0.011  -0.003   0.001   0.007   0.012   0.013   0.021
  0.025   0.034   0.037   0.039   0.047   0.049   0.052   0.059
  0.063   0.076   0.079   0.084   0.085   0.091   0.097   0.100
  0.102   0.109   0.114   0.116   0.117   0.121   0.125   0.126
  0.132   0.135   0.138   0.139   0.141   0.145   0.147   0.150
  0.157   0.158   0.162   0.166   0.170   0.172   0.176   0.178
  0.182   0.182   0.188   0.191   0.194   0.195   0.204   0.208
  0.213   0.221   0.223   0.229   0.234   0.238   0.247   0.253
  0.258   0.264   0.275   0.276   0.281   0.281   0.290   0.292
  0.300   0.304   0.312   0.313   0.315   0.323   0.327   0.331
  0.335   0.343   0.345   0.349   0.356   0.359   0.360   0.365
  0.367   0.379   0.383   0.387   0.390   0.398   0.405   0.409
  0.416   0.418   0.428   0.435   0.455   0.468   0.474   0.484
  0.487   0.497   0.510   0.519   0.532   0.542   0.553   0.560
  0.569   0.582   0.585   0.593   0.606   0.617   0.620   0.630
  0.635   0.646   0.656   0.661   0.666   0.670   0.674   0.680
  0.685   0.696   0.709   0.714   0.724   0.726   0.739   0.743
  0.750   0.752   0.760   0.770   0.775   0.787   0.792   0.806
  0.816   0.824   0.856   0.878   0.915   0.931   0.958   0.961
  0.983   1.009   1.025   1.030   1.053   1.059   1.079   1.096
  1.114   1.133   1.140   1.176   1.189   1.194   1.200   1.209
  1.229   1.237   1.238   1.257   1.266   1.289   1.306   1.311
  1.319   1.328   1.341   1.362   1.370   1.382   1.407   1.414
  1.428   1.443   1.449   1.458   1.466   1.473   1.505   1.515
  1.535   1.542   1.547   1.558   1.566   1.570   1.577   1.590
  1.597   1.606   1.617   1.622   1.641   1.665   1.667   1.677
  1.693   1.699   1.713   1.715   1.717   1.721   1.753   1.771
  1.780   1.789   1.796   1.804   1.820   1.841   1.851   1.875
  1.883   1.903   1.910   1.931   1.933   1.950   1.955   1.964
  1.982   1.989   2.021   2.030   2.039   2.075   2.083   2.116
  2.128   2.132   2.137   2.159   2.168   2.174   2.188   2.227
  2.240   2.259   2.287   2.304   2.366   2.368   2.428   2.450
  2.457   2.462   2.470   2.496   2.506   2.510   2.515   2.525
  2.534   2.565   2.568   2.579   2.582   2.599   2.630   2.650
  2.665   2.697   2.719   2.736   2.752   2.774   2.798   2.824
  2.829   2.836   2.855   2.865   2.880   2.891   2.916   2.930
  2.940   2.948   2.972   2.988   3.012   3.019   3.032   3.044
  3.056   3.071   3.076   3.105   3.113   3.115   3.153   3.173
  3.200   3.217   3.229   3.233   3.266   3.287   3.333   3.356
  3.381   3.403   3.411   3.458   3.590   3.610   3.652   3.684
  3.714   3.781   3.791   3.825   3.844   3.898   3.934   4.008
  4.033   4.055   4.081   4.099   4.104   4.124   4.141   4.174
  4.210   4.249   4.401   4.488   5.028   5.071   5.114   5.150
  5.188   5.254   5.293   5.368   5.411   5.492   5.599   5.630
  5.649   5.882   5.901  23.820  23.839  23.842  23.880  23.896
 23.919  23.936  23.942  23.971  24.043  49.894  49.913  49.958
 50.031  50.045
 --------------------------------------------------------------
 
          Ground-State Mulliken Net Atomic Charges

     Atom                 Charge (a.u.)
  ----------------------------------------
      1 C                     0.006173
      2 C                     0.024083
      3 C                    -0.641071
      4 C                    -0.330455
      5 O                    -0.032231
      6 O                    -0.209290
      7 O                    -0.041019
      8 O                    -0.220890
      9 C                    -0.208861
     10 C                    -0.214766
     11 C                     0.366007
     12 C                    -0.478854
     13 C                    -0.463637
     14 C                    -0.127034
     15 O                    -0.136352
     16 H                     0.278036
     17 H                     0.237692
     18 H                     0.199437
     19 H                     0.185102
     20 H                     0.275128
     21 H                     0.178440
     22 H                     0.124027
     23 H                     0.191369
     24 H                     0.124813
     25 H                     0.286760
     26 H                     0.166807
     27 H                     0.148827
     28 H                     0.146388
     29 H                     0.165372
  ----------------------------------------
  Sum of atomic charges =     0.000000

 -----------------------------------------------------------------
                    Cartesian Multipole Moments
 -----------------------------------------------------------------
    Charge (ESU x 10^10)
                 0.0000
    Dipole Moment (Debye)
         X       0.0310      Y      -2.2315      Z      -3.6640
       Tot       4.2901
    Quadrupole Moments (Debye-Ang)
        XX     -77.1465     XY       2.3810     YY     -83.2707
        XZ      -0.8935     YZ      -5.3741     ZZ     -95.0426
    Octopole Moments (Debye-Ang^2)
       XXX     -35.8018    XXY       2.3275    XYY     -23.8942
       YYY     -32.8180    XXZ      -5.8516    XYZ       5.2107
       YYZ      -1.5450    XZZ      -4.3179    YZZ      -3.1472
       ZZZ      -4.2662
    Hexadecapole Moments (Debye-Ang^3)
      XXXX   -1917.6937   XXXY      -8.4133   XXYY    -514.7180
      XYYY      43.0150   YYYY   -1542.3381   XXXZ      31.7338
      XXYZ       0.7159   XYYZ      10.3789   YYYZ     -53.9591
      XXZZ    -408.2456   XYZZ       8.9117   YYZZ    -339.7589
      XZZZ      -5.8805   YZZZ       7.6221   ZZZZ    -356.6330
 -----------------------------------------------------------------
 Calculating analytic gradient of the SCF energy
 Gradient of SCF Energy
            1           2           3           4           5           6
    1   0.0009042   0.0000658  -0.0012867  -0.0016271  -0.0003374   0.0008216
    2  -0.0011291  -0.0003513   0.0003853   0.0012847   0.0013199  -0.0014031
    3  -0.0010319  -0.0006041   0.0013582   0.0015566   0.0000141  -0.0012037
            7           8           9          10          11          12
    1   0.0011821   0.0002354  -0.0008762  -0.0000476   0.0011341  -0.0002127
    2   0.0010783  -0.0011816  -0.0008095  -0.0009967  -0.0003472  -0.0002364
    3   0.0000142  -0.0014813  -0.0002899   0.0004194  -0.0005004  -0.0005135
           13          14          15          16          17          18
    1  -0.0003667   0.0008693  -0.0002241  -0.0002778  -0.0000944   0.0004672
    2   0.0004658  -0.0010042   0.0007299  -0.0000707   0.0008720   0.0005654
    3  -0.0011024   0.0013162   0.0000472   0.0001828   0.0007068   0.0000815
           19          20          21          22          23          24
    1  -0.0002172  -0.0005466  -0.0002012  -0.0000020  -0.0001671   0.0002243
    2   0.0004867   0.0001966   0.0000540  -0.0004244   0.0001380   0.0002147
    3  -0.0002058   0.0001872   0.0002569   0.0004260   0.0002194   0.0004610
           25          26          27          28          29
    1  -0.0001891   0.0000650   0.0002373   0.0001705   0.0002972
    2   0.0002462  -0.0000698  -0.0002006   0.0003004  -0.0001135
    3  -0.0003390  -0.0001212   0.0001737   0.0001497  -0.0001776
 Max gradient component =       1.627E-03
 RMS gradient           =       6.837E-04
 Gradient time:  CPU 433.18 s  wall 24.50 s
 Geometry Optimization Parameters
   NAtoms,    NIC,     NZ,  NCons,   NDum,   NFix, NCnnct, MaxDiis
       29     227       0       2       0       0       0       0

 Cartesian Hessian Update
 Hessian Updated using BFGS Update


** CONSTRAINED OPTIMIZATION IN DELOCALIZED INTERNAL COORDINATES **
   Searching for a Minimum

   Optimization Cycle:   4

                       Coordinates (Angstroms)
     ATOM                X               Y               Z
      1  C         0.3746355655   -0.6426826001   -0.5961620324
      2  C         0.6075835887    0.9010871370   -0.4895875178
      3  C        -0.8784214842   -1.1732473110    0.0724314423
      4  C        -0.5623112559    1.7390589189    0.0023415730
      5  O        -1.1548954311   -2.4054248391   -0.4161932025
      6  O        -1.5120924904   -0.6394154448    0.9442099819
      7  O        -1.6007748478    1.6159942345   -0.8509067245
      8  O        -0.5512501770    2.4735951193    0.9538166147
      9  C        -2.8280354458    2.2551578411   -0.4541380865
     10  C        -2.2609062730   -3.1222025166    0.1681683007
     11  C         1.6214395385   -1.1587070023    0.1948214732
     12  C         2.9042407104   -0.9087659486   -0.6286471344
     13  C         3.1037616814    0.6248861317   -0.4142892304
     14  C         1.8562518224    0.9647027949    0.4268627588
     15  O         1.7165109875   -0.2028207122    1.2533074285
     16  H         0.3810363431   -0.9948644768   -1.6265278382
     17  H         0.8378238138    1.2966113754   -1.4823428853
     18  H        -3.0305183059    2.0538878494    0.5974761602
     19  H        -2.4828607548   -2.7380138854    1.1625464271
     20  H         1.5061321753   -2.1594276539    0.6056008037
     21  H         3.7335651970   -1.4800670947   -0.2096849482
     22  H         2.7893313329   -1.1963559620   -1.6751765964
     23  H         4.0084049940    0.8288814413    0.1604001403
     24  H         3.1559476732    1.1939192925   -1.3440564207
     25  H         1.9068975345    1.8546995893    1.0467571063
     26  H        -2.7602900070    3.3333486753   -0.6118788837
     27  H        -3.5998056815    1.8254091478   -1.0887545078
     28  H        -1.9620167029   -4.1679953710    0.2083435622
     29  H        -3.1342920365   -3.0069955200   -0.4760787596
   Point Group: c1    Number of degrees of freedom:    81


   Energy is   -765.861046086

              Constraints and their Current Values
                                        Value     Constraint
   Dihedral:        2   1   3   5      162.300      162.300
   Dihedral:        1   2   4   7      -61.600      -61.600
 Hessian Updated using BFGS Update

 77 Hessian modes will be used to form the next step
  Hessian Eigenvalues:
     0.017127    0.045000    0.045005    0.045024    0.045362    0.045716
     0.047594    0.048993    0.056360    0.062228    0.063965    0.066690
     0.071280    0.072208    0.074109    0.076242    0.081637    0.083082
     0.084010    0.085310    0.086995    0.088262    0.091369    0.091922
     0.097834    0.098411    0.112370    0.112621    0.114456    0.117000
     0.117291    0.121591    0.126366    0.139090    0.143557    0.159538
     0.160111    0.161060    0.161780    0.171831    0.174856    0.243957
     0.248691    0.249873    0.249999    0.250118    0.252904    0.261916
     0.267755    0.269395    0.280268    0.290212    0.301571    0.309827
     0.324742    0.331149    0.338406    0.340124    0.341586    0.341799
     0.342289    0.342505    0.343255    0.343842    0.343918    0.343944
     0.344095    0.344442    0.344564    0.345409    0.352409    0.408520
     0.415175    0.517385    0.517816    0.945333    0.955480

 Minimum Search - Taking Simple RFO Step
 Searching for Lamda that Minimizes Along All modes
 Value Taken    Lamda =  -0.00020496
 Step Taken.  Stepsize is  0.091204

                             Maximum     Tolerance    Cnvgd?
         Gradient           0.001931      0.000300      NO
         Displacement       0.052570      0.000001      NO
         Energy change     -0.000336      0.000001      NO


 New Cartesian Coordinates Obtained by Inverse Iteration

 Displacement from previous Coordinates is:  0.201768
 Adding empirical dispersion correction 
 ----------------------------------------------------------------
 Doing -D3(op) with
 s6 =   1.00000
 s8 =   0.78311
 a1 =   0.30000
 a2 =   4.25000
 n  =  10.00000
 -D3 energy without 3body term =     -0.0303527291 hartrees
 ----------------------------------------------------------------
             Standard Nuclear Orientation (Angstroms)
    I     Atom           X                Y                Z
 ----------------------------------------------------------------
    1      C       0.3740762677    -0.6407267869    -0.5989950575
    2      C       0.6114463256     0.9013563332    -0.4905126261
    3      C      -0.8790406938    -1.1675405928     0.0694609102
    4      C      -0.5605870624     1.7378504784    -0.0046380401
    5      O      -1.1615349451    -2.3990512374    -0.4196127748
    6      O      -1.5082697760    -0.6292320964     0.9435626125
    7      O      -1.5957127856     1.6176756838    -0.8629897686
    8      O      -0.5580982062     2.4648548918     0.9541261153
    9      C      -2.8279641451     2.2460219385    -0.4596318319
   10      C      -2.2628296368    -3.1151296168     0.1770454008
   11      C       1.6208094341    -1.1572918025     0.1954637690
   12      C       2.9047337564    -0.9057103936    -0.6277529293
   13      C       3.1065716449     0.6257659381    -0.4089823292
   14      C       1.8569853025     0.9647901569     0.4288509599
   15      O       1.7149361186    -0.2040930866     1.2527904043
   16      H       0.3852628507    -0.9941723372    -1.6288096884
   17      H       0.8419313376     1.2849766790    -1.4886002676
   18      H      -3.0459463279     2.0053636319     0.5807843874
   19      H      -2.4553689852    -2.7508343569     1.1848785433
   20      H       1.5064826821    -2.1594694643     0.6036021540
   21      H       3.7343525166    -1.4808289939    -0.2142531665
   22      H       2.7872044134    -1.1841278236    -1.6767902503
   23      H       4.0131379016     0.8289556504     0.1630457131
   24      H       3.1549027386     1.1930739205    -1.3402192364
   25      H       1.9030557456     1.8525638116     1.0526472168
   26      H      -2.7572855489     3.3292094420    -0.5768096637
   27      H      -3.5914074944     1.8414109511    -1.1204150845
   28      H      -1.9751148422    -4.1648942367     0.1867348646
   29      H      -3.1516365222    -2.9765134716    -0.4413213314
 ----------------------------------------------------------------
 Molecular Point Group                 C1    NOp =  1
 Largest Abelian Subgroup              C1    NOp =  1
 Nuclear Repulsion Energy =  1110.4397814839 hartrees
 There are       57 alpha and       57 beta electrons
 Applying Cartesian multipole field
    Component          Value
    ---------          -----
     (2,0,0)        1.00000E-11
     (0,2,0)        2.00000E-11
     (0,0,2)       -3.00000E-11
 Nucleus-field energy     =     0.0000000321 hartrees
 Requested basis set is 6-311++G(d,p)
 There are 160 shells and 428 basis functions
 A cutoff of  1.0D-12 yielded  10709 shell pairs
 There are     78130 function pairs (     83419 Cartesian)
[...]
  2.938   2.942   2.973   2.986   3.011   3.024   3.041   3.055
  3.058   3.071   3.096   3.111   3.120   3.124   3.153   3.176
  3.209   3.227   3.234   3.237   3.267   3.290   3.332   3.355
  3.382   3.402   3.416   3.459   3.590   3.602   3.649   3.675
  3.715   3.772   3.791   3.834   3.844   3.899   3.935   4.009
  4.027   4.055   4.080   4.102   4.112   4.125   4.142   4.174
  4.211   4.249   4.403   4.488   5.026   5.067   5.107   5.155
  5.190   5.258   5.301   5.379   5.413   5.491   5.598   5.629
  5.646   5.872   5.894  23.821  23.839  23.842  23.882  23.895
 23.924  23.934  23.942  23.972  24.046  49.901  49.911  49.958
 50.030  50.044
 --------------------------------------------------------------
 
          Ground-State Mulliken Net Atomic Charges

     Atom                 Charge (a.u.)
  ----------------------------------------
      1 C                     0.053456
      2 C                     0.098070
      3 C                    -0.657046
      4 C                    -0.406436
      5 O                    -0.027154
      6 O                    -0.202471
      7 O                    -0.044850
      8 O                    -0.220087
      9 C                    -0.189319
     10 C                    -0.237389
     11 C                     0.349012
     12 C                    -0.470221
     13 C                    -0.459579
     14 C                    -0.149216
     15 O                    -0.142410
     16 H                     0.285059
     17 H                     0.234671
     18 H                     0.189695
     19 H                     0.184307
     20 H                     0.266832
     21 H                     0.180181
     22 H                     0.123282
     23 H                     0.192389
     24 H                     0.125231
     25 H                     0.285964
     26 H                     0.165761
     27 H                     0.148846
     28 H                     0.151266
     29 H                     0.172155
  ----------------------------------------
  Sum of atomic charges =     0.000000

 -----------------------------------------------------------------
                    Cartesian Multipole Moments
 -----------------------------------------------------------------
    Charge (ESU x 10^10)
                 0.0000
    Dipole Moment (Debye)
         X       0.0345      Y      -2.0964      Z      -3.7483
       Tot       4.2948
    Quadrupole Moments (Debye-Ang)
        XX     -76.7710     XY       2.3867     YY     -83.4486
        XZ      -0.7553     YZ      -5.1320     ZZ     -95.3378
    Octopole Moments (Debye-Ang^2)
       XXX     -37.6599    XXY       2.2895    XYY     -23.6788
       YYY     -32.0580    XXZ      -5.9046    XYZ       4.8984
       YYZ      -2.2574    XZZ      -3.5694    YZZ      -3.1536
       ZZZ      -5.1596
    Hexadecapole Moments (Debye-Ang^3)
      XXXX   -1933.7495   XXXY     -20.6343   XXYY    -512.8690
      XYYY      41.1244   YYYY   -1511.3361   XXXZ      28.2385
      XXYZ      -2.5026   XYYZ      13.0385   YYYZ     -50.3796
      XXZZ    -415.4567   XYZZ       4.8883   YYZZ    -330.3722
      XZZZ      -4.4832   YZZZ      -3.2532   ZZZZ    -357.3441
 -----------------------------------------------------------------
 Calculating analytic gradient of the SCF energy
 Gradient of SCF Energy
            1           2           3           4           5           6
    1   0.0000823  -0.0000343  -0.0000275   0.0000077   0.0000109  -0.0000074
    2   0.0000000   0.0000186   0.0000134  -0.0000297   0.0000016  -0.0000206
    3   0.0000070   0.0000242   0.0000159   0.0000232  -0.0000203  -0.0000352
            7           8           9          10          11          12
    1  -0.0000023  -0.0000104  -0.0000051   0.0000010  -0.0000401  -0.0000040
    2   0.0000006   0.0000054   0.0000058  -0.0000163  -0.0000163  -0.0000143
    3  -0.0000328  -0.0000159  -0.0000171  -0.0000180  -0.0000628   0.0000232
           13          14          15          16          17          18
    1   0.0000308   0.0000059  -0.0000142  -0.0000033   0.0000196  -0.0000060
    2   0.0000179  -0.0000050   0.0000604   0.0000012  -0.0000039  -0.0000118
    3   0.0000344   0.0000372   0.0000486  -0.0000050   0.0000129  -0.0000303
           19          20          21          22          23          24
    1  -0.0000113   0.0000000  -0.0000033   0.0000185  -0.0000043  -0.0000003
    2  -0.0000031  -0.0000021   0.0000067   0.0000091  -0.0000000   0.0000031
    3  -0.0000295   0.0000074   0.0000416   0.0000234   0.0000359   0.0000370
           25          26          27          28          29
    1  -0.0000155  -0.0000027   0.0000053   0.0000080   0.0000019
    2  -0.0000013  -0.0000062  -0.0000028  -0.0000047  -0.0000058
    3   0.0000264  -0.0000245  -0.0000335  -0.0000297  -0.0000437
 Max gradient component =       8.233E-05
 RMS gradient           =       2.320E-05
 Gradient time:  CPU 436.60 s  wall 24.67 s
 Geometry Optimization Parameters
   NAtoms,    NIC,     NZ,  NCons,   NDum,   NFix, NCnnct, MaxDiis
       29     227       0       0       0       0       0       0

 Cartesian Hessian Update
 Hessian Updated using BFGS Update


** GEOMETRY OPTIMIZATION IN DELOCALIZED INTERNAL COORDINATES **
   Searching for a Minimum

   Optimization Cycle:   8

                       Coordinates (Angstroms)
     ATOM                X               Y               Z
      1  C         0.3994043162   -0.6419589289   -0.5939252800
      2  C         0.6023051047    0.9048971876   -0.4826194607
      3  C        -0.8436729025   -1.1950236408    0.0691231551
      4  C        -0.5848154046    1.7121939324    0.0130859913
      5  O        -1.1545185741   -2.3968258270   -0.4706849470
      6  O        -1.4566420307   -0.6989329057    0.9795307975
      7  O        -1.6329338174    1.5502152162   -0.8240584340
      8  O        -0.5854538453    2.4566900886    0.9583474284
      9  C        -2.8629481192    2.1789662151   -0.4207877955
     10  C        -2.2778511710   -3.0802995154    0.1170164499
     11  C         1.6577277783   -1.1345725385    0.1921077751
     12  C         2.9325692216   -0.8493733447   -0.6360348424
     13  C         3.1045997957    0.6840699204   -0.4041529083
     14  C         1.8481189321    0.9927012324    0.4344239638
     15  O         1.7350143731   -0.1841997127    1.2550218342
     16  H         0.4156123540   -0.9878994788   -1.6264199966
     17  H         0.8237381180    1.2992861762   -1.4784000692
     18  H        -3.1980268235    1.7576564427    0.5282867960
     19  H        -2.1097724130   -3.2477335059    1.1817908632
     20  H         1.5730843429   -2.1418446165    0.5949289309
     21  H         3.7765463001   -1.4122245291   -0.2351668070
     22  H         2.8148365643   -1.1186091981   -1.6877082273
     23  H         4.0052588244    0.8995508423    0.1723407302
     24  H         3.1459948717    1.2593665147   -1.3311521387
     25  H         1.8785737095    1.8772942640    1.0631536605
     26  H        -2.7275241894    3.2561586272   -0.3150558023
     27  H        -3.5757978483    1.9577970058   -1.2124521051
     28  H        -2.3518603422   -4.0264969755   -0.4145516933
     29  H        -3.1891838906   -2.4947652707   -0.0148091173
   Point Group: c1    Number of degrees of freedom:    81


   Energy is   -765.862514939

 Hessian Updated using BFGS Update

 81 Hessian modes will be used to form the next step
  Hessian Eigenvalues:
     0.000879    0.003833    0.006596    0.009819    0.010487    0.013221
     0.020728    0.021780    0.022204    0.026675    0.030948    0.036415
     0.039615    0.042437    0.045523    0.045659    0.049838    0.052042
     0.052739    0.055549    0.056970    0.058637    0.061384    0.064299
     0.064758    0.065800    0.073803    0.075407    0.092537    0.096028
     0.100569    0.101196    0.101818    0.105941    0.106077    0.118199
     0.135681    0.159548    0.159920    0.159993    0.160021    0.160179
     0.160619    0.166057    0.175747    0.227746    0.244456    0.246689
     0.248424    0.249579    0.249852    0.250311    0.252340    0.257923
     0.264570    0.273700    0.281144    0.303301    0.311196    0.340941
     0.344461    0.345555    0.346107    0.346810    0.346843    0.346941
     0.347001    0.347147    0.347194    0.348576    0.349984    0.350429
     0.350450    0.350709    0.353165    0.395924    0.398059    0.543121
     0.547686    1.026618    1.032624

 Minimum Search - Taking Simple RFO Step
 Searching for Lamda that Minimizes Along All modes
 Value Taken    Lamda =   0.00000000
 Step Taken.  Stepsize is  0.020367

                             Maximum     Tolerance    Cnvgd?
         Gradient           0.000049      0.000300     YES
         Displacement       0.012138      0.000001      NO
         Energy change     -0.000000      0.000001     YES

 Final energy is   -765.862514939162     


 ******************************
 **  OPTIMIZATION CONVERGED  **
 ******************************

                       Coordinates (Angstroms)
     ATOM                X               Y               Z
      1  C         0.3994043162   -0.6419589289   -0.5939252800
      2  C         0.6023051047    0.9048971876   -0.4826194607
      3  C        -0.8436729025   -1.1950236408    0.0691231551
      4  C        -0.5848154046    1.7121939324    0.0130859913
      5  O        -1.1545185741   -2.3968258270   -0.4706849470
      6  O        -1.4566420307   -0.6989329057    0.9795307975
      7  O        -1.6329338174    1.5502152162   -0.8240584340
      8  O        -0.5854538453    2.4566900886    0.9583474284
      9  C        -2.8629481192    2.1789662151   -0.4207877955
     10  C        -2.2778511710   -3.0802995154    0.1170164499
     11  C         1.6577277783   -1.1345725385    0.1921077751
     12  C         2.9325692216   -0.8493733447   -0.6360348424
     13  C         3.1045997957    0.6840699204   -0.4041529083
     14  C         1.8481189321    0.9927012324    0.4344239638
     15  O         1.7350143731   -0.1841997127    1.2550218342
     16  H         0.4156123540   -0.9878994788   -1.6264199966
     17  H         0.8237381180    1.2992861762   -1.4784000692
     18  H        -3.1980268235    1.7576564427    0.5282867960
     19  H        -2.1097724130   -3.2477335059    1.1817908632
     20  H         1.5730843429   -2.1418446165    0.5949289309
     21  H         3.7765463001   -1.4122245291   -0.2351668070
     22  H         2.8148365643   -1.1186091981   -1.6877082273
     23  H         4.0052588244    0.8995508423    0.1723407302
     24  H         3.1459948717    1.2593665147   -1.3311521387
     25  H         1.8785737095    1.8772942640    1.0631536605
     26  H        -2.7275241894    3.2561586272   -0.3150558023
     27  H        -3.5757978483    1.9577970058   -1.2124521051
     28  H        -2.3518603422   -4.0264969755   -0.4145516933
     29  H        -3.1891838906   -2.4947652707   -0.0148091173

Z-matrix Print:
$molecule
0 1
O 
C  1 1.427924
H  2 1.088130 1 110.166550
C  1 1.439191 2 97.128189 3 179.456939 0
H  4 1.085695 1 109.772851 2 177.518466 0
C  4 1.541820 1 102.149698 2 -57.577785 0
H  6 1.090855 4 110.235031 1 -80.733634 0
H  6 1.091791 4 112.781367 1 158.135208 0
C  2 1.546732 1 103.368762 3 -124.154059 0
H  9 1.090777 2 110.231493 1 86.736759 0
H  9 1.091955 2 112.416365 1 -152.627072 0
C  4 1.549429 1 103.175590 2 55.294472 0
H  12 1.093688 4 110.833249 1 -145.377906 0
C  12 1.518785 4 113.901723 1 96.112842 0
O  14 1.203243 12 125.852877 4 6.034972 0
O  14 1.351148 12 109.900214 4 -178.375484 0
C  16 1.439059 14 115.914791 12 175.412442 0
H  17 1.088027 16 105.502870 14 179.075938 0
H  17 1.090808 16 110.641034 14 59.372795 0
H  17 1.091111 16 109.726705 14 -61.658916 0
C  2 1.563296 1 102.011962 3 122.031460 0
H  21 1.089028 2 111.384526 1 157.340977 0
C  21 1.513524 2 109.006297 1 -83.404733 0
O  23 1.204441 21 126.770620 2 87.307486 0
O  23 1.353642 21 109.775176 2 -89.703619 0
C  25 1.440280 23 115.956812 21 176.648843 0
H  26 1.087810 25 105.452134 23 -178.056220 0
H  26 1.090885 25 110.545144 23 -58.336510 0
H  26 1.091218 25 110.330871 23 62.560577 0
$end

 
 --------------------------------------------------------------
 
                    Orbital Energies (a.u.)
 --------------------------------------------------------------
 
 Alpha MOs
 -- Occupied --
-19.177 -19.167 -19.131 -19.119 -19.111 -10.308 -10.302 -10.240
-10.232 -10.229 -10.222 -10.207 -10.203 -10.183 -10.180  -1.118
 -1.108  -1.064  -1.031  -1.023  -0.831  -0.784  -0.777  -0.738
 -0.725  -0.654  -0.605  -0.597  -0.577  -0.559  -0.546  -0.520
 -0.504  -0.492  -0.487  -0.485  -0.478  -0.471  -0.459  -0.431
 -0.421  -0.420  -0.412  -0.396  -0.386  -0.374  -0.368  -0.366
 -0.360  -0.358  -0.339  -0.333  -0.320  -0.307  -0.291  -0.281
 -0.273
 -- Virtual --
 -0.020  -0.011  -0.004   0.001   0.007   0.012   0.013   0.022
  0.027   0.030   0.037   0.039   0.046   0.048   0.051   0.061
  0.064   0.072   0.079   0.088   0.089   0.092   0.098   0.102
  0.104   0.109   0.114   0.114   0.117   0.120   0.123   0.125
  0.130   0.133   0.137   0.140   0.145   0.147   0.149   0.152
  0.153   0.158   0.159   0.162   0.163   0.175   0.176   0.179
  0.182   0.184   0.189   0.191   0.195   0.197   0.203   0.207
  0.212   0.221   0.228   0.229   0.233   0.240   0.247   0.250
  0.255   0.268   0.271   0.275   0.280   0.286   0.291   0.294
  0.298   0.303   0.308   0.314   0.315   0.325   0.327   0.332
  0.336   0.346   0.349   0.351   0.356   0.358   0.361   0.367
  0.372   0.376   0.384   0.385   0.388   0.399   0.404   0.408
  0.410   0.414   0.429   0.433   0.450   0.465   0.476   0.481
  0.489   0.497   0.515   0.522   0.527   0.542   0.557   0.558
  0.572   0.584   0.588   0.598   0.610   0.617   0.626   0.627
  0.635   0.647   0.651   0.655   0.664   0.670   0.677   0.680
  0.685   0.696   0.702   0.712   0.712   0.735   0.739   0.745
  0.749   0.758   0.762   0.771   0.776   0.782   0.789   0.802
  0.817   0.830   0.842   0.880   0.917   0.926   0.953   0.962
  0.983   1.000   1.030   1.037   1.044   1.059   1.078   1.090
  1.109   1.128   1.138   1.167   1.185   1.193   1.203   1.209
  1.227   1.234   1.239   1.258   1.263   1.284   1.298   1.310
  1.320   1.331   1.339   1.362   1.374   1.395   1.404   1.416
  1.419   1.434   1.444   1.459   1.466   1.473   1.501   1.515
  1.532   1.537   1.545   1.548   1.559   1.577   1.579   1.580
  1.597   1.615   1.617   1.626   1.642   1.668   1.676   1.681
  1.698   1.705   1.707   1.714   1.717   1.729   1.754   1.763
  1.783   1.794   1.799   1.807   1.819   1.843   1.850   1.867
  1.877   1.900   1.909   1.931   1.935   1.946   1.959   1.961
  1.988   1.997   2.017   2.036   2.040   2.077   2.092   2.109
  2.115   2.136   2.144   2.167   2.172   2.178   2.191   2.219
  2.233   2.258   2.287   2.303   2.360   2.364   2.425   2.438
  2.454   2.461   2.471   2.498   2.501   2.505   2.514   2.520
  2.535   2.543   2.566   2.578   2.589   2.627   2.644   2.658
  2.672   2.688   2.717   2.738   2.751   2.774   2.798   2.822
  2.830   2.839   2.850   2.861   2.874   2.888   2.910   2.927
  2.938   2.942   2.973   2.986   3.011   3.024   3.041   3.055
  3.058   3.071   3.096   3.111   3.120   3.124   3.153   3.176
  3.209   3.227   3.234   3.237   3.267   3.290   3.332   3.355
  3.382   3.402   3.416   3.459   3.590   3.602   3.649   3.675
  3.715   3.772   3.791   3.834   3.844   3.899   3.935   4.009
  4.027   4.055   4.080   4.102   4.112   4.125   4.142   4.174
  4.211   4.249   4.403   4.488   5.026   5.067   5.107   5.155
  5.190   5.258   5.301   5.379   5.413   5.491   5.598   5.629
  5.646   5.872   5.894  23.821  23.839  23.842  23.882  23.895
 23.924  23.934  23.942  23.972  24.046  49.901  49.911  49.958
 50.030  50.044
 --------------------------------------------------------------
 
          Ground-State Mulliken Net Atomic Charges

     Atom                 Charge (a.u.)
  ----------------------------------------
      1 C                     0.053456
      2 C                     0.098070
      3 C                    -0.657046
      4 C                    -0.406436
      5 O                    -0.027154
      6 O                    -0.202471
      7 O                    -0.044850
      8 O                    -0.220087
      9 C                    -0.189319
     10 C                    -0.237389
     11 C                     0.349012
     12 C                    -0.470221
     13 C                    -0.459579
     14 C                    -0.149216
     15 O                    -0.142410
     16 H                     0.285059
     17 H                     0.234671
     18 H                     0.189695
     19 H                     0.184307
     20 H                     0.266832
     21 H                     0.180181
     22 H                     0.123282
     23 H                     0.192389
     24 H                     0.125231
     25 H                     0.285964
     26 H                     0.165761
     27 H                     0.148846
     28 H                     0.151266
     29 H                     0.172155
  ----------------------------------------
  Sum of atomic charges =     0.000000

 -----------------------------------------------------------------
                    Cartesian Multipole Moments
 -----------------------------------------------------------------
    Charge (ESU x 10^10)
                 0.0000
    Dipole Moment (Debye)
         X       0.0345      Y      -2.0964      Z      -3.7483
       Tot       4.2948
    Quadrupole Moments (Debye-Ang)
        XX     -76.7710     XY       2.3867     YY     -83.4486
        XZ      -0.7553     YZ      -5.1320     ZZ     -95.3378
    Octopole Moments (Debye-Ang^2)
       XXX     -37.6599    XXY       2.2895    XYY     -23.6788
       YYY     -32.0580    XXZ      -5.9046    XYZ       4.8984
       YYZ      -2.2574    XZZ      -3.5694    YZZ      -3.1536
       ZZZ      -5.1596
    Hexadecapole Moments (Debye-Ang^3)
      XXXX   -1933.7495   XXXY     -20.6343   XXYY    -512.8690
      XYYY      41.1244   YYYY   -1511.3361   XXXZ      28.2385
      XXYZ      -2.5026   XYYZ      13.0385   YYYZ     -50.3796
      XXZZ    -415.4567   XYZZ       4.8883   YYZZ    -330.3722
      XZZZ      -4.4832   YZZZ      -3.2532   ZZZZ    -357.3441
 -----------------------------------------------------------------
Archival summary:
1\1\nid05255\OPT\ProcedureUnspecified\BasisUnspecified\51014\junteng\TueOct314:16:342017TueOct314:16:342017\0\\#,OPT,ProcedureUnspecified,BasisUnspecified,\\0,1\O\C,1,1.42792\H,2,1.08813,1,110.167\C,1,1.43919,2,97.1282,3,179.457,0\H,4,1.08569,1,109.773,2,177.518,0\C,4,1.54182,1,102.15,2,-57.5778,0\H,6,1.09085,4,110.235,1,-80.7336,0\H,6,1.09179,4,112.781,1,158.135,0\C,2,1.54673,1,103.369,3,-124.154,0\H,9,1.09078,2,110.231,1,86.7368,0\H,9,1.09196,2,112.416,1,-152.627,0\C,4,1.54943,1,103.176,2,55.2945,0\H,12,1.09369,4,110.833,1,-145.378,0\C,12,1.51878,4,113.902,1,96.1128,0\O,14,1.20324,12,125.853,4,6.03497,0\O,14,1.35115,12,109.9,4,-178.375,0\C,16,1.43906,14,115.915,12,175.412,0\H,17,1.08803,16,105.503,14,179.076,0\H,17,1.09081,16,110.641,14,59.3728,0\H,17,1.09111,16,109.727,14,-61.6589,0\C,2,1.5633,1,102.012,3,122.031,0\H,21,1.08903,2,111.385,1,157.341,0\C,21,1.51352,2,109.006,1,-83.4047,0\O,23,1.20444,21,126.771,2,87.3075,0\O,23,1.35364,21,109.775,2,-89.7036,0\C,25,1.44028,23,115.957,21,176.649,0\H,26,1.08781,25,105.452,23,-178.056,0\H,26,1.09088,25,110.545,23,-58.3365,0\H,26,1.09122,25,110.331,23,62.5606,0\\\@

 Total job time:  588.78s(wall), 11900.18s(cpu) 
 Tue Oct  3 14:16:34 2017

        *************************************************************
        *                                                           *
        *  Thank you very much for using Q-Chem.  Have a nice day.  *
        *                                                           *
        *************************************************************


