nid05906 10.128.23
Q-Chem Developer Version! Running on 10.128.23.*
                  Welcome to Q-Chem
     A Quantum Leap Into The Future Of Chemistry


 Q-Chem 5.0, Q-Chem, Inc., Pleasanton, CA (2017)

 Yihan Shao,  Zhengting Gan,  E. Epifanovsky,  A. T. B. Gilbert,  M. Wormit,  
 J. Kussmann,  A. W. Lange,  A. Behn,  Jia Deng,  Xintian Feng,  D. Ghosh,  
 M. Goldey,  P. R. Horn,  L. D. Jacobson,  I. Kaliman,  T. Kus,  A. Landau,  
 Jie Liu,  E. I. Proynov,  R. M. Richard,  R. P. Steele,  E. J. Sundstrom,  
 H. L. Woodcock III,  P. M. Zimmerman,  D. Zuev,  B. Albrecht,  E. Alguire,  
 S. A. Baeppler,  Z. Benda,  Y. A. Bernard,  E. J. Berquist,  K. B. Bravaya,  
 D. Casanova,  Chun-Min Chang,  Yunqing Chen,  A. Chien,  K. D. Closser,  
 M. P. Coons,  S. Dasgupta,  M. Diedenhofen,  Hainam Do,  R. G. Edgar,  
 Po-Tung Fang,  S. Fatehi,  Qingguo Feng,  Qinghui Ge,  A. Ghysels,  
 J. Gomes,  J. Gonthier,  A. Gunina,  M. W. D. Hanson-Heine,  
 P. H. P. Harbach,  A. W. Hauser,  J. E. Herr,  E. G. Hohenstein,  
 Z. C. Holden,  Kerwin Hui,  T.-C. Jagau,  Hyunjun Ji,  B. Kaduk,  
 K. Khistyaev,  Jaehoon Kim,  P. Klunzinger,  K. Koh,  D. Kosenkov,  
 T. Kowalczyk,  C. M. Krauter,  A. Kunitsa,  Ka Un Lao,  A. Laurent,  
 K. V. Lawler,  Joonho Lee,  D. Lefrancois,  S. Lehtola,  D. S. Levine,  
 Yi-Pei Li,  You-Sheng Lin,  Fenglai Liu,  E. Livshits,  A. Luenser,  
 P. Manohar,  E. Mansoor,  S. F. Manzer,  Shan-Ping Mao,  Yuezhi Mao,  
 N. Mardirossian,  A. V. Marenich,  L. A. Martinez-Martinez,  S. A. Maurer,  
 N. J. Mayhall,  S. C. McKenzie,  J.-M. Mewes,  A. F. Morrison,  K. Nanda,  
 T. S. Nguyen-Beck,  R. Olivares-Amaya,  J. A. Parkhill,  T. M. Perrine,  
 F. Plasser,  S. Prager,  A. Prociuk,  D. R. Rehn,  F. Rob,  M. Schneider,  
 N. Sergueev,  S. M. Sharada,  S. Sharma,  D. W. Small,  T. Stauch,  
 T. Stein,  Yu-Chuan Su,  A. J. W. Thom,  T. Tsuchimochi,  L. Vogt,  
 O. Vydrov,  M. A. Watson,  J. Wenzel,  M. de Wergifosse,  T. A. Wesolowski,  
 A. White,  J. Witte,  A. Yamada,  Jun Yang,  K. Yao,  S. Yeganeh,  
 S. R. Yost,  Zhi-Qiang You,  A. Zech,  Igor Ying Zhang,  Xing Zhang,  
 Yan Zhao,  Ying Zhu,  B. R. Brooks,  G. K. L. Chan,  C. J. Cramer,  
 M. S. Gordon,  W. J. Hehre,  A. Klamt,  M. W. Schmidt,  C. D. Sherrill,  
 D. G. Truhlar,  A. Aspuru-Guzik,  R. Baer,  A. T. Bell,  N. A. Besley,  
 Jeng-Da Chai,  A. Dreuw,  B. D. Dunietz,  T. R. Furlani,  Chao-Ping Hsu,  
 Yousung Jung,  Jing Kong,  D. S. Lambrecht,  WanZhen Liang,  C. Ochsenfeld,  
 V. A. Rassolov,  L. V. Slipchenko,  J. E. Subotnik,  T. Van Voorhis,  
 J. M. Herbert,  A. I. Krylov,  P. M. W. Gill,  M. Head-Gordon

 Contributors to earlier versions of Q-Chem not listed above: 
 R. D. Adamson,  B. Austin,  J. Baker,  G. J. O. Beran,  K. Brandhorst,  
 S. T. Brown,  E. F. C. Byrd,  A. K. Chakraborty,  C.-L. Cheng,  
 Siu Hung Chien,  D. M. Chipman,  D. L. Crittenden,  H. Dachsel,  
 R. A. DiStasio Jr.,  R. J. Doerksen,  A. D. Dutoi,  L. Fusti-Molnar,  
 W. A. Goddard III,  A. Golubeva-Zadorozhnaya,  S. R. Gwaltney,  G. Hawkins,  
 A. Heyden,  S. Hirata,  G. Kedziora,  F. J. Keil,  C. Kelley,  Jihan Kim,  
 R. A. King,  R. Z. Khaliullin,  P. P. Korambath,  W. Kurlancheek,  
 A. M. Lee,  M. S. Lee,  S. V. Levchenko,  Ching Yeh Lin,  D. Liotard,  
 R. C. Lochan,  I. Lotan,  P. E. Maslen,  N. Nair,  D. P. O'Neill,  
 D. Neuhauser,  E. Neuscamman,  C. M. Oana,  R. Olson,  B. Peters,  
 R. Peverati,  P. A. Pieniazek,  Y. M. Rhee,  J. Ritchie,  M. A. Rohrdanz,  
 E. Rosta,  N. J. Russ,  H. F. Schaefer III,  N. E. Schultz,  N. Shenvi,  
 A. C. Simmonett,  A. Sodt,  D. Stuck,  K. S. Thanthiriwatte,  V. Vanovschi,  
 Tao Wang,  A. Warshel,  C. F. Williams,  Q. Wu,  X. Xu,  W. Zhang

 Please cite Q-Chem as follows:
 Y. Shao et al., Mol. Phys. 113, 184-215 (2015)
 DOI: 10.1080/00268976.2014.952696

 Q-Chem 5.0.0 for Intel X86 EM64T Linux

 Parts of Q-Chem use Armadillo 5.200.1 (Boston Tea Smuggler).
 http://arma.sourceforge.net/

 Q-Chem begins on Wed Oct 18 12:18:18 2017  

Host: nid05906
0

     Scratch files written to /global/cscratch1/sd/junteng/scratch/15/opt_10d01.save//

Checking the input file for inconsistencies... 	...done.

--------------------------------------------------------------
User input:
--------------------------------------------------------------
$molecule
0  1
C          0.19900        0.79300        0.83500
C          0.89200       -0.61700        0.84600
C         -1.06800        0.92100        0.02100
C          0.17100       -1.73800        0.12400
O         -1.86400        1.88800        0.53500
O         -1.33700        0.31100       -0.99200
O         -1.02000       -1.98700        0.71400
O          0.60700       -2.37300       -0.80900
C         -1.84700       -2.93600        0.02100
C         -3.06700        2.14100       -0.21000
C          1.35100        1.71400        0.24200
C          1.57500        1.29100       -1.20000
C          2.15100        0.08100       -1.18100
C          2.32000       -0.32100        0.27500
C          2.57900        1.06200        0.91700
H         -2.09800       -2.54900       -0.97100
H         -3.68400        1.24000       -0.26000
H          2.34000       -0.57500       -2.02000
H         -2.74500       -3.04600        0.63000
H         -1.33200       -3.89500       -0.08500
H         -3.58600        2.93400        0.33100
H         -2.82900        2.46000       -1.22900
H          3.03700       -1.11800        0.47700
H          1.17400        2.77600        0.42300
H          3.52200        1.50900        0.58800
H          2.53200        1.06200        2.01300
H          1.20000        1.82500       -2.06500
H         -0.02000        1.11800        1.85500
H          0.97400       -0.93600        1.89200
$end


$opt
CONSTRAINT
tors    1    2    4    8    119.9
tors    2    1    3    6    -31.3
ENDCONSTRAINT
$end

$rem
JOBTYPE                   OPT
METHOD                    B3LYP
DFT_D                     D3_OP
BASIS                     STO-3G
GEOM_OPT_MAX_CYCLES       500
SYMMETRY                  False
THRESH                    12
SCF_CONVERGENCE           8
MAX_SUB_FILE_NUM          128
MEM_STATIC                400
MEM_TOTAL                 4000
$end

--------------------------------------------------------------
 Adding empirical dispersion correction 
 ----------------------------------------------------------------
 Doing -D3(op) with
 s6 =   1.00000
 s8 =   0.78311
 a1 =   0.30000
 a2 =   4.25000
 n  =  10.00000
 -D3 energy without 3body term =     -0.0336375159 hartrees
 ----------------------------------------------------------------
             Standard Nuclear Orientation (Angstroms)
    I     Atom           X                Y                Z
 ----------------------------------------------------------------
    1      C       0.1989940371     0.8074510526     0.8080250660
    2      C       0.8891541415    -0.6037128583     0.8356917781
    3      C      -1.0758453005     0.9246568840     0.0047091527
    4      C       0.1586283758    -1.7350114201     0.1398026564
    5      O      -1.8646458999     1.9018897492     0.5103874512
    6      O      -1.3562596307     0.2984114689    -0.9951980847
    7      O      -1.0269016384    -1.9714527002     0.7457697400
    8      O       0.5839283474    -2.3864911311    -0.7867523178
    9      C      -1.8627752987    -2.9300541365     0.0770564154
   10      C      -3.0745376958     2.1450882086    -0.2266738431
   11      C       1.3468847473     1.7158337503     0.1882010652
   12      C       1.5555249659     1.2682891679    -1.2486851884
   13      C       2.1291848344     0.0574919437    -1.2151973195
   14      C       2.3119595507    -0.3204901694     0.2455641002
   15      C       2.5802480403     1.0724660693     0.8617038598
   16      H      -2.1229193825    -2.5591305236    -0.9187220385
   17      H      -3.6938691767     1.2447590618    -0.2554130863
   18      H       2.3083978873    -0.6128616389    -2.0449483400
   19      H      -2.7548427307    -3.0278522078     0.6967629862
   20      H      -1.3508481761    -3.8918402528    -0.0180229600
   21      H      -3.5864414223     2.9481782706     0.3061412536
   22      H      -2.8461189950     2.4464776334    -1.2531996887
   23      H       3.0293023570    -1.1156021498     0.4536944365
   24      H       1.1739055371     2.7811037441     0.3531617673
   25      H       3.5208200112     1.5117961161     0.5158534911
   26      H       2.5442514328     1.0908916643     1.9579655721
   27      H       1.1729659269     1.7885918322    -2.1187080152
   28      H      -0.0090847291     1.1499443065     1.8245818023
   29      H       0.9809896454    -0.9053659030     1.8860120534
 ----------------------------------------------------------------
 Molecular Point Group                 C1    NOp =  1
 Largest Abelian Subgroup              C1    NOp =  1
 Nuclear Repulsion Energy =  1083.8879373244 hartrees
 There are       56 alpha and       56 beta electrons
 Requested basis set is STO-3G
 There are 44 shells and 89 basis functions

 Total QAlloc Memory Limit   4000 MB
 Mega-Array Size       392 MB
 MEM_STATIC part       400 MB
 A cutoff of  1.0D-12 yielded    879 shell pairs
 There are      3936 function pairs
 
 -------------------------------------------------------
 OpenMP Integral Computing Module                       
 Release: version 1.0, May 2013, Q-Chem Inc. Pittsburgh 
 -------------------------------------------------------
 Integral Job Info:
 Integral job number is                      11
 Integral operator is                         1
 short-range coefficients                     0
 long-range coefficients              100000000
 Omega coefficients                           0
 if combine SR and LR in K                    0
 Integral screening is                        0
 Integral computing path is                   2
 max size of driver memory is            800000
 size of driver memory is                 45569
 size of scratch memory is               945100
 max col of scratch BK array                289
 max len of scratch array in speh3           22
 max len of scratch index in speh4            8
 max int batch size is                      520
 min int batch size is                       52
 fixed nKL is                                52
 max L of basis functions is                  1
 order of int derivative is                   0
 number of shells is                         44
 number of basis is                          89
 number of cartesian basis is                89
 number of contracted shell pairs           879
 number of primitive shell pairs           5007
 maxK2 (contraction) of shell pair            9
 max number of K2 of shell pair               1
 max number of CS2 of shell pair            131
 max number of PS2 of shell pair            624
 mem total for path MDJ                   29034
 -------------------------------------------------------
 Smallest overlap matrix eigenvalue = 1.83E-01

 Scale SEOQF with 1.000000e-01/1.000000e-01/1.000000e-01

 Standard Electronic Orientation quadrupole field applied
 Nucleus-field energy     =     0.0000000272 hartrees
 Guess from superposition of atomic densities
 Warning:  Energy on first SCF cycle will be non-variational
 A restricted hybrid HF-DFT SCF calculation will be
 performed using Pulay DIIS extrapolation
 Exchange:     0.2000 Hartree-Fock + 0.0800 Slater + 0.7200 B88
 Correlation:  0.1900 VWN1RPA + 0.8100 LYP
 Using SG-1 standard quadrature grid
 Dispersion:   Grimme D3
 SCF converges when DIIS error is below 1.0E-08
 -------------------------------------------------------
 OpenMP Integral computing Module                
 Release: version 1.0, May 2013, Q-Chem Inc. Pittsburgh 
 -------------------------------------------------------
 -------------------------------------------------------
 OpenMP BLAS3 based DFT computing Module                
 Release: version 1.0, May 2013, Q-Chem Inc. Pittsburgh 
 -------------------------------------------------------
 ---------------------------------------
  Cycle       Energy         DIIS Error
 ---------------------------------------
    1    -718.6245981007      1.15E-01
    2    -718.8979377682      1.33E-02
    3    -718.0605613698      3.25E-02
    4    -719.1043518166      4.31E-03
    5    -719.1230672730      1.45E-03
    6    -719.1253651019      3.02E-04
    7    -719.1254599912      1.02E-04
    8    -719.1254711095      3.08E-05
    9    -719.1254720077      1.37E-05
   10    -719.1254722204      2.81E-06
   11    -719.1254722302      4.65E-07
   12    -719.1254722305      1.22E-07
   13    -719.1254722305      2.53E-08
   14    -719.1254722305      7.45E-09 Convergence criterion met
 ---------------------------------------
 SCF time:  CPU 60.07 s  wall 2.55 s
 SCF   energy in the final basis set = -719.1254722305
 Total energy in the final basis set = -719.1254722305
 
 --------------------------------------------------------------
 
                    Orbital Energies (a.u.)
 --------------------------------------------------------------
 
 Alpha MOs
 -- Occupied --
-18.940 -18.930 -18.859 -18.854 -10.107 -10.102 -10.073 -10.066
-10.029 -10.027 -10.026 -10.024 -10.013  -9.983  -9.982  -1.044
 -1.035  -0.950  -0.944  -0.844  -0.730  -0.707  -0.677  -0.671
 -0.656  -0.582  -0.535  -0.511  -0.497  -0.482  -0.473  -0.461
 -0.433  -0.427  -0.416  -0.408  -0.398  -0.382  -0.366  -0.348
 -0.339  -0.332  -0.326  -0.321  -0.311  -0.301  -0.289  -0.283
 -0.264  -0.245  -0.237  -0.184  -0.177  -0.171  -0.147  -0.139
 -- Virtual --
  0.113   0.124   0.137   0.272   0.288   0.322   0.336   0.344
  0.378   0.385   0.391   0.405   0.422   0.430   0.434   0.434
  0.442   0.453   0.455   0.461   0.465   0.472   0.482   0.494
  0.495   0.506   0.521   0.546   0.549   0.601   0.717   0.723
  0.774
 --------------------------------------------------------------
 
          Ground-State Mulliken Net Atomic Charges

     Atom                 Charge (a.u.)
  ----------------------------------------
      1 C                    -0.075094
      2 C                    -0.074400
      3 C                     0.237094
      4 C                     0.242844
      5 O                    -0.190498
      6 O                    -0.240767
      7 O                    -0.195231
      8 O                    -0.237328
      9 C                    -0.126640
     10 C                    -0.126474
     11 C                    -0.058823
     12 C                    -0.093080
     13 C                    -0.081975
     14 C                    -0.057488
     15 C                    -0.128727
     16 H                     0.098175
     17 H                     0.094141
     18 H                     0.087853
     19 H                     0.094280
     20 H                     0.093379
     21 H                     0.097204
     22 H                     0.093718
     23 H                     0.078515
     24 H                     0.076145
     25 H                     0.077095
     26 H                     0.069073
     27 H                     0.078164
     28 H                     0.085508
     29 H                     0.083337
  ----------------------------------------
  Sum of atomic charges =    -0.000000

 -----------------------------------------------------------------
                    Cartesian Multipole Moments
 -----------------------------------------------------------------
    Charge (ESU x 10^10)
                 0.0000
    Dipole Moment (Debye)
         X      -1.1766      Y       1.0222      Z       1.2735
       Tot       2.0128
    Quadrupole Moments (Debye-Ang)
        XX     -74.6864     XY       0.5310     YY     -77.7960
        XZ       2.1461     YZ      -3.1825     ZZ     -82.0794
    Octopole Moments (Debye-Ang^2)
       XXX     -43.7303    XXY      -0.8317    XYY     -25.5825
       YYY     -12.0849    XXZ       0.5378    XYZ       0.9196
       YYZ       0.7724    XZZ      -2.8481    YZZ      -0.0361
       ZZZ      -2.1727
    Hexadecapole Moments (Debye-Ang^3)
      XXXX   -1558.7053   XXXY     -48.2768   XXYY    -456.4771
      XYYY      -0.7964   YYYY   -1340.7497   XXXZ      -1.7370
      XXYZ      -0.7891   XYYZ      10.0247   YYYZ     -18.8870
      XXZZ    -339.8580   XYZZ      -7.7510   YYZZ    -299.0104
      XZZZ      -3.0059   YZZZ       3.7264   ZZZZ    -362.2894
 -----------------------------------------------------------------
 Calculating analytic gradient of the SCF energy
 Gradient of SCF Energy
            1           2           3           4           5           6
    1  -0.0189017  -0.0010181  -0.0227706  -0.0148436   0.0078519   0.0175920
    2  -0.0061666  -0.0126033   0.0092763  -0.0249970  -0.0502503   0.0465703
    3  -0.0131139  -0.0225015  -0.0099800  -0.0049472  -0.0550049   0.0677094
            7           8           9          10          11          12
    1   0.0465247  -0.0299507  -0.0011768   0.0042609   0.0057363  -0.0004789
    2  -0.0187961   0.0448355   0.0056927   0.0036904  -0.0079676   0.0070181
    3  -0.0568011   0.0680312   0.0078222   0.0084158  -0.0075562   0.0078375
           13          14          15          16          17          18
    1   0.0047845  -0.0058637  -0.0111789   0.0061035   0.0108581  -0.0035931
    2  -0.0052055   0.0082292  -0.0058836  -0.0005177   0.0089982   0.0069624
    3   0.0068467  -0.0049772  -0.0075925   0.0125075   0.0018286   0.0087191
           19          20          21          22          23          24
    1   0.0109997  -0.0026833   0.0078631   0.0011160  -0.0063975   0.0005890
    2   0.0033923   0.0132604  -0.0082653  -0.0046629   0.0062798  -0.0088425
    3  -0.0046909   0.0028448  -0.0032598   0.0127765  -0.0018186  -0.0009572
           25          26          27          28          29
    1  -0.0055405   0.0004226   0.0025808   0.0003292  -0.0032151
    2  -0.0022236   0.0002925  -0.0062005  -0.0023039   0.0003884
    3   0.0017369  -0.0042424   0.0075016  -0.0091386  -0.0079958
 Max gradient component =       6.803E-02
 RMS gradient           =       1.898E-02
 Gradient time:  CPU 14.28 s  wall 0.61 s
 Geometry Optimization Parameters
   NAtoms,    NIC,     NZ,  NCons,   NDum,   NFix, NCnnct, MaxDiis
       29     227       0       2       0       0       0       0


** CONSTRAINED OPTIMIZATION IN DELOCALIZED INTERNAL COORDINATES **
   Searching for a Minimum

   Optimization Cycle:   1

                       Coordinates (Angstroms)
     ATOM                X               Y               Z
      1  C         0.1989940371    0.8074510526    0.8080250660
      2  C         0.8891541415   -0.6037128583    0.8356917781
      3  C        -1.0758453005    0.9246568840    0.0047091527
      4  C         0.1586283758   -1.7350114201    0.1398026564
      5  O        -1.8646458999    1.9018897492    0.5103874512
      6  O        -1.3562596307    0.2984114689   -0.9951980847
      7  O        -1.0269016384   -1.9714527002    0.7457697400
      8  O         0.5839283474   -2.3864911311   -0.7867523178
      9  C        -1.8627752987   -2.9300541365    0.0770564154
     10  C        -3.0745376958    2.1450882086   -0.2266738431
     11  C         1.3468847473    1.7158337503    0.1882010652
     12  C         1.5555249659    1.2682891679   -1.2486851884
     13  C         2.1291848344    0.0574919437   -1.2151973195
     14  C         2.3119595507   -0.3204901694    0.2455641002
     15  C         2.5802480403    1.0724660693    0.8617038598
     16  H        -2.1229193825   -2.5591305236   -0.9187220385
     17  H        -3.6938691767    1.2447590618   -0.2554130863
     18  H         2.3083978873   -0.6128616389   -2.0449483400
     19  H        -2.7548427307   -3.0278522078    0.6967629862
     20  H        -1.3508481761   -3.8918402528   -0.0180229600
     21  H        -3.5864414223    2.9481782706    0.3061412536
     22  H        -2.8461189950    2.4464776334   -1.2531996887
     23  H         3.0293023570   -1.1156021498    0.4536944365
     24  H         1.1739055371    2.7811037441    0.3531617673
     25  H         3.5208200112    1.5117961161    0.5158534911
     26  H         2.5442514328    1.0908916643    1.9579655721
     27  H         1.1729659269    1.7885918322   -2.1187080152
     28  H        -0.0090847291    1.1499443065    1.8245818023
     29  H         0.9809896454   -0.9053659030    1.8860120534
   Point Group: c1    Number of degrees of freedom:    81


   Energy is   -719.125472230

              Constraints and their Current Values
                                        Value     Constraint
   Dihedral:        1   2   4   8      119.918      119.900
   Dihedral:        2   1   3   6      -31.303      -31.300

 Attempting to Generate Delocalized Internal Coordinates

   Using Lagrange Multiplier Algorithm


 83 Hessian modes will be used to form the next step
  Hessian Eigenvalues:
    -0.977753   -0.977753    0.045000    0.045000    0.045000    0.045000
     0.045051    0.045062    0.045138    0.045254    0.045793    0.051682
     0.055559    0.061598    0.065750    0.068731    0.073045    0.073539
     0.076678    0.076804    0.078042    0.082154    0.083079    0.084032
     0.086457    0.092389    0.100630    0.114721    0.115084    0.116297
     0.118142    0.118372    0.119777    0.135877    0.138879    0.156681
     0.157727    0.159189    0.160000    0.160000    0.160000    0.160000
     0.160000    0.160000    0.179776    0.222524    0.231622    0.244220
     0.249706    0.249757    0.250000    0.250000    0.250000    0.250000
     0.255568    0.256735    0.274381    0.300219    0.307710    0.312122
     0.340153    0.340574    0.343304    0.343546    0.343581    0.343905
     0.344505    0.345029    0.346103    0.346652    0.347068    0.347446
     0.355729    0.357951    0.399382    0.400090    0.507088    0.542110
     0.545453    0.986943    1.000113    1.022753    1.022753

 Minimum Search - Taking P-RFO Step
 Searching for Lamda that Maximizes Along the Constraint modes Only
 Value Taken    Lamda =   0.00001097
 Searching for Lamda that Minimizes Along All other modes
 Value Taken    Lamda =  -0.05330149
 Calculated Step too Large.  Step scaled by  0.903359
 Step Taken.  Stepsize is  0.300000

                             Maximum     Tolerance    Cnvgd?
         Gradient            0.108071       0.000300      NO
         Displacement        0.157418       0.001200      NO
         Energy change     *********       0.000001      NO


 New Cartesian Coordinates Obtained by Inverse Iteration

 Displacement from previous Coordinates is:  0.681791
 Adding empirical dispersion correction 
 ----------------------------------------------------------------
 Doing -D3(op) with
 s6 =   1.00000
 s8 =   0.78311
 a1 =   0.30000
 a2 =   4.25000
 n  =  10.00000
 -D3 energy without 3body term =     -0.0335120175 hartrees
 ----------------------------------------------------------------
             Standard Nuclear Orientation (Angstroms)
    I     Atom           X                Y                Z
 ----------------------------------------------------------------
    1      C       0.2380000294     0.8280985657     0.8295683016
    2      C       0.9255594355    -0.5970889963     0.8571521403
    3      C      -1.0768163628     0.9115212335     0.0015815226
    4      C       0.1508910746    -1.7395150183     0.1237572176
    5      O      -1.8972818769     1.9204849044     0.5428929028
    6      O      -1.3572295268     0.2427847064    -1.0181456357
    7      O      -1.0810316395    -1.9402610692     0.7756852048
    8      O       0.5659410151    -2.4172455291    -0.8401215038
    9      C      -1.9311184065    -2.9102751628     0.0715648468
   10      C      -3.1350496848     2.1027465303    -0.2281383310
   11      C       1.3949346928     1.7439129335     0.2019570164
   12      C       1.5940803587     1.2816613101    -1.2546870745
   13      C       2.1668042493     0.0651968773    -1.2238021168
   14      C       2.3657300162    -0.3189557009     0.2562673934
   15      C       2.6501415722     1.0924042060     0.8769829072
   16      H      -2.1939402947    -2.5476703610    -0.9437223953
   17      H      -3.7455571837     1.1764986174    -0.2482576048
   18      H       2.3433052718    -0.6146237958    -2.0640412858
   19      H      -2.8494891905    -3.0163012950     0.6765824008
   20      H      -1.4353298999    -3.8977300675    -0.0294917641
   21      H      -3.6986712197     2.9076337414     0.2770312025
   22      H      -2.9254704065     2.3961787670    -1.2775786657
   23      H       3.0888928469    -1.1248528759     0.4601193102
   24      H       1.2242572629     2.8209308283     0.3636267774
   25      H       3.5966945769     1.5299161903     0.5215350538
   26      H       2.6219124601     1.1122863869     1.9786113249
   27      H       1.2039860236     1.8109067627    -2.1304635130
   28      H       0.0316220056     1.1757669301     1.8567024138
   29      H       1.0242825622    -0.9009537875     1.9163957190
 ----------------------------------------------------------------
 Molecular Point Group                 C1    NOp =  1
 Largest Abelian Subgroup              C1    NOp =  1
 Nuclear Repulsion Energy =  1066.8139352420 hartrees
 There are       56 alpha and       56 beta electrons
 Applying Cartesian multipole field
    Component          Value
    ---------          -----
     (2,0,0)        1.00000E-11
     (0,2,0)        2.00000E-11
     (0,0,2)       -3.00000E-11
 Nucleus-field energy     =     0.0000000274 hartrees
 Requested basis set is STO-3G
 There are 44 shells and 89 basis functions
 A cutoff of  1.0D-12 yielded    876 shell pairs
 There are      3930 function pairs
 Smallest overlap matrix eigenvalue = 1.89E-01
 Guess MOs from SCF MO coefficient file
 Reading MOs from coefficient file
 Reading MOs from coefficient file
 A restricted hybrid HF-DFT SCF calculation will be
 performed using Pulay DIIS extrapolation
 Exchange:     0.2000 Hartree-Fock + 0.0800 Slater + 0.7200 B88
 Correlation:  0.1900 VWN1RPA + 0.8100 LYP
 Using SG-1 standard quadrature grid
 Dispersion:   Grimme D3
 SCF converges when DIIS error is below 1.0E-08
 Geometry optimization detected.  Setting ReadMinima to 0
 Setting SaveMinima to 0
 -------------------------------------------------------
 OpenMP Integral computing Module                
 Release: version 1.0, May 2013, Q-Chem Inc. Pittsburgh 
 -------------------------------------------------------
 -------------------------------------------------------
 OpenMP BLAS3 based DFT computing Module                
 Release: version 1.0, May 2013, Q-Chem Inc. Pittsburgh 
 -------------------------------------------------------
 ---------------------------------------
  Cycle       Energy         DIIS Error
 ---------------------------------------
    1    -718.9725574182      6.74E-03
    2    -719.1443111691      2.66E-03
    3    -719.1347557891      3.98E-03
    4    -719.1515402689      8.09E-04
    5    -719.1523239571      1.38E-04
    6    -719.1523466930      4.05E-05
    7    -719.1523478485      2.65E-05
    8    -719.1523486257      6.22E-06
    9    -719.1523486675      2.19E-06
   10    -719.1523486732      5.88E-07
   11    -719.1523486736      1.34E-07
   12    -719.1523486737      3.68E-08
   13    -719.1523486737      1.66E-08
   14    -719.1523486737      3.32E-09 Convergence criterion met
 ---------------------------------------
 SCF time:  CPU 72.22 s  wall 3.11 s
 SCF   energy in the final basis set = -719.1523486737
 Total energy in the final basis set = -719.1523486737
 
 --------------------------------------------------------------
 
                    Orbital Energies (a.u.)
 --------------------------------------------------------------
 
 Alpha MOs
 -- Occupied --
-18.938 -18.927 -18.865 -18.858 -10.097 -10.091 -10.068 -10.060
-10.031 -10.029 -10.027 -10.025 -10.015  -9.984  -9.983  -1.016
 -1.006  -0.935  -0.927  -0.833  -0.719  -0.693  -0.669  -0.660
 -0.648  -0.573  -0.532  -0.504  -0.491  -0.475  -0.462  -0.446
 -0.421  -0.414  -0.406  -0.399  -0.390  -0.375  -0.358  -0.345
 -0.339  -0.328  -0.318  -0.315  -0.305  -0.294  -0.283  -0.278
 -0.260  -0.250  -0.241  -0.183  -0.175  -0.167  -0.148  -0.139
 -- Virtual --
  0.100   0.120   0.121   0.252   0.267   0.307   0.320   0.329
  0.351   0.357   0.370   0.384   0.401   0.413   0.418   0.420
  0.428   0.432   0.437   0.438   0.442   0.443   0.448   0.458
  0.472   0.490   0.500   0.525   0.532   0.586   0.658   0.663
  0.759
 --------------------------------------------------------------
 
          Ground-State Mulliken Net Atomic Charges

     Atom                 Charge (a.u.)
  ----------------------------------------
      1 C                    -0.070384
      2 C                    -0.070128
      3 C                     0.214018
      4 C                     0.217933
      5 O                    -0.173949
      6 O                    -0.220518
      7 O                    -0.179789
      8 O                    -0.218660
      9 C                    -0.124914
     10 C                    -0.124901
     11 C                    -0.055907
     12 C                    -0.091674
     13 C                    -0.081318
     14 C                    -0.054655
     15 C                    -0.127294
     16 H                     0.092870
     17 H                     0.089335
     18 H                     0.085891
     19 H                     0.088638
     20 H                     0.088222
     21 H                     0.091893
     22 H                     0.088836
     23 H                     0.076548
     24 H                     0.074787
     25 H                     0.076151
     26 H                     0.068305
     27 H                     0.076792
     28 H                     0.083245
     29 H                     0.080625
  ----------------------------------------
  Sum of atomic charges =     0.000000

 -----------------------------------------------------------------
                    Cartesian Multipole Moments
 -----------------------------------------------------------------
    Charge (ESU x 10^10)
                 0.0000
    Dipole Moment (Debye)
         X      -1.0349      Y       1.0326      Z       1.1836
       Tot       1.8810
    Quadrupole Moments (Debye-Ang)
        XX     -74.2486     XY       0.6279     YY     -78.2097
        XZ       2.4844     YZ      -3.0827     ZZ     -81.9570
    Octopole Moments (Debye-Ang^2)
       XXX     -45.7651    XXY      -1.2951    XYY     -25.0453
       YYY     -12.6175    XXZ      -0.0560    XYZ       1.2927
       YYZ       0.2841    XZZ      -2.7999    YZZ       0.2815
       ZZZ      -2.7078
    Hexadecapole Moments (Debye-Ang^3)
      XXXX   -1623.3371   XXXY     -60.2072   XXYY    -466.3230
      XYYY      -9.2195   YYYY   -1342.0988   XXXZ      -1.0558
      XXYZ      -2.4966   XYYZ      10.3744   YYYZ     -23.1097
      XXZZ    -353.8372   XYZZ     -11.6315   YYZZ    -301.1734
      XZZZ      -4.1163   YZZZ      -1.4012   ZZZZ    -372.7885
 -----------------------------------------------------------------
 Calculating analytic gradient of the SCF energy
 Gradient of SCF Energy
            1           2           3           4           5           6
    1  -0.0048172   0.0015221  -0.0066571  -0.0138336   0.0022434   0.0021514
    2  -0.0057923   0.0007997   0.0112496  -0.0002297  -0.0127067   0.0017796
    3  -0.0011116  -0.0094104   0.0107257   0.0127715  -0.0138147   0.0018864
            7           8           9          10          11          12
    1   0.0133730   0.0013359  -0.0010977   0.0035954   0.0023924   0.0006636
    2  -0.0050463   0.0015301   0.0041291   0.0031374  -0.0009159   0.0043248
    3  -0.0152092   0.0035626   0.0056131   0.0062268  -0.0026594   0.0017481
           13          14          15          16          17          18
    1   0.0036605  -0.0013128  -0.0017683   0.0004201   0.0003135  -0.0015580
    2  -0.0019869   0.0016663  -0.0009593  -0.0002742   0.0000887   0.0003056
    3   0.0013338  -0.0009575   0.0011587   0.0000470  -0.0006113   0.0002330
           19          20          21          22          23          24
    1   0.0003312  -0.0000270   0.0001654  -0.0001696  -0.0006334  -0.0005459
    2  -0.0000132   0.0002896  -0.0003861  -0.0006607   0.0002217  -0.0007174
    3  -0.0005287  -0.0003214  -0.0002878  -0.0000098  -0.0001883   0.0002614
           25          26          27          28          29
    1  -0.0002127   0.0007941  -0.0006318   0.0011074  -0.0008043
    2  -0.0000027   0.0005676  -0.0015439   0.0003165   0.0008290
    3   0.0005366  -0.0004414   0.0000874  -0.0005943  -0.0000464
 Max gradient component =       1.521E-02
 RMS gradient           =       4.550E-03
 Gradient time:  CPU 21.98 s  wall 1.41 s
 Geometry Optimization Parameters
   NAtoms,    NIC,     NZ,  NCons,   NDum,   NFix, NCnnct, MaxDiis
       29     227       0       2       0       0       0       0

 Cartesian Hessian Update
 Hessian Updated using BFGS Update


** CONSTRAINED OPTIMIZATION IN DELOCALIZED INTERNAL COORDINATES **
   Searching for a Minimum

   Optimization Cycle:   2

                       Coordinates (Angstroms)
     ATOM                X               Y               Z
      1  C         0.2380000294    0.8280985657    0.8295683016
      2  C         0.9255594355   -0.5970889963    0.8571521403
      3  C        -1.0768163628    0.9115212335    0.0015815226
      4  C         0.1508910746   -1.7395150183    0.1237572176
      5  O        -1.8972818769    1.9204849044    0.5428929028
      6  O        -1.3572295268    0.2427847064   -1.0181456357
      7  O        -1.0810316395   -1.9402610692    0.7756852048
      8  O         0.5659410151   -2.4172455291   -0.8401215038
      9  C        -1.9311184065   -2.9102751628    0.0715648468
     10  C        -3.1350496848    2.1027465303   -0.2281383310
     11  C         1.3949346928    1.7439129335    0.2019570164
     12  C         1.5940803587    1.2816613101   -1.2546870745
     13  C         2.1668042493    0.0651968773   -1.2238021168
     14  C         2.3657300162   -0.3189557009    0.2562673934
     15  C         2.6501415722    1.0924042060    0.8769829072
     16  H        -2.1939402947   -2.5476703610   -0.9437223953
     17  H        -3.7455571837    1.1764986174   -0.2482576048
     18  H         2.3433052718   -0.6146237958   -2.0640412858
     19  H        -2.8494891905   -3.0163012950    0.6765824008
     20  H        -1.4353298999   -3.8977300675   -0.0294917641
     21  H        -3.6986712197    2.9076337414    0.2770312025
     22  H        -2.9254704065    2.3961787670   -1.2775786657
     23  H         3.0888928469   -1.1248528759    0.4601193102
     24  H         1.2242572629    2.8209308283    0.3636267774
     25  H         3.5966945769    1.5299161903    0.5215350538
     26  H         2.6219124601    1.1122863869    1.9786113249
     27  H         1.2039860236    1.8109067627   -2.1304635130
     28  H         0.0316220056    1.1757669301    1.8567024138
     29  H         1.0242825622   -0.9009537875    1.9163957190
   Point Group: c1    Number of degrees of freedom:    81


   Energy is   -719.152348674

              Constraints and their Current Values
                                        Value     Constraint
   Dihedral:        1   2   4   8      119.908      119.900
   Dihedral:        2   1   3   6      -31.302      -31.300
 Hessian Updated using BFGS Update

   Using Lagrange Multiplier Algorithm


 75 Hessian modes will be used to form the next step
  Hessian Eigenvalues:
    -0.977753   -0.977753    0.044983    0.045001    0.045049    0.045077
     0.045138    0.045235    0.045795    0.051681    0.055559    0.061417
     0.065755    0.068690    0.073014    0.073534    0.076668    0.076805
     0.077945    0.082154    0.083110    0.084031    0.086491    0.092388
     0.100647    0.114694    0.115071    0.116199    0.118142    0.118372
     0.119793    0.135891    0.138878    0.156680    0.157520    0.159186
     0.159996    0.161964    0.179780    0.222450    0.231664    0.239862
     0.244270    0.249738    0.249839    0.250872    0.256594    0.258544
     0.274381    0.301500    0.309716    0.319517    0.340168    0.340720
     0.343316    0.343562    0.343767    0.344249    0.344908    0.345736
     0.346322    0.346920    0.347269    0.352970    0.356612    0.361579
     0.399217    0.402382    0.506693    0.521537    0.543756    0.992599
     1.022747    1.022753    1.049635

 Minimum Search - Taking P-RFO Step
 Searching for Lamda that Maximizes Along the Constraint modes Only
 Value Taken    Lamda =   0.00000002
 Searching for Lamda that Minimizes Along All other modes
 Value Taken    Lamda =  -0.00311007
 Step Taken.  Stepsize is  0.137857

                             Maximum     Tolerance    Cnvgd?
         Gradient            0.013965       0.000300      NO
         Displacement        0.055405       0.001200      NO
         Energy change     -0.026876       0.000001      NO


 New Cartesian Coordinates Obtained by Inverse Iteration

 Displacement from previous Coordinates is:  0.479205
 Adding empirical dispersion correction 
 ----------------------------------------------------------------
 Doing -D3(op) with
 s6 =   1.00000
 s8 =   0.78311
 a1 =   0.30000
 a2 =   4.25000
 n  =  10.00000
 -D3 energy without 3body term =     -0.0336625007 hartrees
 ----------------------------------------------------------------
             Standard Nuclear Orientation (Angstroms)
    I     Atom           X                Y                Z
 ----------------------------------------------------------------
    1      C       0.2575828585     0.8487327585     0.8495694509
    2      C       0.9290530849    -0.5880092045     0.8769831023
    3      C      -1.0619888349     0.9162027986     0.0161751903
    4      C       0.1253196568    -1.7042725859     0.1223795506
    5      O      -1.9019074353     1.9281874195     0.5642310072
    6      O      -1.3483465190     0.2371583220    -0.9976452905
    7      O      -1.1182591538    -1.8869279351     0.7959849580
    8      O       0.5112297343    -2.3908875427    -0.8501144470
    9      C      -1.9412706124    -2.8634435223     0.0548064102
   10      C      -3.1383652801     2.0366579659    -0.2387026284
   11      C       1.4135516807     1.7516906651     0.2114951148
   12      C       1.5882791273     1.2788718576    -1.2484905352
   13      C       2.1480195530     0.0581984696    -1.2213654497
   14      C       2.3669558627    -0.3267575201     0.2593449116
   15      C       2.6729569761     1.0863311938     0.8706993518
   16      H      -2.1884901087    -2.4895178769    -0.9605377786
   17      H      -3.7112341682     1.0861604147    -0.2383892459
   18      H       2.3173341608    -0.6248239944    -2.0616614862
   19      H      -2.8705354797    -2.9881241407     0.6408008532
   20      H      -1.4298768914    -3.8433579977    -0.0447927348
   21      H      -3.7417304974     2.8322629840     0.2358987976
   22      H      -2.9210831922     2.3129935176    -1.2913697705
   23      H       3.0864763134    -1.1396922333     0.4529700893
   24      H       1.2585991109     2.8327866197     0.3679007130
   25      H       3.6189592256     1.5126460751     0.4988619680
   26      H       2.6574056226     1.1071412034     1.9733120710
   27      H       1.1991419256     1.8190284110    -2.1191392761
   28      H       0.0501017599     1.1972734523     1.8773043649
   29      H       1.0321712816    -0.9030537429     1.9330545037
 ----------------------------------------------------------------
 Molecular Point Group                 C1    NOp =  1
 Largest Abelian Subgroup              C1    NOp =  1
 Nuclear Repulsion Energy =  1068.3826242269 hartrees
 There are       56 alpha and       56 beta electrons
 Applying Cartesian multipole field
    Component          Value
    ---------          -----
     (2,0,0)        1.00000E-11
     (0,2,0)        2.00000E-11
     (0,0,2)       -3.00000E-11
 Nucleus-field energy     =     0.0000000268 hartrees
 Requested basis set is STO-3G
 There are 44 shells and 89 basis functions
 A cutoff of  1.0D-12 yielded    878 shell pairs
 There are      3938 function pairs
 Smallest overlap matrix eigenvalue = 1.89E-01
 Guess MOs from SCF MO coefficient file
 Reading MOs from coefficient file
 Reading MOs from coefficient file
 A restricted hybrid HF-DFT SCF calculation will be
 performed using Pulay DIIS extrapolation
 Exchange:     0.2000 Hartree-Fock + 0.0800 Slater + 0.7200 B88
 Correlation:  0.1900 VWN1RPA + 0.8100 LYP
 Using SG-1 standard quadrature grid
 Dispersion:   Grimme D3
 SCF converges when DIIS error is below 1.0E-08
 Geometry optimization detected.  Setting ReadMinima to 0
 Setting SaveMinima to 0
 -------------------------------------------------------
 OpenMP Integral computing Module                
 Release: version 1.0, May 2013, Q-Chem Inc. Pittsburgh 
 -------------------------------------------------------
 -------------------------------------------------------
 OpenMP BLAS3 based DFT computing Module                
 Release: version 1.0, May 2013, Q-Chem Inc. Pittsburgh 
 -------------------------------------------------------
 ---------------------------------------
  Cycle       Energy         DIIS Error
 ---------------------------------------
    1    -719.1216092642      2.41E-03
    2    -719.1534891728      7.15E-04
    3    -719.1519032910      1.40E-03
    4    -719.1540475600      1.64E-04
    5    -719.1540783718      4.53E-05
    6    -719.1540805899      1.60E-05
    7    -719.1540808128      8.84E-06
    8    -719.1540808970      2.71E-06
    9    -719.1540809052      9.13E-07
   10    -719.1540809062      2.46E-07
   11    -719.1540809063      3.89E-08
   12    -719.1540809063      1.65E-08
   13    -719.1540809063      4.32E-09 Convergence criterion met
 ---------------------------------------
 SCF time:  CPU 61.78 s  wall 2.62 s
 SCF   energy in the final basis set = -719.1540809063
 Total energy in the final basis set = -719.1540809063
 
 --------------------------------------------------------------
 
                    Orbital Energies (a.u.)
 --------------------------------------------------------------
 
 Alpha MOs
 -- Occupied --
-18.937 -18.924 -18.870 -18.862 -10.096 -10.090 -10.065 -10.056
-10.032 -10.029 -10.028 -10.025 -10.015  -9.984  -9.983  -1.012
 -1.001  -0.934  -0.926  -0.833  -0.718  -0.692  -0.668  -0.658
 -0.646  -0.572  -0.532  -0.503  -0.491  -0.476  -0.460  -0.444
 -0.421  -0.413  -0.404  -0.397  -0.387  -0.372  -0.357  -0.346
 -0.340  -0.328  -0.317  -0.313  -0.305  -0.291  -0.282  -0.277
 -0.261  -0.254  -0.245  -0.184  -0.176  -0.166  -0.150  -0.141
 -- Virtual --
  0.097   0.118   0.120   0.251   0.267   0.304   0.317   0.326
  0.341   0.349   0.368   0.381   0.398   0.411   0.418   0.422
  0.428   0.431   0.432   0.438   0.439   0.441   0.446   0.452
  0.469   0.487   0.498   0.523   0.530   0.584   0.651   0.656
  0.760
 --------------------------------------------------------------
 
          Ground-State Mulliken Net Atomic Charges

     Atom                 Charge (a.u.)
  ----------------------------------------
      1 C                    -0.069980
      2 C                    -0.070045
      3 C                     0.211517
      4 C                     0.214323
      5 O                    -0.169075
      6 O                    -0.216716
      7 O                    -0.176175
      8 O                    -0.215431
      9 C                    -0.127624
     10 C                    -0.127416
     11 C                    -0.055995
     12 C                    -0.091761
     13 C                    -0.081533
     14 C                    -0.054918
     15 C                    -0.126755
     16 H                     0.092283
     17 H                     0.089303
     18 H                     0.085771
     19 H                     0.086439
     20 H                     0.087759
     21 H                     0.090197
     22 H                     0.088642
     23 H                     0.076493
     24 H                     0.075256
     25 H                     0.076151
     26 H                     0.068137
     27 H                     0.076713
     28 H                     0.083524
     29 H                     0.080917
  ----------------------------------------
  Sum of atomic charges =    -0.000000

 -----------------------------------------------------------------
                    Cartesian Multipole Moments
 -----------------------------------------------------------------
    Charge (ESU x 10^10)
                -0.0000
    Dipole Moment (Debye)
         X      -0.8576      Y       1.0076      Z       1.1154
       Tot       1.7305
    Quadrupole Moments (Debye-Ang)
        XX     -74.4497     XY       0.5841     YY     -78.6241
        XZ       2.6055     YZ      -3.0429     ZZ     -81.9122
    Octopole Moments (Debye-Ang^2)
       XXX     -43.8964    XXY      -2.3207    XYY     -22.4339
       YYY     -14.0621    XXZ      -0.8513    XYZ       1.4590
       YYZ      -0.3909    XZZ      -2.4224    YZZ      -0.1449
       ZZZ      -3.8175
    Hexadecapole Moments (Debye-Ang^3)
      XXXX   -1630.8017   XXXY     -65.4073   XXYY    -465.3093
      XYYY     -16.1671   YYYY   -1314.3839   XXXZ      -2.7937
      XXYZ      -3.4495   XYYZ       9.5343   YYYZ     -25.4864
      XXZZ    -355.4696   XYZZ     -14.0203   YYZZ    -296.0991
      XZZZ      -5.3607   YZZZ      -4.2043   ZZZZ    -374.6885
 -----------------------------------------------------------------
 Calculating analytic gradient of the SCF energy
 Gradient of SCF Energy
            1           2           3           4           5           6
    1  -0.0014896   0.0007886  -0.0041154  -0.0087785   0.0012507  -0.0002016
    2  -0.0021546   0.0008646   0.0040869   0.0005556  -0.0018270  -0.0014098
    3  -0.0000115  -0.0038737   0.0036727   0.0038842  -0.0013871  -0.0021182
            7           8           9          10          11          12
    1   0.0035653   0.0023713   0.0022596   0.0028889   0.0003876   0.0010865
    2   0.0004426  -0.0026880   0.0019498  -0.0008607   0.0009587   0.0010614
    3  -0.0022850  -0.0011479   0.0003768   0.0010241  -0.0008130   0.0009097
           13          14          15          16          17          18
    1   0.0014593  -0.0000482  -0.0009010   0.0000498  -0.0003140  -0.0009770
    2   0.0005179  -0.0007966  -0.0003228   0.0000340  -0.0003206  -0.0002873
    3   0.0005687   0.0002381   0.0010639  -0.0003450  -0.0001570  -0.0000911
           19          20          21          22          23          24
    1   0.0001612   0.0001036   0.0001587  -0.0000329  -0.0000809  -0.0005091
    2   0.0002535  -0.0004525   0.0000197   0.0000273  -0.0003997   0.0001444
    3   0.0001946  -0.0000492   0.0001594  -0.0004329  -0.0001792   0.0000495
           25          26          27          28          29
    1   0.0000430   0.0002876  -0.0007864   0.0011827   0.0001903
    2  -0.0000302   0.0001896  -0.0005730   0.0001167   0.0009003
    3  -0.0001065   0.0000492  -0.0001813   0.0003786   0.0006093
 Max gradient component =       8.779E-03
 RMS gradient           =       1.676E-03
 Gradient time:  CPU 14.70 s  wall 0.62 s
 Geometry Optimization Parameters
   NAtoms,    NIC,     NZ,  NCons,   NDum,   NFix, NCnnct, MaxDiis
       29     227       0       2       0       0       0       0

 Cartesian Hessian Update
 Hessian Updated using BFGS Update


** CONSTRAINED OPTIMIZATION IN DELOCALIZED INTERNAL COORDINATES **
   Searching for a Minimum

   Optimization Cycle:   3

                       Coordinates (Angstroms)
     ATOM                X               Y               Z
      1  C         0.2575828585    0.8487327585    0.8495694509
      2  C         0.9290530849   -0.5880092045    0.8769831023
      3  C        -1.0619888349    0.9162027986    0.0161751903
      4  C         0.1253196568   -1.7042725859    0.1223795506
      5  O        -1.9019074353    1.9281874195    0.5642310072
      6  O        -1.3483465190    0.2371583220   -0.9976452905
      7  O        -1.1182591538   -1.8869279351    0.7959849580
      8  O         0.5112297343   -2.3908875427   -0.8501144470
      9  C        -1.9412706124   -2.8634435223    0.0548064102
     10  C        -3.1383652801    2.0366579659   -0.2387026284
     11  C         1.4135516807    1.7516906651    0.2114951148
     12  C         1.5882791273    1.2788718576   -1.2484905352
     13  C         2.1480195530    0.0581984696   -1.2213654497
     14  C         2.3669558627   -0.3267575201    0.2593449116
     15  C         2.6729569761    1.0863311938    0.8706993518
     16  H        -2.1884901087   -2.4895178769   -0.9605377786
     17  H        -3.7112341682    1.0861604147   -0.2383892459
     18  H         2.3173341608   -0.6248239944   -2.0616614862
     19  H        -2.8705354797   -2.9881241407    0.6408008532
     20  H        -1.4298768914   -3.8433579977   -0.0447927348
     21  H        -3.7417304974    2.8322629840    0.2358987976
     22  H        -2.9210831922    2.3129935176   -1.2913697705
     23  H         3.0864763134   -1.1396922333    0.4529700893
     24  H         1.2585991109    2.8327866197    0.3679007130
     25  H         3.6189592256    1.5126460751    0.4988619680
     26  H         2.6574056226    1.1071412034    1.9733120710
     27  H         1.1991419256    1.8190284110   -2.1191392761
     28  H         0.0501017599    1.1972734523    1.8773043649
     29  H         1.0321712816   -0.9030537429    1.9330545037
   Point Group: c1    Number of degrees of freedom:    81


   Energy is   -719.154080906

              Constraints and their Current Values
                                        Value     Constraint
   Dihedral:        1   2   4   8      119.900      119.900
   Dihedral:        2   1   3   6      -31.300      -31.300
 Hessian Updated using BFGS Update

 74 Hessian modes will be used to form the next step
  Hessian Eigenvalues:
     0.041669    0.045001    0.045003    0.045036    0.045138    0.045151
     0.045197    0.045819    0.051715    0.055560    0.057217    0.065834
     0.068344    0.072964    0.073520    0.076125    0.076796    0.077225
     0.082155    0.083165    0.083952    0.086632    0.092392    0.100648
     0.114758    0.115143    0.117205    0.118142    0.118372    0.119913
     0.136305    0.139029    0.156688    0.157033    0.159398    0.159968
     0.160354    0.161914    0.179783    0.221442    0.230119    0.242247
     0.244490    0.249745    0.249980    0.250515    0.256369    0.258376
     0.274329    0.297908    0.305832    0.309893    0.318219    0.340137
     0.340817    0.343297    0.343567    0.343766    0.344245    0.344801
     0.345732    0.346478    0.346909    0.347434    0.353440    0.356785
     0.363084    0.381426    0.400244    0.460754    0.509020    0.544203
     0.992628    1.069781

 Minimum Search - Taking Simple RFO Step
 Searching for Lamda that Minimizes Along All modes
 Value Taken    Lamda =  -0.00055245
 Step Taken.  Stepsize is  0.078686

                             Maximum     Tolerance    Cnvgd?
         Gradient           0.005532      0.000300      NO
         Displacement       0.033269      0.001200      NO
         Energy change     -0.001732      0.000001      NO


 New Cartesian Coordinates Obtained by Inverse Iteration

 Displacement from previous Coordinates is:  0.153693
 Adding empirical dispersion correction 
 ----------------------------------------------------------------
 Doing -D3(op) with
 s6 =   1.00000
 s8 =   0.78311
 a1 =   0.30000
 a2 =   4.25000
 n  =  10.00000
 -D3 energy without 3body term =     -0.0336675103 hartrees
 ----------------------------------------------------------------
             Standard Nuclear Orientation (Angstroms)
    I     Atom           X                Y                Z
 ----------------------------------------------------------------
    1      C       0.2639112749     0.8549946747     0.8545625592
    2      C       0.9318508325    -0.5876183761     0.8800672951
    3      C      -1.0497982495     0.9222670929     0.0095792764
    4      C       0.1223725491    -1.6921190000     0.1115695392
    5      O      -1.9068845566     1.9309555049     0.5582019856
    6      O      -1.3286433162     0.2462039824    -1.0069148232
    7      O      -1.1251497533    -1.8872451649     0.7964102684
    8      O       0.5012577912    -2.3771276727    -0.8629532318
    9      C      -1.9538604490    -2.8735925687     0.0641188286
   10      C      -3.1495076887     2.0330110346    -0.2462824289
   11      C       1.4221648748     1.7536877666     0.2183820760
   12      C       1.5915194948     1.2830847061    -1.2450249964
   13      C       2.1477523025     0.0614998967    -1.2218265978
   14      C       2.3701231448    -0.3258043720     0.2590586052
   15      C       2.6823713101     1.0848842817     0.8710492959
   16      H      -2.2164759220    -2.5018030810    -0.9475391253
   17      H      -3.7133198856     1.0779416846    -0.2461434412
   18      H       2.3248189664    -0.6177327719    -2.0635490266
   19      H      -2.8757641094    -3.0071558580     0.6600860309
   20      H      -1.4351575004    -3.8482569440    -0.0407834081
   21      H      -3.7601792505     2.8225084608     0.2294116986
   22      H      -2.9338955729     2.3136607444    -1.2973814850
   23      H       3.0904554923    -1.1386501519     0.4487056024
   24      H       1.2744704627     2.8354571757     0.3755670869
   25      H       3.6280242973     1.5098640359     0.4968644339
   26      H       2.6689357182     1.1024929191     1.9737846606
   27      H       1.2106034703     1.8337870248    -2.1125882916
   28      H       0.0455433881     1.1996843890     1.8812088428
   29      H       1.0325106455    -0.9154235821     1.9319225359
 ----------------------------------------------------------------
 Molecular Point Group                 C1    NOp =  1
 Largest Abelian Subgroup              C1    NOp =  1
 Nuclear Repulsion Energy =  1067.1822231141 hartrees
 There are       56 alpha and       56 beta electrons
 Applying Cartesian multipole field
    Component          Value
    ---------          -----
     (2,0,0)        1.00000E-11
     (0,2,0)        2.00000E-11
     (0,0,2)       -3.00000E-11
 Nucleus-field energy     =     0.0000000268 hartrees
 Requested basis set is STO-3G
 There are 44 shells and 89 basis functions
 A cutoff of  1.0D-12 yielded    878 shell pairs
 There are      3938 function pairs
 Smallest overlap matrix eigenvalue = 1.89E-01
 Guess MOs from SCF MO coefficient file
 Reading MOs from coefficient file
 Reading MOs from coefficient file
 A restricted hybrid HF-DFT SCF calculation will be
 performed using Pulay DIIS extrapolation
 Exchange:     0.2000 Hartree-Fock + 0.0800 Slater + 0.7200 B88
 Correlation:  0.1900 VWN1RPA + 0.8100 LYP
 Using SG-1 standard quadrature grid
 Dispersion:   Grimme D3
 SCF converges when DIIS error is below 1.0E-08
 Geometry optimization detected.  Setting ReadMinima to 0
 Setting SaveMinima to 0
 -------------------------------------------------------
 OpenMP Integral computing Module                
 Release: version 1.0, May 2013, Q-Chem Inc. Pittsburgh 
 -------------------------------------------------------
 -------------------------------------------------------
 OpenMP BLAS3 based DFT computing Module                
 Release: version 1.0, May 2013, Q-Chem Inc. Pittsburgh 
 -------------------------------------------------------
 ---------------------------------------
  Cycle       Energy         DIIS Error
 ---------------------------------------
    1    -719.1454819579      1.02E-03
    2    -719.1541733797      3.65E-04
    3    -719.1537071051      7.38E-04
    4    -719.1543270047      4.70E-05
    5    -719.1543293758      1.78E-05
    6    -719.1543297226      6.58E-06
    7    -719.1543297616      3.28E-06
    8    -719.1543297731      1.02E-06
    9    -719.1543297742      3.13E-07
   10    -719.1543297743      9.45E-08
   11    -719.1543297744      1.15E-08
   12    -719.1543297744      3.65E-09 Convergence criterion met
 ---------------------------------------
 SCF time:  CPU 50.63 s  wall 2.13 s
 SCF   energy in the final basis set = -719.1543297744
 Total energy in the final basis set = -719.1543297744
 
 --------------------------------------------------------------
 
                    Orbital Energies (a.u.)
 --------------------------------------------------------------
 
 Alpha MOs
 -- Occupied --
-18.934 -18.920 -18.872 -18.864 -10.096 -10.089 -10.064 -10.055
-10.033 -10.030 -10.028 -10.025 -10.016  -9.985  -9.984  -1.009
 -0.997  -0.933  -0.924  -0.833  -0.718  -0.691  -0.668  -0.657
 -0.645  -0.573  -0.532  -0.502  -0.491  -0.476  -0.459  -0.442
 -0.420  -0.412  -0.403  -0.397  -0.386  -0.372  -0.357  -0.347
 -0.340  -0.329  -0.317  -0.313  -0.305  -0.291  -0.282  -0.277
 -0.262  -0.253  -0.244  -0.184  -0.175  -0.165  -0.151  -0.142
 -- Virtual --
  0.097   0.117   0.120   0.246   0.263   0.302   0.316   0.325
  0.339   0.347   0.367   0.380   0.396   0.410   0.417   0.423
  0.427   0.431   0.432   0.437   0.439   0.441   0.446   0.451
  0.468   0.485   0.497   0.523   0.530   0.583   0.650   0.656
  0.760
 --------------------------------------------------------------
 
          Ground-State Mulliken Net Atomic Charges

     Atom                 Charge (a.u.)
  ----------------------------------------
      1 C                    -0.069700
      2 C                    -0.069757
      3 C                     0.210846
      4 C                     0.213223
      5 O                    -0.168645
      6 O                    -0.215298
      7 O                    -0.176227
      8 O                    -0.214277
      9 C                    -0.129070
     10 C                    -0.128725
     11 C                    -0.056002
     12 C                    -0.091605
     13 C                    -0.081538
     14 C                    -0.054900
     15 C                    -0.126798
     16 H                     0.091532
     17 H                     0.089210
     18 H                     0.085935
     19 H                     0.086346
     20 H                     0.087400
     21 H                     0.090214
     22 H                     0.088553
     23 H                     0.076475
     24 H                     0.075432
     25 H                     0.076387
     26 H                     0.068236
     27 H                     0.076944
     28 H                     0.084119
     29 H                     0.081694
  ----------------------------------------
  Sum of atomic charges =    -0.000000

 -----------------------------------------------------------------
                    Cartesian Multipole Moments
 -----------------------------------------------------------------
    Charge (ESU x 10^10)
                -0.0000
    Dipole Moment (Debye)
         X      -0.7976      Y       1.0016      Z       1.1094
       Tot       1.6942
    Quadrupole Moments (Debye-Ang)
        XX     -74.3013     XY       0.5978     YY     -78.6076
        XZ       2.6179     YZ      -3.0628     ZZ     -81.9365
    Octopole Moments (Debye-Ang^2)
       XXX     -44.1965    XXY      -2.5838    XYY     -22.2525
       YYY     -14.8245    XXZ      -1.0126    XYZ       1.5061
       YYZ      -0.3891    XZZ      -2.4443    YZZ      -0.2250
       ZZZ      -3.4056
    Hexadecapole Moments (Debye-Ang^3)
      XXXX   -1636.1874   XXXY     -67.8769   XXYY    -465.8871
      XYYY     -18.1204   YYYY   -1314.3517   XXXZ      -3.3223
      XXYZ      -3.4979   XYYZ       9.1401   YYYZ     -24.9936
      XXZZ    -356.6225   XYZZ     -14.7803   YYZZ    -296.3515
      XZZZ      -6.2047   YZZZ      -3.7945   ZZZZ    -376.0313
 -----------------------------------------------------------------
 Calculating analytic gradient of the SCF energy
 Gradient of SCF Energy
            1           2           3           4           5           6
    1  -0.0008605   0.0015146   0.0008926  -0.0018559   0.0002133  -0.0003291
    2  -0.0004300  -0.0007771  -0.0001999   0.0035002   0.0004433  -0.0004626
    3   0.0002901  -0.0009821   0.0009715  -0.0005714   0.0006018  -0.0010757
            7           8           9          10          11          12
    1   0.0006764   0.0014263  -0.0011577  -0.0011523  -0.0000192   0.0009074
    2   0.0002274  -0.0025414  -0.0009027   0.0003269   0.0005677  -0.0001295
    3   0.0003866   0.0003109  -0.0004793  -0.0005192   0.0000489   0.0001102
           13          14          15          16          17          18
    1   0.0005062   0.0003984  -0.0001173   0.0000712  -0.0000403  -0.0005687
    2   0.0008724  -0.0001594   0.0000254  -0.0000014   0.0000745  -0.0002508
    3  -0.0000911   0.0005112   0.0005277   0.0000628   0.0000374  -0.0000434
           19          20          21          22          23          24
    1  -0.0002950  -0.0000992  -0.0003530  -0.0000538   0.0000050  -0.0001479
    2  -0.0002190   0.0000317   0.0000672   0.0000238  -0.0000335   0.0000092
    3  -0.0001373   0.0001387  -0.0001517   0.0000728  -0.0001957  -0.0000106
           25          26          27          28          29
    1   0.0000549   0.0000492  -0.0005406   0.0005893   0.0002854
    2   0.0000140   0.0000515  -0.0002454  -0.0001807   0.0002980
    3  -0.0001684   0.0000313  -0.0000401   0.0002534   0.0001104
 Max gradient component =       3.500E-03
 RMS gradient           =       7.019E-04
 Gradient time:  CPU 14.25 s  wall 0.60 s
 Geometry Optimization Parameters
   NAtoms,    NIC,     NZ,  NCons,   NDum,   NFix, NCnnct, MaxDiis
       29     227       0       2       0       0       0       0

 Cartesian Hessian Update
 Hessian Updated using BFGS Update


** CONSTRAINED OPTIMIZATION IN DELOCALIZED INTERNAL COORDINATES **
   Searching for a Minimum

   Optimization Cycle:   4

                       Coordinates (Angstroms)
     ATOM                X               Y               Z
      1  C         0.2639112749    0.8549946747    0.8545625592
      2  C         0.9318508325   -0.5876183761    0.8800672951
      3  C        -1.0497982495    0.9222670929    0.0095792764
      4  C         0.1223725491   -1.6921190000    0.1115695392
      5  O        -1.9068845566    1.9309555049    0.5582019856
      6  O        -1.3286433162    0.2462039824   -1.0069148232
      7  O        -1.1251497533   -1.8872451649    0.7964102684
      8  O         0.5012577912   -2.3771276727   -0.8629532318
      9  C        -1.9538604490   -2.8735925687    0.0641188286
     10  C        -3.1495076887    2.0330110346   -0.2462824289
     11  C         1.4221648748    1.7536877666    0.2183820760
     12  C         1.5915194948    1.2830847061   -1.2450249964
     13  C         2.1477523025    0.0614998967   -1.2218265978
     14  C         2.3701231448   -0.3258043720    0.2590586052
     15  C         2.6823713101    1.0848842817    0.8710492959
     16  H        -2.2164759220   -2.5018030810   -0.9475391253
     17  H        -3.7133198856    1.0779416846   -0.2461434412
     18  H         2.3248189664   -0.6177327719   -2.0635490266
     19  H        -2.8757641094   -3.0071558580    0.6600860309
     20  H        -1.4351575004   -3.8482569440   -0.0407834081
     21  H        -3.7601792505    2.8225084608    0.2294116986
     22  H        -2.9338955729    2.3136607444   -1.2973814850
     23  H         3.0904554923   -1.1386501519    0.4487056024
     24  H         1.2744704627    2.8354571757    0.3755670869
     25  H         3.6280242973    1.5098640359    0.4968644339
     26  H         2.6689357182    1.1024929191    1.9737846606
     27  H         1.2106034703    1.8337870248   -2.1125882916
     28  H         0.0455433881    1.1996843890    1.8812088428
     29  H         1.0325106455   -0.9154235821    1.9319225359
   Point Group: c1    Number of degrees of freedom:    81


   Energy is   -719.154329774

              Constraints and their Current Values
                                        Value     Constraint
   Dihedral:        1   2   4   8      119.900      119.900
   Dihedral:        2   1   3   6      -31.300      -31.300
 Hessian Updated using BFGS Update

 77 Hessian modes will be used to form the next step
  Hessian Eigenvalues:
     0.034453    0.045000    0.045001    0.045023    0.045038    0.045138
     0.045140    0.045488    0.045836    0.051704    0.055458    0.055566
     0.065736    0.068645    0.073060    0.073655    0.075614    0.076803
     0.077081    0.082155    0.083159    0.084086    0.086588    0.092394
     0.100651    0.114755    0.115161    0.117074    0.118141    0.118373
     0.120092    0.136140    0.139132    0.156703    0.157138    0.159377
     0.159900    0.160005    0.161671    0.162058    0.179817    0.222103
     0.230640    0.243204    0.244539    0.249767    0.249980    0.250021
     0.251683    0.256637    0.258277    0.274291    0.298151    0.306467
     0.310170    0.321499    0.340170    0.340784    0.343343    0.343567
     0.343767    0.344270    0.344969    0.345873    0.346588    0.346910
     0.347532    0.353628    0.356790    0.363188    0.399550    0.436533
     0.508072    0.520819    0.546905    0.992639    1.049195

 Minimum Search - Taking Simple RFO Step
 Searching for Lamda that Minimizes Along All modes
 Value Taken    Lamda =  -0.00006524
 Step Taken.  Stepsize is  0.028395

                             Maximum     Tolerance    Cnvgd?
         Gradient           0.002881      0.000300      NO
         Displacement       0.012601      0.001200      NO
         Energy change     -0.000249      0.000001      NO


 New Cartesian Coordinates Obtained by Inverse Iteration

 Displacement from previous Coordinates is:  0.060964
 Adding empirical dispersion correction 
 ----------------------------------------------------------------
 Doing -D3(op) with
 s6 =   1.00000
 s8 =   0.78311
 a1 =   0.30000
 a2 =   4.25000
 n  =  10.00000
 -D3 energy without 3body term =     -0.0336939042 hartrees
 ----------------------------------------------------------------
             Standard Nuclear Orientation (Angstroms)
    I     Atom           X                Y                Z
 ----------------------------------------------------------------
    1      C       0.2636521695     0.8565034290     0.8561060328
    2      C       0.9301693429    -0.5864540908     0.8803522582
    3      C      -1.0479248668     0.9217029249     0.0092099443
    4      C       0.1192434797    -1.6875094410     0.1101936233
    5      O      -1.9068567352     1.9276692499     0.5585230995
    6      O      -1.3239326483     0.2454809405    -1.0071839195
    7      O      -1.1275178182    -1.8806610381     0.7976606001
    8      O       0.4948672554    -2.3721319295    -0.8647758963
    9      C      -1.9541949896    -2.8663429548     0.0652896280
   10      C      -3.1478932301     2.0241465987    -0.2464870534
   11      C       1.4227151394     1.7530954096     0.2188673885
   12      C       1.5913144760     1.2832328753    -1.2452632663
   13      C       2.1463271533     0.0607417688    -1.2226276831
   14      C       2.3679238141    -0.3265225808     0.2582343952
   15      C       2.6824248864     1.0831684771     0.8701809717
   16      H      -2.2203911560    -2.4936435217    -0.9452315040
   17      H      -3.7079701348     1.0667749523    -0.2462589169
   18      H       2.3284433296    -0.6165023543    -2.0647551494
   19      H      -2.8736226702    -3.0018299495     0.6642506555
   20      H      -1.4334961150    -3.8397651534    -0.0427459252
   21      H      -3.7602649440     2.8116110805     0.2299570514
   22      H      -2.9326814538     2.3053443615    -1.2976262854
   23      H       3.0879170593    -1.1396054541     0.4482124317
   24      H       1.2777528754     2.8352339357     0.3759372957
   25      H       3.6284796002     1.5072326874     0.4963571407
   26      H       2.6690422660     1.1002949614     1.9728956230
   27      H       1.2161246395     1.8378804358    -2.1126910383
   28      H       0.0413705901     1.2016966027     1.8816732042
   29      H       1.0290284468    -0.9173863914     1.9313090591
 ----------------------------------------------------------------
 Molecular Point Group                 C1    NOp =  1
 Largest Abelian Subgroup              C1    NOp =  1
 Nuclear Repulsion Energy =  1067.9767762750 hartrees
 There are       56 alpha and       56 beta electrons
 Applying Cartesian multipole field
    Component          Value
    ---------          -----
     (2,0,0)        1.00000E-11
     (0,2,0)        2.00000E-11
     (0,0,2)       -3.00000E-11
 Nucleus-field energy     =     0.0000000267 hartrees
 Requested basis set is STO-3G
 There are 44 shells and 89 basis functions
 A cutoff of  1.0D-12 yielded    878 shell pairs
 There are      3938 function pairs
 Smallest overlap matrix eigenvalue = 1.89E-01
 Guess MOs from SCF MO coefficient file
 Reading MOs from coefficient file
 Reading MOs from coefficient file
 A restricted hybrid HF-DFT SCF calculation will be
 performed using Pulay DIIS extrapolation
 Exchange:     0.2000 Hartree-Fock + 0.0800 Slater + 0.7200 B88
 Correlation:  0.1900 VWN1RPA + 0.8100 LYP
 Using SG-1 standard quadrature grid
 Dispersion:   Grimme D3
 SCF converges when DIIS error is below 1.0E-08
 Geometry optimization detected.  Setting ReadMinima to 0
 Setting SaveMinima to 0
 -------------------------------------------------------
 OpenMP Integral computing Module                
 Release: version 1.0, May 2013, Q-Chem Inc. Pittsburgh 
 -------------------------------------------------------
 -------------------------------------------------------
 OpenMP BLAS3 based DFT computing Module                
 Release: version 1.0, May 2013, Q-Chem Inc. Pittsburgh 
 -------------------------------------------------------
 ---------------------------------------
  Cycle       Energy         DIIS Error
 ---------------------------------------
    1    -719.1565868325      2.46E-04
    2    -719.1543593390      2.35E-05
    3    -719.1543587045      3.68E-05
    4    -719.1543602040      1.07E-05
    5    -719.1543603184      4.19E-06
    6    -719.1543603372      9.50E-07
    7    -719.1543603381      4.88E-07
    8    -719.1543603384      1.04E-07
    9    -719.1543603384      7.36E-08
   10    -719.1543603384      1.87E-08
   11    -719.1543603384      2.24E-09 Convergence criterion met
 ---------------------------------------
 SCF time:  CPU 47.81 s  wall 2.02 s
 SCF   energy in the final basis set = -719.1543603384
 Total energy in the final basis set = -719.1543603384
 
 --------------------------------------------------------------
 
                    Orbital Energies (a.u.)
 --------------------------------------------------------------
 
 Alpha MOs
 -- Occupied --
-18.934 -18.920 -18.872 -18.864 -10.096 -10.089 -10.064 -10.055
-10.033 -10.030 -10.028 -10.025 -10.015  -9.985  -9.984  -1.010
 -0.998  -0.934  -0.925  -0.833  -0.718  -0.691  -0.668  -0.657
 -0.645  -0.573  -0.532  -0.502  -0.491  -0.476  -0.459  -0.442
 -0.421  -0.412  -0.403  -0.397  -0.386  -0.372  -0.358  -0.347
 -0.340  -0.329  -0.317  -0.313  -0.305  -0.291  -0.282  -0.277
 -0.262  -0.254  -0.245  -0.184  -0.175  -0.165  -0.151  -0.142
 -- Virtual --
  0.097   0.118   0.120   0.248   0.264   0.302   0.316   0.325
  0.339   0.347   0.367   0.380   0.396   0.410   0.418   0.423
  0.428   0.432   0.433   0.437   0.439   0.441   0.446   0.452
  0.468   0.485   0.497   0.523   0.530   0.582   0.651   0.657
  0.760
 --------------------------------------------------------------
 
          Ground-State Mulliken Net Atomic Charges

     Atom                 Charge (a.u.)
  ----------------------------------------
      1 C                    -0.069848
      2 C                    -0.069896
      3 C                     0.211378
      4 C                     0.213664
      5 O                    -0.168718
      6 O                    -0.215375
      7 O                    -0.176523
      8 O                    -0.214319
      9 C                    -0.129009
     10 C                    -0.128576
     11 C                    -0.056012
     12 C                    -0.091566
     13 C                    -0.081451
     14 C                    -0.054937
     15 C                    -0.126798
     16 H                     0.091347
     17 H                     0.089203
     18 H                     0.085940
     19 H                     0.086171
     20 H                     0.087326
     21 H                     0.090190
     22 H                     0.088549
     23 H                     0.076396
     24 H                     0.075354
     25 H                     0.076359
     26 H                     0.068206
     27 H                     0.076947
     28 H                     0.084240
     29 H                     0.081760
  ----------------------------------------
  Sum of atomic charges =     0.000000

 -----------------------------------------------------------------
                    Cartesian Multipole Moments
 -----------------------------------------------------------------
    Charge (ESU x 10^10)
                -0.0000
    Dipole Moment (Debye)
         X      -0.7866      Y       1.0048      Z       1.1074
       Tot       1.6895
    Quadrupole Moments (Debye-Ang)
        XX     -74.3150     XY       0.5816     YY     -78.6418
        XZ       2.5889     YZ      -3.0703     ZZ     -81.9422
    Octopole Moments (Debye-Ang^2)
       XXX     -43.8773    XXY      -2.6536    XYY     -21.9381
       YYY     -14.8548    XXZ      -1.0787    XYZ       1.4967
       YYZ      -0.3762    XZZ      -2.3968    YZZ      -0.2398
       ZZZ      -3.3828
    Hexadecapole Moments (Debye-Ang^3)
      XXXX   -1635.4843   XXXY     -68.4357   XXYY    -465.3724
      XYYY     -19.1487   YYYY   -1309.5624   XXXZ      -3.2388
      XXYZ      -3.4607   XYYZ       9.0379   YYYZ     -24.9878
      XXZZ    -356.3093   XYZZ     -15.0366   YYZZ    -295.3984
      XZZZ      -6.0705   YZZZ      -3.9066   ZZZZ    -376.3348
 -----------------------------------------------------------------
 Calculating analytic gradient of the SCF energy
 Gradient of SCF Energy
            1           2           3           4           5           6
    1  -0.0010860   0.0012972   0.0003548  -0.0013926  -0.0001912   0.0000300
    2  -0.0001302  -0.0007466  -0.0006968   0.0027314   0.0007220  -0.0000667
    3   0.0007245  -0.0009597  -0.0000123  -0.0018576   0.0006519  -0.0002056
            7           8           9          10          11          12
    1  -0.0001391   0.0010071  -0.0002946  -0.0003954   0.0000321   0.0005766
    2   0.0000982  -0.0018827  -0.0003384  -0.0000649   0.0000855   0.0001758
    3   0.0006608   0.0012366  -0.0004347  -0.0003766   0.0001501  -0.0000787
           13          14          15          16          17          18
    1   0.0005107   0.0000513  -0.0001297   0.0000717   0.0000108  -0.0003846
    2   0.0002495   0.0001253  -0.0000007  -0.0000016  -0.0000335  -0.0001643
    3  -0.0001409   0.0001954   0.0002376  -0.0000118   0.0000531   0.0000023
           19          20          21          22          23          24
    1   0.0000079   0.0000270   0.0000348   0.0000342   0.0000786  -0.0000375
    2   0.0000756  -0.0000287   0.0000006   0.0000038   0.0000416  -0.0000014
    3   0.0000191   0.0001119   0.0000515   0.0000085  -0.0001297  -0.0000147
           25          26          27          28          29
    1   0.0000012   0.0000038  -0.0003581   0.0002048   0.0000740
    2  -0.0000294   0.0000573  -0.0001648  -0.0001764   0.0001608
    3  -0.0000825  -0.0000082   0.0000066   0.0001643   0.0000387
 Max gradient component =       2.731E-03
 RMS gradient           =       5.676E-04
 Gradient time:  CPU 14.48 s  wall 0.61 s
 Geometry Optimization Parameters
   NAtoms,    NIC,     NZ,  NCons,   NDum,   NFix, NCnnct, MaxDiis
       29     227       0       2       0       0       0       0

 Cartesian Hessian Update
 Hessian Updated using BFGS Update


** CONSTRAINED OPTIMIZATION IN DELOCALIZED INTERNAL COORDINATES **
   Searching for a Minimum

   Optimization Cycle:   5

                       Coordinates (Angstroms)
     ATOM                X               Y               Z
      1  C         0.2636521695    0.8565034290    0.8561060328
      2  C         0.9301693429   -0.5864540908    0.8803522582
      3  C        -1.0479248668    0.9217029249    0.0092099443
      4  C         0.1192434797   -1.6875094410    0.1101936233
      5  O        -1.9068567352    1.9276692499    0.5585230995
      6  O        -1.3239326483    0.2454809405   -1.0071839195
      7  O        -1.1275178182   -1.8806610381    0.7976606001
      8  O         0.4948672554   -2.3721319295   -0.8647758963
      9  C        -1.9541949896   -2.8663429548    0.0652896280
     10  C        -3.1478932301    2.0241465987   -0.2464870534
     11  C         1.4227151394    1.7530954096    0.2188673885
     12  C         1.5913144760    1.2832328753   -1.2452632663
     13  C         2.1463271533    0.0607417688   -1.2226276831
     14  C         2.3679238141   -0.3265225808    0.2582343952
     15  C         2.6824248864    1.0831684771    0.8701809717
     16  H        -2.2203911560   -2.4936435217   -0.9452315040
     17  H        -3.7079701348    1.0667749523   -0.2462589169
     18  H         2.3284433296   -0.6165023543   -2.0647551494
     19  H        -2.8736226702   -3.0018299495    0.6642506555
     20  H        -1.4334961150   -3.8397651534   -0.0427459252
     21  H        -3.7602649440    2.8116110805    0.2299570514
     22  H        -2.9326814538    2.3053443615   -1.2976262854
     23  H         3.0879170593   -1.1396054541    0.4482124317
     24  H         1.2777528754    2.8352339357    0.3759372957
     25  H         3.6284796002    1.5072326874    0.4963571407
     26  H         2.6690422660    1.1002949614    1.9728956230
     27  H         1.2161246395    1.8378804358   -2.1126910383
     28  H         0.0413705901    1.2016966027    1.8816732042
     29  H         1.0290284468   -0.9173863914    1.9313090591
   Point Group: c1    Number of degrees of freedom:    81


   Energy is   -719.154360338

              Constraints and their Current Values
                                        Value     Constraint
   Dihedral:        1   2   4   8      119.900      119.900
   Dihedral:        2   1   3   6      -31.300      -31.300
 Hessian Updated using BFGS Update

 78 Hessian modes will be used to form the next step
  Hessian Eigenvalues:
     0.023719    0.044548    0.045000    0.045004    0.045029    0.045095
     0.045138    0.045285    0.045836    0.051568    0.055553    0.056519
     0.065355    0.068162    0.072849    0.073585    0.076145    0.076786
     0.077306    0.082157    0.083098    0.083707    0.086407    0.092385
     0.100620    0.114772    0.115262    0.116647    0.118143    0.118372
     0.120065    0.136546    0.139006    0.156705    0.157106    0.159320
     0.159972    0.159994    0.160036    0.161059    0.167146    0.180568
     0.221721    0.230373    0.243128    0.244558    0.249548    0.249852
     0.249981    0.251398    0.257329    0.258534    0.274496    0.300235
     0.305909    0.310366    0.330758    0.340209    0.340811    0.343432
     0.343566    0.343765    0.344291    0.344926    0.346013    0.346826
     0.346913    0.348214    0.353648    0.356783    0.363008    0.399650
     0.461865    0.487447    0.509386    0.541267    0.992555    1.041224

 Minimum Search - Taking Simple RFO Step
 Searching for Lamda that Minimizes Along All modes
 Value Taken    Lamda =  -0.00002261
 Step Taken.  Stepsize is  0.026558

                             Maximum     Tolerance    Cnvgd?
         Gradient           0.000616      0.000300      NO
[...]
 C          0.007 -0.013  0.002    0.195 -0.413 -0.051   -0.001  0.003  0.001
 C         -0.005  0.013  0.002   -0.185  0.416 -0.043    0.000 -0.002 -0.002
 C         -0.004  0.009 -0.005    0.025 -0.051 -0.012    0.001 -0.009 -0.004
 C         -0.066 -0.033 -0.056    0.014  0.007 -0.003   -0.002  0.003 -0.001
 H         -0.006 -0.000  0.002   -0.002 -0.000  0.000    0.054  0.010 -0.025
 H         -0.002  0.002 -0.000   -0.002  0.002  0.001   -0.074  0.093  0.001
 H         -0.004  0.008  0.011    0.026 -0.048  0.443    0.001 -0.019  0.007
 H         -0.003 -0.004 -0.006   -0.001 -0.001 -0.001    0.042  0.084  0.063
 H         -0.003 -0.001  0.002   -0.001 -0.001  0.001    0.069  0.014 -0.027
 H         -0.003  0.001 -0.005   -0.002 -0.000 -0.001   -0.146  0.008 -0.122
 H         -0.004  0.003  0.000    0.001  0.001  0.001   -0.100  0.065  0.026
 H         -0.024 -0.000  0.008   -0.007 -0.022  0.268    0.012 -0.008 -0.011
 H         -0.019 -0.016  0.005   -0.012  0.006  0.267    0.004 -0.004 -0.004
 H          0.138  0.073  0.670   -0.000 -0.004 -0.083    0.015 -0.027  0.008
 H          0.647  0.305  0.010   -0.103 -0.050 -0.014    0.006  0.004 -0.001
 H          0.001 -0.006  0.013   -0.038  0.058  0.450    0.014 -0.001 -0.002
 H         -0.038 -0.005 -0.008    0.020  0.004  0.005   -0.208  0.013 -0.071
 H         -0.035 -0.029 -0.008    0.023  0.012  0.006    0.045  0.017  0.010
 TransDip   0.036  0.027  0.038    0.026  0.047 -0.013    0.190  0.162  0.095

 Mode:                67                     68                     69
 Frequency:      1795.53                3040.62                3048.06
 Force Cnst:     21.6741                 5.7991                 5.6783
 Red. Mass:      11.4105                 1.0646                 1.0373
 IR Active:          YES                    YES                    YES
 IR Intens:      339.477                 35.405                 36.532
 Raman Active:       YES                    YES                    YES
               X      Y      Z        X      Y      Z        X      Y      Z
 C         -0.016 -0.014 -0.035   -0.000  0.000  0.000   -0.001  0.002  0.007
 C         -0.008 -0.034 -0.041    0.003 -0.007  0.023   -0.003  0.008 -0.028
 C          0.128  0.183  0.325   -0.000  0.000  0.000    0.001 -0.002 -0.001
 C         -0.170  0.372  0.529   -0.000 -0.000  0.001   -0.000 -0.000 -0.000
 O         -0.006 -0.012 -0.020   -0.000  0.000 -0.000   -0.002  0.001 -0.001
 O         -0.068 -0.126 -0.206    0.000 -0.000  0.000    0.000  0.000  0.001
 O          0.013 -0.018 -0.032   -0.000 -0.000 -0.000    0.001  0.000  0.000
 O          0.132 -0.228 -0.337    0.000 -0.000 -0.000   -0.000  0.000 -0.000
 C          0.010  0.019  0.016   -0.000 -0.001 -0.001    0.004  0.009  0.006
 C          0.012 -0.000  0.010   -0.000 -0.000 -0.000   -0.029 -0.001 -0.026
 C         -0.006 -0.002  0.006    0.000  0.004  0.001    0.000  0.000  0.000
 C         -0.006  0.009 -0.000    0.000  0.000  0.000    0.000 -0.000 -0.000
 C          0.005 -0.012  0.001    0.000  0.000 -0.000   -0.000 -0.000  0.000
 C          0.001  0.006  0.010    0.003 -0.001  0.001    0.001 -0.002  0.000
 C          0.007  0.001 -0.005   -0.026 -0.012 -0.061   -0.003 -0.002 -0.006
 H         -0.095 -0.078  0.031    0.004 -0.006  0.016   -0.039  0.051 -0.147
 H         -0.042  0.054  0.001    0.004  0.006 -0.000    0.340  0.451 -0.004
 H          0.003  0.026 -0.022   -0.002  0.000  0.001   -0.000  0.000 -0.000
 H         -0.077 -0.131 -0.107    0.011  0.001 -0.008   -0.099 -0.005  0.072
 H         -0.119 -0.028  0.002   -0.009  0.017  0.001    0.082 -0.154 -0.006
 H         -0.085  0.005 -0.072    0.002 -0.004 -0.002    0.158 -0.294 -0.194
 H         -0.058  0.039  0.017   -0.001 -0.002  0.006   -0.129 -0.152  0.522
 H          0.015  0.025 -0.016   -0.030  0.028 -0.008   -0.017  0.021 -0.005
 H          0.024  0.009 -0.025    0.005 -0.054 -0.012    0.001 -0.007 -0.002
 H          0.005  0.009  0.018    0.352  0.164 -0.134    0.046  0.022 -0.017
 H          0.002 -0.002 -0.003   -0.058 -0.029  0.855   -0.007 -0.003  0.094
 H          0.006  0.001 -0.010   -0.001 -0.002  0.001   -0.000 -0.000  0.000
 H         -0.131  0.029 -0.064    0.000 -0.002 -0.005    0.016 -0.023 -0.077
 H         -0.059 -0.154 -0.051   -0.026  0.080 -0.278    0.031 -0.098  0.342
 TransDip  -0.174  0.352  0.441   -0.105 -0.060 -0.147   -0.119  0.123 -0.090

 Mode:                70                     71                     72
 Frequency:      3048.63                3049.59                3092.84
 Force Cnst:      5.7826                 5.7295                 6.1175
 Red. Mass:       1.0560                 1.0456                 1.0855
 IR Active:          YES                    YES                    YES
 IR Intens:       23.694                 26.527                  8.322
 Raman Active:       YES                    YES                    YES
               X      Y      Z        X      Y      Z        X      Y      Z
 C         -0.002  0.003  0.010   -0.002  0.002  0.008    0.014 -0.023 -0.076
 C         -0.005  0.016 -0.053   -0.004  0.012 -0.042   -0.002  0.004 -0.013
 C         -0.001  0.001  0.001   -0.000  0.000  0.000    0.001 -0.001 -0.001
 C         -0.001  0.000 -0.001    0.002  0.000 -0.003    0.000  0.000 -0.000
 O          0.001 -0.001  0.000    0.000 -0.000 -0.000   -0.000  0.000  0.000
 O         -0.000 -0.000 -0.000   -0.000 -0.000 -0.000    0.000  0.000  0.000
 O          0.001  0.001  0.000   -0.002 -0.001 -0.000   -0.000 -0.000  0.000
 O         -0.000 -0.000 -0.000   -0.001  0.001  0.001   -0.000 -0.000  0.000
 C          0.008  0.016  0.012   -0.014 -0.027 -0.020   -0.000 -0.000  0.000
 C          0.016  0.000  0.014    0.000 -0.000  0.000   -0.001 -0.000 -0.000
 C         -0.000  0.001  0.000    0.000  0.000  0.000   -0.002  0.014  0.002
 C          0.000  0.000 -0.000    0.000 -0.000 -0.000    0.000 -0.000  0.001
 C          0.000 -0.000  0.000   -0.000 -0.000  0.000   -0.000  0.000  0.000
 C          0.003 -0.003  0.000    0.002 -0.003  0.000    0.003 -0.003  0.001
 C         -0.007 -0.003 -0.014   -0.005 -0.002 -0.008   -0.009 -0.004  0.004
 H         -0.074  0.097 -0.280    0.122 -0.157  0.457   -0.000  0.000 -0.001
 H         -0.184 -0.244  0.002   -0.002 -0.002  0.000    0.007  0.009 -0.000
 H         -0.000  0.000 -0.000   -0.000  0.000 -0.000    0.000  0.000  0.000
 H         -0.187 -0.010  0.136    0.307  0.016 -0.223    0.001 -0.000 -0.001
 H          0.156 -0.292 -0.011   -0.256  0.480  0.018   -0.000  0.001  0.000
 H         -0.085  0.159  0.105   -0.001  0.001  0.001    0.002 -0.005 -0.003
 H          0.070  0.083 -0.284    0.001  0.001 -0.003   -0.001 -0.002  0.006
 H         -0.034  0.042 -0.010   -0.024  0.030 -0.007   -0.033  0.038 -0.009
 H          0.001 -0.013 -0.003    0.000 -0.007 -0.002    0.028 -0.168 -0.034
 H          0.092  0.043 -0.034    0.060  0.028 -0.022    0.105  0.049 -0.034
 H         -0.014 -0.006  0.196   -0.008 -0.003  0.118    0.001 -0.001 -0.007
 H          0.000 -0.001  0.001    0.000 -0.000  0.000   -0.002  0.003 -0.004
 H          0.023 -0.035 -0.117    0.019 -0.028 -0.095   -0.180  0.271  0.901
 H          0.057 -0.183  0.636    0.046 -0.145  0.505    0.016 -0.047  0.157
 TransDip   0.124  0.082 -0.047   -0.109 -0.090 -0.085    0.015 -0.018 -0.089

 Mode:                73                     74                     75
 Frequency:      3106.59                3116.70                3119.93
 Force Cnst:      6.2703                 6.2242                 6.2927
 Red. Mass:       1.1027                 1.0875                 1.0972
 IR Active:          YES                    YES                    YES
 IR Intens:       29.026                 43.542                 12.965
 Raman Active:       YES                    YES                    YES
               X      Y      Z        X      Y      Z        X      Y      Z
 C         -0.001  0.003  0.010    0.001 -0.002 -0.008    0.002 -0.002 -0.008
 C          0.001 -0.001  0.004   -0.000 -0.000  0.002   -0.000  0.002 -0.004
 C         -0.000  0.000  0.000    0.000 -0.001 -0.000    0.000 -0.001  0.000
 C          0.000  0.000  0.000    0.000 -0.000 -0.000   -0.000  0.000  0.000
 O         -0.000 -0.000 -0.000   -0.000  0.000  0.000   -0.000 -0.000  0.000
 O         -0.000 -0.000 -0.000   -0.000  0.000  0.000   -0.000  0.000  0.000
 O         -0.000 -0.000 -0.000   -0.000  0.000  0.000   -0.000 -0.000 -0.000
 O          0.000 -0.000 -0.000   -0.000  0.000  0.000    0.000 -0.000 -0.000
 C          0.000  0.000 -0.000   -0.001  0.001 -0.000    0.000 -0.000  0.000
 C          0.000  0.000 -0.000    0.002  0.002 -0.002    0.030  0.040 -0.035
 C         -0.002  0.006  0.002    0.010 -0.061 -0.013    0.007 -0.040 -0.008
 C          0.000  0.000 -0.000   -0.001  0.003 -0.002   -0.001  0.002 -0.001
 C          0.000 -0.000 -0.000   -0.001  0.002  0.001    0.000 -0.002 -0.001
 C          0.005 -0.006  0.002    0.036 -0.042  0.010   -0.032  0.038 -0.009
 C         -0.066 -0.031  0.056   -0.001  0.000 -0.000   -0.010 -0.005  0.001
 H         -0.000 -0.000  0.000    0.001 -0.002  0.005   -0.001  0.002 -0.005
 H         -0.002 -0.003 -0.000   -0.014 -0.019 -0.000   -0.267 -0.361 -0.008
 H          0.001 -0.001 -0.003    0.005 -0.019 -0.021   -0.004  0.015  0.016
 H         -0.001 -0.000  0.001    0.002  0.000 -0.001    0.000 -0.000 -0.000
 H          0.001 -0.002 -0.000    0.003 -0.006 -0.000   -0.001  0.002  0.000
 H         -0.001  0.001  0.001    0.001 -0.001 -0.002    0.008  0.004 -0.009
 H         -0.000  0.000  0.000   -0.006 -0.007  0.025   -0.101 -0.111  0.425
 H         -0.061  0.069 -0.018   -0.426  0.488 -0.111    0.376 -0.431  0.097
 H          0.011 -0.077 -0.017   -0.109  0.717  0.141   -0.069  0.456  0.089
 H          0.764  0.356 -0.251    0.011  0.002 -0.003    0.110  0.052 -0.035
 H          0.017  0.009 -0.430    0.001 -0.003  0.004   -0.000  0.000  0.018
 H         -0.001  0.002 -0.004    0.016 -0.024  0.032    0.010 -0.016  0.020
 H          0.025 -0.035 -0.119   -0.021  0.027  0.096   -0.019  0.026  0.089
 H         -0.003  0.014 -0.044    0.000  0.006 -0.021    0.002 -0.015  0.048
 TransDip  -0.121 -0.055  0.110    0.083 -0.194 -0.012   -0.022  0.043 -0.105

 Mode:                76                     77                     78
 Frequency:      3120.02                3124.18                3152.94
 Force Cnst:      6.3095                 6.3657                 6.4810
 Red. Mass:       1.1001                 1.1069                 1.1065
 IR Active:          YES                    YES                    YES
 IR Intens:       19.396                 16.916                 14.775
 Raman Active:       YES                    YES                    YES
               X      Y      Z        X      Y      Z        X      Y      Z
 C         -0.002  0.002  0.006    0.000 -0.000 -0.000   -0.000  0.000  0.000
 C         -0.000 -0.002  0.003   -0.000  0.000 -0.000    0.000 -0.000 -0.000
 C         -0.000  0.000  0.000   -0.000 -0.000 -0.000   -0.000  0.000  0.000
 C          0.000 -0.000 -0.000    0.000  0.000  0.000    0.000  0.001  0.001
 O         -0.000 -0.000  0.000    0.000  0.000  0.000    0.000 -0.000 -0.000
 O         -0.000 -0.000  0.000    0.000  0.000  0.000    0.000 -0.000 -0.000
 O          0.000  0.000  0.000    0.000 -0.000  0.000    0.000 -0.000 -0.000
 O         -0.000  0.000  0.000    0.000 -0.000  0.000    0.000 -0.000 -0.000
 C         -0.001  0.002 -0.001   -0.047  0.068 -0.046   -0.062  0.005  0.072
 C          0.036  0.047 -0.041   -0.001 -0.001  0.001   -0.000 -0.000 -0.000
 C         -0.006  0.036  0.007    0.000 -0.001 -0.000   -0.000  0.000  0.000
 C          0.001 -0.002  0.001   -0.000  0.000  0.000    0.000 -0.000  0.000
 C         -0.000  0.001  0.001    0.000 -0.000 -0.000    0.000 -0.000 -0.000
 C          0.025 -0.030  0.007   -0.001  0.001 -0.000   -0.000  0.000 -0.000
 C          0.008  0.004 -0.001   -0.000 -0.000 -0.000    0.000  0.000  0.000
 H          0.004 -0.005  0.017    0.156 -0.209  0.649   -0.103  0.124 -0.339
 H         -0.318 -0.430 -0.010    0.006  0.009  0.000    0.002  0.002  0.000
 H          0.003 -0.012 -0.012   -0.000  0.001  0.001   -0.000  0.000  0.001
 H          0.003  0.001 -0.003    0.068  0.017 -0.065    0.714  0.038 -0.522
 H          0.008 -0.015 -0.001    0.333 -0.616 -0.037    0.114 -0.231  0.007
 H          0.008  0.008 -0.009    0.001 -0.002 -0.001   -0.001  0.002  0.002
 H         -0.120 -0.133  0.508    0.003  0.003 -0.012    0.000  0.000 -0.000
 H         -0.296  0.339 -0.076    0.014 -0.015  0.003    0.000 -0.000  0.000
 H          0.063 -0.418 -0.082   -0.001  0.006  0.001    0.000 -0.002 -0.000
 H         -0.095 -0.044  0.030    0.002  0.001 -0.001   -0.000 -0.000  0.000
 H          0.000  0.000 -0.013   -0.000  0.000  0.002    0.000  0.000 -0.001
 H         -0.009  0.015 -0.020    0.000 -0.000  0.000   -0.000  0.000 -0.000
 H          0.016 -0.021 -0.074   -0.000  0.001  0.003    0.000 -0.000 -0.001
 H         -0.002  0.011 -0.037    0.000 -0.001  0.002   -0.000 -0.000 -0.001
 TransDip   0.106  0.092 -0.015   -0.063  0.101 -0.057   -0.093 -0.008  0.081

 Mode:                79                     80                     81
 Frequency:      3156.29                3204.21                3237.13
 Force Cnst:      6.4920                 6.5913                 6.8108
 Red. Mass:       1.1061                 1.0896                 1.1031
 IR Active:          YES                    YES                    YES
 IR Intens:       15.134                  4.791                  3.789
 Raman Active:       YES                    YES                    YES
               X      Y      Z        X      Y      Z        X      Y      Z
 C          0.000  0.000 -0.000   -0.000 -0.000  0.000   -0.000  0.000  0.000
 C         -0.000  0.000 -0.000    0.000 -0.000  0.000   -0.000 -0.000  0.000
 C         -0.001 -0.000 -0.001   -0.000 -0.000 -0.000   -0.000 -0.000 -0.000
 C         -0.000  0.000 -0.000   -0.000  0.000  0.000    0.000 -0.000 -0.000
 O         -0.000  0.000  0.000    0.000 -0.000  0.000    0.000  0.000  0.000
 O          0.000  0.000  0.000    0.000  0.000  0.000    0.000  0.000  0.000
 O          0.000 -0.000  0.000    0.000 -0.000 -0.000   -0.000  0.000  0.000
 O          0.000 -0.000  0.000    0.000  0.000 -0.000   -0.000  0.000  0.000
 C          0.000  0.000 -0.000   -0.000  0.000  0.000    0.000  0.000 -0.000
 C          0.022 -0.070 -0.060    0.000  0.000 -0.000    0.000 -0.000 -0.000
 C          0.000 -0.000 -0.000   -0.001  0.005  0.003   -0.001  0.002  0.002
 C          0.000 -0.000  0.000   -0.027  0.043 -0.063   -0.014  0.024 -0.026
 C          0.000  0.000  0.000   -0.004  0.015  0.025    0.017 -0.053 -0.064
 C         -0.000  0.000 -0.000   -0.001  0.001 -0.000    0.002 -0.003  0.003
 C         -0.000 -0.000 -0.000    0.000 -0.000  0.001    0.000  0.000  0.001
 H          0.001 -0.001  0.003    0.000  0.000  0.000    0.000 -0.000  0.000
 H          0.186  0.232 -0.014   -0.000 -0.000  0.000    0.000  0.000 -0.000
 H         -0.000  0.000  0.000    0.063 -0.221 -0.299   -0.158  0.546  0.727
 H         -0.002 -0.000  0.002    0.001  0.000 -0.000   -0.000  0.000  0.000
 H          0.000 -0.001 -0.000    0.000 -0.000  0.000    0.000  0.000 -0.000
 H         -0.368  0.686  0.454   -0.000  0.001  0.000   -0.000  0.000  0.000
 H         -0.070 -0.096  0.277   -0.000 -0.000  0.001   -0.000 -0.000  0.000
 H          0.001 -0.001  0.000    0.010 -0.011  0.003   -0.022  0.027 -0.011
 H         -0.000  0.002  0.000    0.008 -0.051 -0.014    0.004 -0.017 -0.006
 H          0.001  0.000 -0.000   -0.002 -0.001  0.001   -0.003 -0.002  0.001
 H         -0.000 -0.000  0.001   -0.000  0.001 -0.003    0.000 -0.000 -0.003
 H         -0.000  0.000 -0.001    0.303 -0.478  0.726    0.123 -0.195  0.290
 H          0.000  0.000  0.001    0.001 -0.000 -0.003    0.000 -0.001 -0.002
 H          0.000 -0.000  0.000   -0.001 -0.000 -0.000    0.001  0.001 -0.002
 TransDip   0.049 -0.094 -0.066   -0.021  0.050 -0.044    0.005  0.002 -0.062

 STANDARD THERMODYNAMIC QUANTITIES AT   298.15 K  AND     1.00 ATM

   This Molecule has  0 Imaginary Frequencies
   Zero point vibrational energy:      148.996 kcal/mol

   Atom    1 Element C  Has Mass   12.00000
   Atom    2 Element C  Has Mass   12.00000
   Atom    3 Element C  Has Mass   12.00000
   Atom    4 Element C  Has Mass   12.00000
   Atom    5 Element O  Has Mass   15.99491
   Atom    6 Element O  Has Mass   15.99491
   Atom    7 Element O  Has Mass   15.99491
   Atom    8 Element O  Has Mass   15.99491
   Atom    9 Element C  Has Mass   12.00000
   Atom   10 Element C  Has Mass   12.00000
   Atom   11 Element C  Has Mass   12.00000
   Atom   12 Element C  Has Mass   12.00000
   Atom   13 Element C  Has Mass   12.00000
   Atom   14 Element C  Has Mass   12.00000
   Atom   15 Element C  Has Mass   12.00000
   Atom   16 Element H  Has Mass    1.00783
   Atom   17 Element H  Has Mass    1.00783
   Atom   18 Element H  Has Mass    1.00783
   Atom   19 Element H  Has Mass    1.00783
   Atom   20 Element H  Has Mass    1.00783
   Atom   21 Element H  Has Mass    1.00783
   Atom   22 Element H  Has Mass    1.00783
   Atom   23 Element H  Has Mass    1.00783
   Atom   24 Element H  Has Mass    1.00783
   Atom   25 Element H  Has Mass    1.00783
   Atom   26 Element H  Has Mass    1.00783
   Atom   27 Element H  Has Mass    1.00783
   Atom   28 Element H  Has Mass    1.00783
   Atom   29 Element H  Has Mass    1.00783
   Molecular Mass:   210.089260 amu
   Principal axes and moments of inertia in amu*Bohr^2:
                             1           2           3
    Eigenvalues --     2534.71439  2655.55580  4291.93499
          X               0.99258     0.12094     0.01252
          Y              -0.12091     0.99266    -0.00331
          Z              -0.01283     0.00177     0.99992
   Rotational Symmetry Number is   1
   The Molecule is an Asymmetric Top
   Translational Enthalpy:        0.889 kcal/mol
   Rotational Enthalpy:           0.889 kcal/mol
   Vibrational Enthalpy:        156.166 kcal/mol
   gas constant (RT):             0.592 kcal/mol
   Translational Entropy:        41.931  cal/mol.K
   Rotational Entropy:           31.735  cal/mol.K
   Vibrational Entropy:          47.478  cal/mol.K

   Total Enthalpy:              158.536 kcal/mol
   Total Entropy:               121.144  cal/mol.K
Archival summary:
1\1\nid05906\FREQ\ProcedureUnspecified\BasisUnspecified\41114\junteng\WedOct1814:53:122017WedOct1814:53:122017\0\\#,FREQ,ProcedureUnspecified,BasisUnspecified,\\0,1\O\C,1,1.20637\O,2,1.35331,1,123.169\C,3,1.43933,2,115.928,1,-0.450325,0\H,4,1.08775,3,105.461,2,-179.593,0\H,4,1.09116,3,110.518,2,-59.9675,0\H,4,1.0912,3,110.382,2,60.8779,0\C,2,1.51036,1,126.662,3,-176.9,0\H,8,1.09015,2,107.506,1,-152.844,0\C,8,1.56951,2,117.2,1,-28.1034,0\H,10,1.0943,8,107.266,2,-123.81,0\C,10,1.5145,8,117.125,2,-5.69446,0\O,12,1.2051,10,126.014,8,119.116,0\O,12,1.35125,10,110.092,8,-64.7344,0\C,14,1.43829,12,115.915,10,175.747,0\H,15,1.08803,14,105.465,12,-178.866,0\H,15,1.09082,14,109.855,12,-59.5502,0\H,15,1.09111,14,110.6,12,61.5268,0\C,10,1.56709,8,103.214,2,121.12,0\H,19,1.08871,10,113.31,8,163.687,0\C,19,1.52072,10,107.549,8,-66.357,0\H,21,1.07988,19,124.418,10,-101.979,0\C,21,1.33696,19,107.558,10,70.405,0\H,23,1.08168,21,127.085,19,-172.331,0\C,23,1.5201,21,107.58,19,-0.195613,0\H,25,1.08877,23,116.975,21,162.273,0\C,25,1.54559,23,100.403,21,33.4309,0\H,27,1.09117,25,112.369,23,66.5243,0\H,27,1.09449,25,113.657,23,-168.006,0\\\@

 Total job time:  7562.05s(wall), 41621.79s(cpu) 
 Wed Oct 18 14:53:12 2017

        *************************************************************
        *                                                           *
        *  Thank you very much for using Q-Chem.  Have a nice day.  *
        *                                                           *
        *************************************************************


