nid03725 10.128.14
Q-Chem Developer Version! Running on 10.128.14.*
                  Welcome to Q-Chem
     A Quantum Leap Into The Future Of Chemistry


 Q-Chem 5.0, Q-Chem, Inc., Pleasanton, CA (2017)

 Yihan Shao,  Zhengting Gan,  E. Epifanovsky,  A. T. B. Gilbert,  M. Wormit,  
 J. Kussmann,  A. W. Lange,  A. Behn,  Jia Deng,  Xintian Feng,  D. Ghosh,  
 M. Goldey,  P. R. Horn,  L. D. Jacobson,  I. Kaliman,  T. Kus,  A. Landau,  
 Jie Liu,  E. I. Proynov,  R. M. Richard,  R. P. Steele,  E. J. Sundstrom,  
 H. L. Woodcock III,  P. M. Zimmerman,  D. Zuev,  B. Albrecht,  E. Alguire,  
 S. A. Baeppler,  Z. Benda,  Y. A. Bernard,  E. J. Berquist,  K. B. Bravaya,  
 D. Casanova,  Chun-Min Chang,  Yunqing Chen,  A. Chien,  K. D. Closser,  
 M. P. Coons,  S. Dasgupta,  M. Diedenhofen,  Hainam Do,  R. G. Edgar,  
 Po-Tung Fang,  S. Fatehi,  Qingguo Feng,  Qinghui Ge,  A. Ghysels,  
 J. Gomes,  J. Gonthier,  A. Gunina,  M. W. D. Hanson-Heine,  
 P. H. P. Harbach,  A. W. Hauser,  J. E. Herr,  E. G. Hohenstein,  
 Z. C. Holden,  Kerwin Hui,  T.-C. Jagau,  Hyunjun Ji,  B. Kaduk,  
 K. Khistyaev,  Jaehoon Kim,  P. Klunzinger,  K. Koh,  D. Kosenkov,  
 T. Kowalczyk,  C. M. Krauter,  A. Kunitsa,  Ka Un Lao,  A. Laurent,  
 K. V. Lawler,  Joonho Lee,  D. Lefrancois,  S. Lehtola,  D. S. Levine,  
 Yi-Pei Li,  You-Sheng Lin,  Fenglai Liu,  E. Livshits,  A. Luenser,  
 P. Manohar,  E. Mansoor,  S. F. Manzer,  Shan-Ping Mao,  Yuezhi Mao,  
 N. Mardirossian,  A. V. Marenich,  L. A. Martinez-Martinez,  S. A. Maurer,  
 N. J. Mayhall,  S. C. McKenzie,  J.-M. Mewes,  A. F. Morrison,  K. Nanda,  
 T. S. Nguyen-Beck,  R. Olivares-Amaya,  J. A. Parkhill,  T. M. Perrine,  
 F. Plasser,  S. Prager,  A. Prociuk,  D. R. Rehn,  F. Rob,  M. Schneider,  
 N. Sergueev,  S. M. Sharada,  S. Sharma,  D. W. Small,  T. Stauch,  
 T. Stein,  Yu-Chuan Su,  A. J. W. Thom,  T. Tsuchimochi,  L. Vogt,  
 O. Vydrov,  M. A. Watson,  J. Wenzel,  M. de Wergifosse,  T. A. Wesolowski,  
 A. White,  J. Witte,  A. Yamada,  Jun Yang,  K. Yao,  S. Yeganeh,  
 S. R. Yost,  Zhi-Qiang You,  A. Zech,  Igor Ying Zhang,  Xing Zhang,  
 Yan Zhao,  Ying Zhu,  B. R. Brooks,  G. K. L. Chan,  C. J. Cramer,  
 M. S. Gordon,  W. J. Hehre,  A. Klamt,  M. W. Schmidt,  C. D. Sherrill,  
 D. G. Truhlar,  A. Aspuru-Guzik,  R. Baer,  A. T. Bell,  N. A. Besley,  
 Jeng-Da Chai,  A. Dreuw,  B. D. Dunietz,  T. R. Furlani,  Chao-Ping Hsu,  
 Yousung Jung,  Jing Kong,  D. S. Lambrecht,  WanZhen Liang,  C. Ochsenfeld,  
 V. A. Rassolov,  L. V. Slipchenko,  J. E. Subotnik,  T. Van Voorhis,  
 J. M. Herbert,  A. I. Krylov,  P. M. W. Gill,  M. Head-Gordon

 Contributors to earlier versions of Q-Chem not listed above: 
 R. D. Adamson,  B. Austin,  J. Baker,  G. J. O. Beran,  K. Brandhorst,  
 S. T. Brown,  E. F. C. Byrd,  A. K. Chakraborty,  C.-L. Cheng,  
 Siu Hung Chien,  D. M. Chipman,  D. L. Crittenden,  H. Dachsel,  
 R. A. DiStasio Jr.,  R. J. Doerksen,  A. D. Dutoi,  L. Fusti-Molnar,  
 W. A. Goddard III,  A. Golubeva-Zadorozhnaya,  S. R. Gwaltney,  G. Hawkins,  
 A. Heyden,  S. Hirata,  G. Kedziora,  F. J. Keil,  C. Kelley,  Jihan Kim,  
 R. A. King,  R. Z. Khaliullin,  P. P. Korambath,  W. Kurlancheek,  
 A. M. Lee,  M. S. Lee,  S. V. Levchenko,  Ching Yeh Lin,  D. Liotard,  
 R. C. Lochan,  I. Lotan,  P. E. Maslen,  N. Nair,  D. P. O'Neill,  
 D. Neuhauser,  E. Neuscamman,  C. M. Oana,  R. Olson,  B. Peters,  
 R. Peverati,  P. A. Pieniazek,  Y. M. Rhee,  J. Ritchie,  M. A. Rohrdanz,  
 E. Rosta,  N. J. Russ,  H. F. Schaefer III,  N. E. Schultz,  N. Shenvi,  
 A. C. Simmonett,  A. Sodt,  D. Stuck,  K. S. Thanthiriwatte,  V. Vanovschi,  
 Tao Wang,  A. Warshel,  C. F. Williams,  Q. Wu,  X. Xu,  W. Zhang

 Please cite Q-Chem as follows:
 Y. Shao et al., Mol. Phys. 113, 184-215 (2015)
 DOI: 10.1080/00268976.2014.952696

 Q-Chem 5.0.0 for Intel X86 EM64T Linux

 Parts of Q-Chem use Armadillo 5.200.1 (Boston Tea Smuggler).
 http://arma.sourceforge.net/

 Q-Chem begins on Tue Oct  3 18:09:36 2017  

Host: nid03725
0

     Scratch files written to /global/cscratch1/sd/junteng/scratch/15/opt_1111.save//

Checking the input file for inconsistencies... 	...done.

--------------------------------------------------------------
User input:
--------------------------------------------------------------
$molecule
0  1
C    0.579  -1.978   0.499
C   -0.345  -1.987   1.740
C    0.941  -0.610  -0.048
C   -0.562  -0.630   2.386
O    2.215  -0.645  -0.542
O    0.210   0.366  -0.087
O    0.648  -0.161   2.826
O   -1.631  -0.088   2.617
C    0.572   1.116   3.461
C    2.652   0.593  -1.106
C   -0.242  -2.782  -0.524
C   -0.292  -4.259  -0.098
C   -1.265  -4.223   1.081
C   -1.594  -2.718   1.188
O   -1.591  -2.362  -0.216
H    1.516  -2.494   0.747
H    0.090  -2.606   2.538
H   -0.024   1.052   4.377
H    2.622   1.389  -0.356
H   -0.708  -4.895  -0.888
H    0.690  -4.657   0.174
H   -2.154  -4.811   0.825
H   -0.840  -4.639   1.999
H    1.587   1.422   3.729
H    0.156   1.863   2.777
H    2.039   0.852  -1.975
H    3.687   0.467  -1.436
C   -2.945  -2.478   1.828
H   -3.699  -3.155   1.411
H   -2.911  -2.635   2.910
H   -3.320  -1.473   1.614
C    0.085  -2.603  -1.994
H   -0.579  -3.214  -2.616
H   -0.074  -1.570  -2.320
H    1.119  -2.890  -2.210
$end


$opt
CONSTRAINT
tors    2    1    3    5    147.3
tors    1    2    4    7    -64.6
ENDCONSTRAINT
$end

$rem
JOBTYPE                   OPT
METHOD                    B3LYP
DFT_D                     D3_OP
BASIS                     6-311++G(d,p)
GEOM_OPT_MAX_CYCLES       500
GEOM_OPT_TOL_DISPLACEMENT 1
SYMMETRY                  False
THRESH                    12
SCF_CONVERGENCE           8
MAX_SUB_FILE_NUM          128
MEM_STATIC                400
MEM_TOTAL                 4000
$end

--------------------------------------------------------------
 Adding empirical dispersion correction 
 ----------------------------------------------------------------
 Doing -D3(op) with
 s6 =   1.00000
 s8 =   0.78311
 a1 =   0.30000
 a2 =   4.25000
 n  =  10.00000
 -D3 energy without 3body term =     -0.0411703493 hartrees
 ----------------------------------------------------------------
             Standard Nuclear Orientation (Angstroms)
    I     Atom           X                Y                Z
 ----------------------------------------------------------------
    1      C       0.0405485511     0.6575719166     0.6279970458
    2      C       0.4485580788    -0.8348816956     0.6210370951
    3      C      -1.2236982091     1.0027230799    -0.1363509142
    4      C      -0.5983616521    -1.7818052351     0.0614400192
    5      O      -1.8727982861     2.0215992616     0.5030999569
    6      O      -1.5961984503     0.4914952944    -1.1795899671
    7      O      -1.7171432315    -1.7052423029     0.8489213808
    8      O      -0.4521119641    -2.5882506495    -0.8430724586
    9      C      -2.7784272181    -2.5607562126     0.4228905721
   10      C      -3.0723596472     2.4436939349    -0.1485116050
   11      C       1.2695511140     1.3340043222    -0.0036499292
   12      C       2.4565832498     1.2598809157     0.9715246343
   13      C       2.8623527980    -0.2112841170     0.8761804153
   14      C       1.8144140588    -0.7767714946    -0.1070608698
   15      O       1.6672726917     0.3585939812    -0.9943351534
   16      H      -0.1006442077     0.9849117819     1.6665740614
   17      H       0.6216642017    -1.1903109685     1.6471434747
   18      H      -2.4797608129    -3.6105469360     0.5071865717
   19      H      -3.7802435395     1.6131239838    -0.2264214976
   20      H       3.2933331402     1.8856898890     0.6400661152
   21      H       2.1911460006     1.5619689502     1.9888730929
   22      H       3.8755559769    -0.2734341450     0.4624683269
   23      H       2.8636012425    -0.7181800102     1.8454378604
   24      H      -3.6353600821    -2.3906923623     1.0804841802
   25      H      -3.0783059100    -2.3222438675    -0.6028314328
   26      H      -2.8433670294     2.8555358485    -1.1364182905
   27      H      -3.5276066382     3.2308286629     0.4590820891
   28      C       2.3256610058    -2.0007489527    -0.8370654871
   29      H       3.3506780532    -1.8430305545    -1.1909001368
   30      H       2.3227728949    -2.8841446677    -0.1919820277
   31      H       1.7440132593    -2.2037087567    -1.7409123862
   32      C       1.0880301320     2.7130571330    -0.6079126850
   33      H       2.0289460417     3.0747186755    -1.0380047444
   34      H       0.3716132743     2.6999266795    -1.4356931372
   35      H       0.7526844869     3.4359215512     0.1425480610
 ----------------------------------------------------------------
 Molecular Point Group                 C1    NOp =  1
 Largest Abelian Subgroup              C1    NOp =  1
 Nuclear Repulsion Energy =  1395.7531872986 hartrees
 There are       65 alpha and       65 beta electrons
 Requested basis set is 6-311++G(d,p)
 There are 192 shells and 500 basis functions

 Total QAlloc Memory Limit   4000 MB
 Mega-Array Size       392 MB
 MEM_STATIC part       400 MB
 A cutoff of  1.0D-12 yielded  15290 shell pairs
 There are    105477 function pairs (    112449 Cartesian)
 
 -------------------------------------------------------
 OpenMP Integral Computing Module                       
 Release: version 1.0, May 2013, Q-Chem Inc. Pittsburgh 
 -------------------------------------------------------
 Integral Job Info:
 Integral job number is                      11
 Integral operator is                         1
 short-range coefficients                     0
 long-range coefficients              100000000
 Omega coefficients                           0
 if combine SR and LR in K                    0
 Integral screening is                        0
 Integral computing path is                   2
 max size of driver memory is            800000
 size of driver memory is                593474
 size of scratch memory is              2260544
 max col of scratch BK array               1296
 max len of scratch array in speh3          155
 max len of scratch index in speh4           18
 max int batch size is                      520
 min int batch size is                       52
 fixed nKL is                                52
 max L of basis functions is                  2
 order of int derivative is                   0
 number of shells is                        192
 number of basis is                         517
 number of cartesian basis is               517
 number of contracted shell pairs         15290
 number of primitive shell pairs          33809
 maxK2 (contraction) of shell pair           36
 max number of K2 of shell pair               1
 max number of CS2 of shell pair           2858
 max number of PS2 of shell pair           4842
 mem total for path MDJ                  181576
 -------------------------------------------------------
 Smallest overlap matrix eigenvalue = 3.16E-07
 Linear dependence detected in AO basis
 Number of orthogonalized atomic orbitals = 499
 Maximum deviation from orthogonality = 2.355E-10

 Scale SEOQF with 1.000000e-01/1.000000e-01/1.000000e-01

 Standard Electronic Orientation quadrupole field applied
 Nucleus-field energy     =     0.0000000384 hartrees
 Guess from superposition of atomic densities
 Warning:  Energy on first SCF cycle will be non-variational
 A restricted hybrid HF-DFT SCF calculation will be
 performed using Pulay DIIS extrapolation
 Exchange:     0.2000 Hartree-Fock + 0.0800 Slater + 0.7200 B88
 Correlation:  0.1900 VWN1RPA + 0.8100 LYP
 Using SG-1 standard quadrature grid
 Dispersion:   Grimme D3
 SCF converges when DIIS error is below 1.0E-08
 -------------------------------------------------------
 OpenMP Integral computing Module                
 Release: version 1.0, May 2013, Q-Chem Inc. Pittsburgh 
 -------------------------------------------------------
 -------------------------------------------------------
 OpenMP BLAS3 based DFT computing Module                
 Release: version 1.0, May 2013, Q-Chem Inc. Pittsburgh 
 -------------------------------------------------------
 ---------------------------------------
  Cycle       Energy         DIIS Error
 ---------------------------------------
    1    -847.9474250125      2.81E-02
    2    -844.1482877950      3.75E-03
    3    -843.5443702481      6.36E-03
    4    -844.4563476227      1.60E-03
    5    -844.5182821444      3.62E-04
    6    -844.5204917992      1.75E-04
    7    -844.5211810472      3.20E-05
    8    -844.5212021935      1.22E-05
    9    -844.5212057851      3.21E-06
   10    -844.5212059500      1.78E-06
   11    -844.5212060204      4.33E-07
   12    -844.5212060250      1.28E-07
   13    -844.5212060253      4.65E-08
   14    -844.5212060252      1.43E-08
   15    -844.5212060254      3.96E-09 Convergence criterion met
 ---------------------------------------
 SCF time:  CPU 2335.81 s  wall 106.78 s
 SCF   energy in the final basis set = -844.5212060254
 Total energy in the final basis set = -844.5212060254
 
 --------------------------------------------------------------
 
                    Orbital Energies (a.u.)
 --------------------------------------------------------------
 
 Alpha MOs
 -- Occupied --
-19.181 -19.172 -19.123 -19.123 -19.115 -10.313 -10.308 -10.242
-10.235 -10.232 -10.224 -10.205 -10.205 -10.174 -10.171 -10.170
-10.153  -1.115  -1.106  -1.057  -1.029  -1.021  -0.836  -0.804
 -0.786  -0.748  -0.725  -0.720  -0.671  -0.639  -0.606  -0.579
 -0.563  -0.555  -0.529  -0.508  -0.504  -0.492  -0.490  -0.483
 -0.475  -0.473  -0.458  -0.439  -0.432  -0.421  -0.415  -0.411
 -0.403  -0.395  -0.389  -0.372  -0.368  -0.366  -0.358  -0.356
 -0.348  -0.340  -0.330  -0.327  -0.320  -0.310  -0.292  -0.275
 -0.270
 -- Virtual --
 -0.024  -0.014  -0.006  -0.001   0.002   0.009   0.012   0.018
  0.025   0.029   0.034   0.038   0.042   0.043   0.047   0.051
  0.060   0.063   0.067   0.073   0.076   0.080   0.082   0.090
  0.093   0.099   0.104   0.105   0.108   0.112   0.114   0.116
  0.116   0.120   0.125   0.126   0.129   0.136   0.138   0.139
  0.142   0.143   0.144   0.150   0.153   0.155   0.158   0.160
  0.164   0.168   0.169   0.171   0.174   0.175   0.179   0.180
  0.183   0.186   0.193   0.196   0.198   0.201   0.205   0.208
  0.210   0.213   0.217   0.220   0.224   0.227   0.233   0.236
  0.237   0.247   0.248   0.260   0.261   0.267   0.270   0.276
  0.278   0.282   0.287   0.297   0.300   0.303   0.309   0.310
  0.316   0.319   0.331   0.334   0.337   0.344   0.348   0.350
  0.353   0.356   0.360   0.362   0.370   0.372   0.375   0.376
  0.379   0.384   0.388   0.389   0.394   0.406   0.411   0.418
  0.425   0.429   0.432   0.437   0.443   0.461   0.468   0.485
  0.486   0.490   0.500   0.513   0.514   0.525   0.528   0.540
  0.548   0.555   0.566   0.573   0.584   0.595   0.603   0.605
  0.616   0.617   0.623   0.631   0.644   0.649   0.652   0.654
  0.663   0.666   0.668   0.676   0.677   0.683   0.686   0.690
  0.700   0.708   0.709   0.715   0.726   0.728   0.731   0.738
  0.749   0.752   0.762   0.770   0.780   0.786   0.798   0.805
  0.808   0.816   0.824   0.843   0.844   0.859   0.881   0.919
  0.935   0.942   0.978   0.981   0.999   1.027   1.032   1.045
  1.063   1.069   1.073   1.083   1.102   1.129   1.140   1.142
  1.173   1.192   1.200   1.204   1.216   1.238   1.243   1.252
  1.256   1.268   1.278   1.289   1.305   1.308   1.318   1.334
  1.344   1.357   1.364   1.378   1.391   1.396   1.408   1.426
  1.441   1.443   1.461   1.464   1.475   1.482   1.504   1.524
  1.527   1.538   1.547   1.550   1.555   1.568   1.573   1.579
  1.592   1.597   1.605   1.615   1.619   1.622   1.634   1.642
  1.656   1.668   1.672   1.685   1.690   1.698   1.702   1.707
  1.711   1.721   1.726   1.735   1.741   1.751   1.759   1.778
  1.786   1.804   1.815   1.824   1.832   1.837   1.849   1.857
  1.871   1.883   1.898   1.907   1.934   1.938   1.961   1.972
  1.992   2.009   2.025   2.033   2.042   2.052   2.060   2.086
  2.099   2.116   2.120   2.140   2.146   2.159   2.164   2.174
  2.181   2.199   2.206   2.235   2.238   2.247   2.283   2.297
  2.317   2.381   2.392   2.403   2.418   2.432   2.444   2.457
  2.478   2.482   2.489   2.494   2.505   2.517   2.524   2.529
  2.535   2.546   2.556   2.572   2.579   2.582   2.591   2.606
  2.613   2.637   2.657   2.671   2.673   2.701   2.710   2.721
  2.725   2.735   2.767   2.797   2.824   2.830   2.842   2.867
  2.870   2.884   2.894   2.906   2.921   2.928   2.956   2.973
  2.983   3.006   3.016   3.033   3.049   3.053   3.065   3.074
  3.088   3.098   3.114   3.127   3.132   3.150   3.169   3.186
  3.204   3.216   3.230   3.247   3.267   3.305   3.324   3.355
  3.385   3.397   3.407   3.419   3.540   3.566   3.581   3.664
  3.670   3.693   3.727   3.787   3.799   3.803   3.811   3.814
  3.818   3.832   3.851   3.981   3.995   4.031   4.053   4.114
  4.122   4.142   4.145   4.159   4.188   4.283   4.296   4.319
  4.477   4.519   5.046   5.107   5.115   5.176   5.231   5.278
  5.301   5.405   5.425   5.511   5.626   5.629   5.677   5.857
  5.888  23.769  23.818  23.845  23.881  23.894  23.925  23.934
 23.941  23.954  23.986  24.008  24.053  49.905  49.916  49.990
 50.036  50.038
 --------------------------------------------------------------
 
          Ground-State Mulliken Net Atomic Charges

     Atom                 Charge (a.u.)
  ----------------------------------------
      1 C                     0.591986
      2 C                     0.514013
      3 C                    -1.402477
      4 C                    -0.623973
      5 O                     0.034342
      6 O                    -0.136234
      7 O                    -0.011068
      8 O                    -0.152888
      9 C                    -0.180728
     10 C                    -0.194671
     11 C                    -0.060951
     12 C                    -0.304146
     13 C                    -0.469826
     14 C                    -0.646570
     15 O                     0.020727
     16 H                     0.298649
     17 H                     0.262724
     18 H                     0.168556
     19 H                     0.164299
     20 H                     0.171351
     21 H                     0.141750
     22 H                     0.176722
     23 H                     0.142784
     24 H                     0.151963
     25 H                     0.194631
     26 H                     0.180496
     27 H                     0.156553
     28 C                    -0.129162
     29 H                     0.136034
     30 H                     0.163772
     31 H                     0.213327
     32 C                    -0.126083
     33 H                     0.172817
     34 H                     0.210264
     35 H                     0.171018
  ----------------------------------------
  Sum of atomic charges =     0.000000

 -----------------------------------------------------------------
                    Cartesian Multipole Moments
 -----------------------------------------------------------------
    Charge (ESU x 10^10)
                 0.0000
    Dipole Moment (Debye)
         X      -0.7461      Y       1.9451      Z       3.6261
       Tot       4.1819
    Quadrupole Moments (Debye-Ang)
        XX     -89.8386     XY      -1.0255     YY     -97.5752
        XZ       1.1870     YZ      -5.0423     ZZ    -107.9651
    Octopole Moments (Debye-Ang^2)
       XXX     -55.4117    XXY       0.5039    XYY     -25.6013
       YYY      17.2358    XXZ       3.0794    XYZ       5.5129
       YYZ       4.3181    XZZ      -1.6066    YZZ       0.7259
       ZZZ       2.8590
    Hexadecapole Moments (Debye-Ang^3)
      XXXX   -2253.6109   XXXY      -5.7868   XXYY    -638.7345
      XYYY      -5.7349   YYYY   -2011.3777   XXXZ     -24.1229
      XXYZ      -6.3834   XYYZ     -10.0088   YYYZ     -54.1241
      XXZZ    -504.0131   XYZZ      -6.2155   YYZZ    -422.0729
      XZZZ      -3.8141   YZZZ       2.0638   ZZZZ    -473.0113
 -----------------------------------------------------------------
 Calculating analytic gradient of the SCF energy
 Gradient of SCF Energy
            1           2           3           4           5           6
    1   0.0124560  -0.0036701   0.0031616  -0.0048279  -0.0033075  -0.0051902
    2  -0.0035304   0.0071793   0.0060715   0.0201181   0.0110666  -0.0133067
    3  -0.0187921   0.0019521   0.0106897   0.0099718   0.0080747  -0.0234811
            7           8           9          10          11          12
    1  -0.0085163   0.0104053   0.0127620   0.0102686  -0.0167263  -0.0031789
    2   0.0006465  -0.0213610   0.0057519  -0.0080961  -0.0093196  -0.0058685
    3   0.0105828  -0.0230739   0.0001714   0.0022092   0.0120949  -0.0129073
           13          14          15          16          17          18
    1  -0.0043102  -0.0175761   0.0078540   0.0004602   0.0038284  -0.0000020
    2   0.0044188   0.0027707   0.0006598  -0.0026428  -0.0029603  -0.0019853
    3  -0.0100230   0.0093346   0.0025274   0.0062097   0.0024645   0.0034104
           19          20          21          22          23          24
    1  -0.0025327   0.0067044   0.0004434   0.0049434  -0.0002404  -0.0048604
    2  -0.0008009  -0.0025687  -0.0018844   0.0056169   0.0014730  -0.0032032
    3   0.0030091   0.0006187   0.0009920   0.0010818   0.0007394  -0.0015271
           25          26          27          28          29          30
    1  -0.0032178   0.0017254  -0.0051319  -0.0008125  -0.0002756   0.0018959
    2   0.0023411   0.0036468   0.0023214   0.0012293  -0.0028593  -0.0012981
    3  -0.0012431  -0.0003740  -0.0018965   0.0153841  -0.0054000   0.0009421
           31          32          33          34          35
    1   0.0028888   0.0023544   0.0002603   0.0019242   0.0000408
    2   0.0020556  -0.0013030   0.0027192   0.0005457   0.0023557
    3  -0.0068428   0.0090864  -0.0035935  -0.0027767   0.0003842
 Max gradient component =       2.348E-02
 RMS gradient           =       7.571E-03
 Gradient time:  CPU 735.11 s  wall 41.04 s
 Geometry Optimization Parameters
   NAtoms,    NIC,     NZ,  NCons,   NDum,   NFix, NCnnct, MaxDiis
       35     275       0       2       0       0       0       0


** CONSTRAINED OPTIMIZATION IN DELOCALIZED INTERNAL COORDINATES **
   Searching for a Minimum

   Optimization Cycle:   1

                       Coordinates (Angstroms)
     ATOM                X               Y               Z
      1  C         0.0405485511    0.6575719166    0.6279970458
      2  C         0.4485580788   -0.8348816956    0.6210370951
      3  C        -1.2236982091    1.0027230799   -0.1363509142
      4  C        -0.5983616521   -1.7818052351    0.0614400192
      5  O        -1.8727982861    2.0215992616    0.5030999569
      6  O        -1.5961984503    0.4914952944   -1.1795899671
      7  O        -1.7171432315   -1.7052423029    0.8489213808
      8  O        -0.4521119641   -2.5882506495   -0.8430724586
      9  C        -2.7784272181   -2.5607562126    0.4228905721
     10  C        -3.0723596472    2.4436939349   -0.1485116050
     11  C         1.2695511140    1.3340043222   -0.0036499292
     12  C         2.4565832498    1.2598809157    0.9715246343
     13  C         2.8623527980   -0.2112841170    0.8761804153
     14  C         1.8144140588   -0.7767714946   -0.1070608698
     15  O         1.6672726917    0.3585939812   -0.9943351534
     16  H        -0.1006442077    0.9849117819    1.6665740614
     17  H         0.6216642017   -1.1903109685    1.6471434747
     18  H        -2.4797608129   -3.6105469360    0.5071865717
     19  H        -3.7802435395    1.6131239838   -0.2264214976
     20  H         3.2933331402    1.8856898890    0.6400661152
     21  H         2.1911460006    1.5619689502    1.9888730929
     22  H         3.8755559769   -0.2734341450    0.4624683269
     23  H         2.8636012425   -0.7181800102    1.8454378604
     24  H        -3.6353600821   -2.3906923623    1.0804841802
     25  H        -3.0783059100   -2.3222438675   -0.6028314328
     26  H        -2.8433670294    2.8555358485   -1.1364182905
     27  H        -3.5276066382    3.2308286629    0.4590820891
     28  C         2.3256610058   -2.0007489527   -0.8370654871
     29  H         3.3506780532   -1.8430305545   -1.1909001368
     30  H         2.3227728949   -2.8841446677   -0.1919820277
     31  H         1.7440132593   -2.2037087567   -1.7409123862
     32  C         1.0880301320    2.7130571330   -0.6079126850
     33  H         2.0289460417    3.0747186755   -1.0380047444
     34  H         0.3716132743    2.6999266795   -1.4356931372
     35  H         0.7526844869    3.4359215512    0.1425480610
   Point Group: c1    Number of degrees of freedom:    99


   Energy is   -844.521206025

              Constraints and their Current Values
                                        Value     Constraint
   Dihedral:        2   1   3   5      145.794      147.300
   Dihedral:        1   2   4   7      -61.913      -64.600

 Attempting to Generate Delocalized Internal Coordinates

   Using Lagrange Multiplier Algorithm


101 Hessian modes will be used to form the next step
  Hessian Eigenvalues:
    -0.977753   -0.977753    0.045000    0.045000    0.045000    0.045000
     0.045000    0.045000    0.045023    0.045263    0.045502    0.048606
     0.060298    0.061777    0.067925    0.070278    0.071449    0.071695
     0.075522    0.076606    0.078244    0.080811    0.081377    0.081808
     0.083396    0.083502    0.083514    0.083675    0.084645    0.090017
     0.091538    0.091907    0.106339    0.109001    0.113820    0.113949
     0.116299    0.116905    0.116996    0.126894    0.131265    0.139894
     0.144501    0.160000    0.160000    0.160000    0.160000    0.160000
     0.160000    0.160000    0.160000    0.160000    0.160000    0.160000
     0.160000    0.165730    0.185925    0.241736    0.248635    0.249881
     0.250000    0.250000    0.250000    0.250000    0.250633    0.260748
     0.267050    0.282050    0.285547    0.305111    0.306449    0.307030
     0.309452    0.327325    0.337229    0.338979    0.340712    0.341060
     0.341086    0.341343    0.341531    0.342465    0.342607    0.342751
     0.342848    0.342936    0.343451    0.343609    0.343704    0.343747
     0.343768    0.343978    0.344143    0.411501    0.412503    0.509233
     0.515826    0.951140    0.953727    1.022753    1.022753

 Minimum Search - Taking P-RFO Step
 Searching for Lamda that Maximizes Along the Constraint modes Only
 Value Taken    Lamda =   0.00177021
 Searching for Lamda that Minimizes Along All other modes
 Value Taken    Lamda =  -0.01302693
 Step Taken.  Stepsize is  0.261603

                             Maximum     Tolerance    Cnvgd?
         Gradient            0.046889       0.000300      NO
         Displacement        0.073454       0.000001      NO
         Energy change     *********       0.000001      NO


 New Cartesian Coordinates Obtained by Inverse Iteration

 Displacement from previous Coordinates is:  0.576696
 Adding empirical dispersion correction 
 ----------------------------------------------------------------
 Doing -D3(op) with
 s6 =   1.00000
 s8 =   0.78311
 a1 =   0.30000
 a2 =   4.25000
 n  =  10.00000
 -D3 energy without 3body term =     -0.0412403213 hartrees
 ----------------------------------------------------------------
             Standard Nuclear Orientation (Angstroms)
    I     Atom           X                Y                Z
 ----------------------------------------------------------------
    1      C       0.0504888119     0.6589870526     0.6513797304
    2      C       0.4672593486    -0.8493326847     0.6272840101
    3      C      -1.2114007825     0.9850441354    -0.1189389610
    4      C      -0.5958298817    -1.7735444922     0.0512812151
    5      O      -1.8813301687     2.0039087227     0.4744674441
    6      O      -1.5778555143     0.4675444557    -1.1437355394
    7      O      -1.6848968882    -1.7459954345     0.8657703792
    8      O      -0.5050296324    -2.5343890323    -0.8758594834
    9      C      -2.7962954529    -2.5546457065     0.4533468384
   10      C      -3.0787139450     2.4379406039    -0.1892491252
   11      C       1.2884576187     1.3395135382     0.0025698070
   12      C       2.4570535161     1.2678722256     1.0152523698
   13      C       2.8709600301    -0.2255509229     0.9093220138
   14      C       1.8430221423    -0.7763069307    -0.1158059435
   15      O       1.6826621516     0.3667793204    -0.9877044460
   16      H      -0.0947396855     1.0090496779     1.6739050243
   17      H       0.6383796268    -1.2207217597     1.6417732846
   18      H      -2.5295038979    -3.6130219893     0.4509717689
   19      H      -3.7913010615     1.6163620177    -0.2768501653
   20      H       3.2712422850     1.9178652164     0.6913307359
   21      H       2.1662750729     1.5776471584     2.0228570747
   22      H       3.8766651825    -0.3099378021     0.4964412847
   23      H       2.8581531299    -0.7593324537     1.8640040086
   24      H      -3.5816768376    -2.3731104273     1.1869251937
   25      H      -3.1390518015    -2.2560008542    -0.5385966398
   26      H      -2.8531275645     2.8370911241    -1.1797418386
   27      H      -3.4960045729     3.2239379339     0.4393615185
   28      C       2.3435427304    -1.9805384319    -0.8850381747
   29      H       3.3698132305    -1.7949701024    -1.2160555169
   30      H       2.3359244798    -2.8745247168    -0.2588839652
   31      H       1.7416578775    -2.1677805948    -1.7721722023
   32      C       1.0795234502     2.6990007723    -0.6277427610
   33      H       2.0215588465     3.0561237365    -1.0494669352
   34      H       0.3557271140     2.6559864449    -1.4463976678
   35      H       0.7309844155     3.4182631328     0.1162378939
 ----------------------------------------------------------------
 Molecular Point Group                 C1    NOp =  1
 Largest Abelian Subgroup              C1    NOp =  1
 Nuclear Repulsion Energy =  1395.3506651747 hartrees
 There are       65 alpha and       65 beta electrons
 Applying Cartesian multipole field
    Component          Value
    ---------          -----
     (2,0,0)        1.00000E-11
     (0,2,0)        2.00000E-11
     (0,0,2)       -3.00000E-11
 Nucleus-field energy     =     0.0000000380 hartrees
 Requested basis set is 6-311++G(d,p)
 There are 192 shells and 500 basis functions
 A cutoff of  1.0D-12 yielded  15289 shell pairs
 There are    105516 function pairs (    112495 Cartesian)
 Smallest overlap matrix eigenvalue = 3.53E-07
 Linear dependence detected in AO basis
 Number of orthogonalized atomic orbitals = 499
 Maximum deviation from orthogonality = 1.322E-10
 Guess MOs from SCF MO coefficient file
 Reading MOs from coefficient file
 Reading MOs from coefficient file
 A restricted hybrid HF-DFT SCF calculation will be
 performed using Pulay DIIS extrapolation
 Exchange:     0.2000 Hartree-Fock + 0.0800 Slater + 0.7200 B88
 Correlation:  0.1900 VWN1RPA + 0.8100 LYP
 Using SG-1 standard quadrature grid
 Dispersion:   Grimme D3
 SCF converges when DIIS error is below 1.0E-08
 Geometry optimization detected.  Setting ReadMinima to 0
 Setting SaveMinima to 0
 -------------------------------------------------------
 OpenMP Integral computing Module                
 Release: version 1.0, May 2013, Q-Chem Inc. Pittsburgh 
 -------------------------------------------------------
 -------------------------------------------------------
 OpenMP BLAS3 based DFT computing Module                
 Release: version 1.0, May 2013, Q-Chem Inc. Pittsburgh 
 -------------------------------------------------------
 ---------------------------------------
  Cycle       Energy         DIIS Error
 ---------------------------------------
    1    -844.5229105096      1.06E-03
    2    -844.5270304518      1.50E-04
    3    -844.5269267745      1.72E-04
    4    -844.5275883886      4.93E-05
    5    -844.5276313277      2.01E-05
    6    -844.5276401496      4.98E-06
    7    -844.5276405649      2.44E-06
    8    -844.5276407020      5.56E-07
    9    -844.5276407096      2.10E-07
   10    -844.5276407105      7.73E-08
   11    -844.5276407106      2.96E-08
   12    -844.5276407107      7.19E-09 Convergence criterion met
 ---------------------------------------
 SCF time:  CPU 1928.44 s  wall 88.42 s
 SCF   energy in the final basis set = -844.5276407107
 Total energy in the final basis set = -844.5276407107
 
 --------------------------------------------------------------
 
                    Orbital Energies (a.u.)
 --------------------------------------------------------------
 
 Alpha MOs
 -- Occupied --
-19.177 -19.166 -19.124 -19.118 -19.110 -10.308 -10.303 -10.243
-10.236 -10.231 -10.222 -10.204 -10.204 -10.177 -10.175 -10.169
-10.154  -1.117  -1.107  -1.056  -1.030  -1.021  -0.832  -0.804
 -0.782  -0.748  -0.724  -0.721  -0.671  -0.642  -0.602  -0.580
 -0.563  -0.553  -0.526  -0.507  -0.501  -0.492  -0.488  -0.481
 -0.472  -0.470  -0.456  -0.439  -0.432  -0.421  -0.418  -0.411
 -0.406  -0.397  -0.391  -0.372  -0.368  -0.365  -0.358  -0.355
 -0.350  -0.345  -0.331  -0.325  -0.318  -0.308  -0.289  -0.274
 -0.269
 -- Virtual --
 -0.020  -0.011  -0.005  -0.001   0.008   0.010   0.011   0.019
  0.025   0.030   0.035   0.038   0.043   0.043   0.047   0.051
  0.061   0.063   0.067   0.073   0.076   0.080   0.082   0.089
  0.094   0.099   0.103   0.105   0.107   0.113   0.115   0.116
  0.117   0.121   0.125   0.126   0.130   0.137   0.138   0.138
  0.141   0.143   0.145   0.149   0.153   0.155   0.156   0.160
  0.164   0.167   0.169   0.170   0.174   0.176   0.179   0.180
  0.183   0.186   0.193   0.196   0.197   0.201   0.204   0.209
  0.210   0.212   0.216   0.219   0.224   0.229   0.232   0.234
  0.238   0.246   0.249   0.259   0.261   0.267   0.271   0.275
  0.280   0.282   0.287   0.297   0.301   0.304   0.308   0.311
  0.318   0.321   0.332   0.334   0.338   0.344   0.346   0.348
  0.353   0.356   0.361   0.362   0.368   0.372   0.375   0.376
  0.378   0.385   0.390   0.391   0.394   0.408   0.412   0.421
  0.423   0.428   0.432   0.434   0.442   0.461   0.468   0.485
  0.486   0.494   0.496   0.511   0.521   0.525   0.533   0.539
  0.547   0.557   0.567   0.573   0.581   0.594   0.600   0.604
  0.615   0.619   0.623   0.634   0.642   0.646   0.651   0.654
  0.663   0.665   0.669   0.676   0.680   0.683   0.685   0.691
  0.701   0.709   0.714   0.718   0.727   0.730   0.731   0.737
  0.747   0.752   0.764   0.771   0.784   0.790   0.797   0.805
  0.806   0.815   0.826   0.843   0.848   0.858   0.882   0.918
  0.935   0.943   0.976   0.980   0.998   1.026   1.035   1.043
  1.065   1.068   1.078   1.088   1.109   1.133   1.137   1.146
  1.172   1.193   1.199   1.210   1.215   1.237   1.242   1.255
  1.259   1.274   1.283   1.293   1.301   1.310   1.321   1.334
  1.349   1.359   1.365   1.385   1.392   1.399   1.415   1.430
  1.438   1.444   1.462   1.465   1.471   1.484   1.502   1.522
  1.525   1.535   1.544   1.548   1.555   1.565   1.570   1.577
  1.587   1.595   1.599   1.611   1.614   1.621   1.635   1.640
  1.655   1.664   1.667   1.683   1.691   1.699   1.704   1.711
  1.717   1.719   1.733   1.739   1.744   1.751   1.758   1.780
  1.787   1.804   1.813   1.820   1.831   1.837   1.851   1.863
  1.870   1.884   1.905   1.907   1.930   1.938   1.964   1.968
  1.987   2.003   2.023   2.027   2.037   2.049   2.055   2.082
  2.099   2.111   2.119   2.139   2.141   2.152   2.162   2.177
  2.180   2.194   2.206   2.232   2.235   2.252   2.282   2.291
  2.317   2.382   2.399   2.400   2.414   2.440   2.451   2.463
  2.480   2.489   2.495   2.502   2.511   2.520   2.525   2.532
  2.539   2.549   2.557   2.577   2.578   2.583   2.597   2.602
  2.613   2.634   2.652   2.662   2.673   2.690   2.705   2.719
  2.727   2.739   2.758   2.793   2.822   2.830   2.840   2.858
  2.871   2.878   2.886   2.892   2.917   2.934   2.952   2.973
  2.987   3.008   3.015   3.037   3.045   3.050   3.066   3.074
  3.085   3.094   3.107   3.119   3.133   3.150   3.175   3.182
  3.207   3.217   3.236   3.252   3.265   3.305   3.324   3.354
  3.388   3.399   3.403   3.431   3.545   3.598   3.606   3.670
  3.685   3.695   3.736   3.781   3.794   3.813   3.829   3.833
  3.837   3.843   3.851   3.963   3.982   4.033   4.074   4.110
  4.124   4.134   4.142   4.159   4.174   4.260   4.283   4.313
  4.445   4.506   5.052   5.118   5.121   5.181   5.230   5.291
  5.312   5.401   5.423   5.506   5.634   5.636   5.676   5.884
  5.907  23.764  23.847  23.852  23.896  23.899  23.928  23.939
 23.947  23.958  23.988  24.003  24.040  49.908  49.921  49.991
 50.052  50.055
 --------------------------------------------------------------
 
          Ground-State Mulliken Net Atomic Charges

     Atom                 Charge (a.u.)
  ----------------------------------------
      1 C                     0.557070
      2 C                     0.497816
      3 C                    -1.376114
      4 C                    -0.599754
      5 O                     0.025185
      6 O                    -0.145456
      7 O                    -0.018625
      8 O                    -0.160859
      9 C                    -0.183649
     10 C                    -0.197065
     11 C                    -0.118235
     12 C                    -0.287906
     13 C                    -0.454719
     14 C                    -0.697194
     15 O                     0.029579
     16 H                     0.295674
     17 H                     0.265055
     18 H                     0.167530
     19 H                     0.164623
     20 H                     0.169216
     21 H                     0.141771
     22 H                     0.172943
     23 H                     0.141592
     24 H                     0.149082
     25 H                     0.191854
     26 H                     0.179925
     27 H                     0.153997
     28 C                    -0.057404
     29 H                     0.134764
     30 H                     0.163295
     31 H                     0.213837
     32 C                    -0.071893
     33 H                     0.173102
     34 H                     0.212124
     35 H                     0.168839
  ----------------------------------------
  Sum of atomic charges =     0.000000

 -----------------------------------------------------------------
                    Cartesian Multipole Moments
 -----------------------------------------------------------------
    Charge (ESU x 10^10)
                 0.0000
    Dipole Moment (Debye)
         X      -0.6691      Y       1.9549      Z       3.5561
       Tot       4.1129
    Quadrupole Moments (Debye-Ang)
        XX     -89.6575     XY      -1.4478     YY     -97.1901
        XZ       1.3535     YZ      -5.0152     ZZ    -107.7861
    Octopole Moments (Debye-Ang^2)
       XXX     -57.7470    XXY       0.3012    XYY     -25.2613
       YYY      15.5305    XXZ       2.5462    XYZ       6.2561
       YYZ       4.0419    XZZ      -2.5567    YZZ       1.9547
       ZZZ       2.2619
    Hexadecapole Moments (Debye-Ang^3)
      XXXX   -2268.9508   XXXY     -11.4886   XXYY    -638.2532
      XYYY      -8.3523   YYYY   -1985.1895   XXXZ     -24.0687
      XXYZ      -8.4738   XYYZ      -8.8783   YYYZ     -48.2361
      XXZZ    -505.6435   XYZZ      -8.4172   YYZZ    -421.1613
      XZZZ      -5.6122   YZZZ       3.3228   ZZZZ    -484.1907
 -----------------------------------------------------------------
 Calculating analytic gradient of the SCF energy
 Gradient of SCF Energy
            1           2           3           4           5           6
    1   0.0062574  -0.0025901   0.0018361   0.0000281  -0.0025370  -0.0002888
    2   0.0018287  -0.0007949  -0.0017081   0.0109256   0.0023647   0.0005858
    3  -0.0091364   0.0078257   0.0010143  -0.0042085  -0.0006724  -0.0004525
            7           8           9          10          11          12
    1  -0.0011412  -0.0012791   0.0039807   0.0028867  -0.0074934  -0.0010488
    2  -0.0044254  -0.0041184   0.0003470  -0.0030086  -0.0012566   0.0024192
    3   0.0005660   0.0008871  -0.0010881  -0.0006585   0.0058610  -0.0032298
           13          14          15          16          17          18
    1   0.0005647  -0.0045995   0.0037145  -0.0003758   0.0029426  -0.0007659
    2  -0.0021762  -0.0005302   0.0001687  -0.0008868  -0.0024728  -0.0003348
    3  -0.0031243   0.0017067  -0.0032036   0.0009718  -0.0002985   0.0010500
           19          20          21          22          23          24
    1  -0.0008942   0.0007112   0.0005505   0.0000024   0.0008206  -0.0011690
    2   0.0005636  -0.0009903   0.0005453   0.0013251  -0.0004072  -0.0003847
    3   0.0009636   0.0005899   0.0009453   0.0005702   0.0007155  -0.0000648
           25          26          27          28          29          30
    1  -0.0012522  -0.0004222  -0.0010701  -0.0010890  -0.0000366   0.0003077
    2   0.0004098   0.0013665   0.0006142  -0.0018106  -0.0000166   0.0003400
    3   0.0005616   0.0003239  -0.0002144   0.0054282  -0.0018127  -0.0002128
           31          32          33          34          35
    1   0.0025523   0.0005091  -0.0003032   0.0005976   0.0000939
    2   0.0010458   0.0000003   0.0000170   0.0006119  -0.0001566
    3  -0.0023835   0.0034739  -0.0010315  -0.0016101  -0.0000523
 Max gradient component =       1.093E-02
 RMS gradient           =       2.587E-03
 Gradient time:  CPU 734.13 s  wall 40.65 s
 Geometry Optimization Parameters
   NAtoms,    NIC,     NZ,  NCons,   NDum,   NFix, NCnnct, MaxDiis
       35     275       0       2       0       0       0       0

 Cartesian Hessian Update
 Hessian Updated using BFGS Update


** CONSTRAINED OPTIMIZATION IN DELOCALIZED INTERNAL COORDINATES **
   Searching for a Minimum

   Optimization Cycle:   2

                       Coordinates (Angstroms)
     ATOM                X               Y               Z
      1  C         0.0504888119    0.6589870526    0.6513797304
      2  C         0.4672593486   -0.8493326847    0.6272840101
      3  C        -1.2114007825    0.9850441354   -0.1189389610
      4  C        -0.5958298817   -1.7735444922    0.0512812151
      5  O        -1.8813301687    2.0039087227    0.4744674441
      6  O        -1.5778555143    0.4675444557   -1.1437355394
      7  O        -1.6848968882   -1.7459954345    0.8657703792
      8  O        -0.5050296324   -2.5343890323   -0.8758594834
      9  C        -2.7962954529   -2.5546457065    0.4533468384
     10  C        -3.0787139450    2.4379406039   -0.1892491252
     11  C         1.2884576187    1.3395135382    0.0025698070
     12  C         2.4570535161    1.2678722256    1.0152523698
     13  C         2.8709600301   -0.2255509229    0.9093220138
     14  C         1.8430221423   -0.7763069307   -0.1158059435
     15  O         1.6826621516    0.3667793204   -0.9877044460
     16  H        -0.0947396855    1.0090496779    1.6739050243
     17  H         0.6383796268   -1.2207217597    1.6417732846
     18  H        -2.5295038979   -3.6130219893    0.4509717689
     19  H        -3.7913010615    1.6163620177   -0.2768501653
     20  H         3.2712422850    1.9178652164    0.6913307359
     21  H         2.1662750729    1.5776471584    2.0228570747
     22  H         3.8766651825   -0.3099378021    0.4964412847
     23  H         2.8581531299   -0.7593324537    1.8640040086
     24  H        -3.5816768376   -2.3731104273    1.1869251937
     25  H        -3.1390518015   -2.2560008542   -0.5385966398
     26  H        -2.8531275645    2.8370911241   -1.1797418386
     27  H        -3.4960045729    3.2239379339    0.4393615185
     28  C         2.3435427304   -1.9805384319   -0.8850381747
     29  H         3.3698132305   -1.7949701024   -1.2160555169
     30  H         2.3359244798   -2.8745247168   -0.2588839652
     31  H         1.7416578775   -2.1677805948   -1.7721722023
     32  C         1.0795234502    2.6990007723   -0.6277427610
     33  H         2.0215588465    3.0561237365   -1.0494669352
     34  H         0.3557271140    2.6559864449   -1.4463976678
     35  H         0.7309844155    3.4182631328    0.1162378939
   Point Group: c1    Number of degrees of freedom:    99


   Energy is   -844.527640711

              Constraints and their Current Values
                                        Value     Constraint
   Dihedral:        2   1   3   5      147.288      147.300
   Dihedral:        1   2   4   7      -64.583      -64.600
 Hessian Updated using BFGS Update

   Using Lagrange Multiplier Algorithm


 85 Hessian modes will be used to form the next step
  Hessian Eigenvalues:
    -0.977849   -0.977241    0.043070    0.045014    0.045028    0.045067
     0.045494    0.048592    0.059730    0.061722    0.066884    0.069755
     0.071394    0.071499    0.074991    0.075736    0.078147    0.080129
     0.080893    0.081756    0.082534    0.083418    0.083652    0.083662
     0.084709    0.090051    0.090887    0.091914    0.106355    0.109285
     0.110228    0.113881    0.115158    0.116909    0.117001    0.126664
     0.131292    0.138581    0.144378    0.155827    0.161645    0.168613
     0.186029    0.240628    0.248161    0.249329    0.249897    0.250369
     0.260620    0.261917    0.277498    0.281721    0.285821    0.305484
     0.306395    0.307202    0.309492    0.327218    0.336641    0.338654
     0.340912    0.341073    0.341277    0.341478    0.342328    0.342466
     0.342685    0.342814    0.342903    0.343300    0.343389    0.343579
     0.343675    0.343736    0.343900    0.344096    0.353973    0.411265
     0.412304    0.508675    0.513537    0.949498    0.961233    1.022707
     1.024065

 Minimum Search - Taking P-RFO Step
 Searching for Lamda that Maximizes Along the Constraint modes Only
 Value Taken    Lamda =   0.00000263
 Searching for Lamda that Minimizes Along All other modes
 Value Taken    Lamda =  -0.00159417
 Step Taken.  Stepsize is  0.151389

                             Maximum     Tolerance    Cnvgd?
         Gradient            0.003997       0.000300      NO
         Displacement        0.069737       0.000001      NO
         Energy change     -0.006435       0.000001      NO


 New Cartesian Coordinates Obtained by Inverse Iteration

 Displacement from previous Coordinates is:  0.318653
 Adding empirical dispersion correction 
 ----------------------------------------------------------------
 Doing -D3(op) with
 s6 =   1.00000
 s8 =   0.78311
 a1 =   0.30000
 a2 =   4.25000
 n  =  10.00000
 -D3 energy without 3body term =     -0.0414215022 hartrees
 ----------------------------------------------------------------
             Standard Nuclear Orientation (Angstroms)
    I     Atom           X                Y                Z
 ----------------------------------------------------------------
    1      C       0.0524075967     0.6593896662     0.6638879356
    2      C       0.4757619998    -0.8487974446     0.6375667533
    3      C      -1.2113322101     0.9742960795    -0.1058345669
    4      C      -0.5781582670    -1.7780459185     0.0546276262
    5      O      -1.8810053837     1.9864887000     0.4906221251
    6      O      -1.5802589221     0.4474281142    -1.1230445400
    7      O      -1.6660681286    -1.7537816651     0.8674694810
    8      O      -0.4834732484    -2.5053750599    -0.8949566236
    9      C      -2.7936471621    -2.5292941238     0.4298162324
   10      C      -3.0803285354     2.4239172669    -0.1712860241
   11      C       1.2959749872     1.3391705960    -0.0029536807
   12      C       2.4610338233     1.2739647119     1.0182694960
   13      C       2.8750266578    -0.2203545230     0.9217253234
   14      C       1.8516810113    -0.7753457737    -0.1088008674
   15      O       1.6793762125     0.3596894112    -0.9837356761
   16      H      -0.0920019845     1.0215114151     1.6802565222
   17      H       0.6342292042    -1.2087482600     1.6556451531
   18      H      -2.5390965726    -3.5892707548     0.3871243180
   19      H      -3.7843797887     1.5967777377    -0.2696151589
   20      H       3.2683353911     1.9304405910     0.6904748664
   21      H       2.1603764377     1.5899169164     2.0193167064
   22      H       3.8797690302    -0.3185085135     0.5095064364
   23      H       2.8533122453    -0.7515731004     1.8760391800
   24      H      -3.5701309631    -2.3523366013     1.1714914176
   25      H      -3.1183774394    -2.1944364114    -0.5562387787
   26      H      -2.8493580837     2.8182458727    -1.1619150703
   27      H      -3.4916898631     3.2044694802     0.4650620932
   28      C       2.3340558225    -1.9830471951    -0.8825772240
   29      H       3.3586111164    -1.8057396041    -1.2198926065
   30      H       2.3241265901    -2.8728719588    -0.2497251842
   31      H       1.7013941929    -2.1715158950    -1.7463162308
   32      C       1.0731533787     2.6867974702    -0.6529773163
   33      H       2.0116583582     3.0436925522    -1.0811187581
   34      H       0.3389950800     2.6185749999    -1.4585608202
   35      H       0.7226207902     3.4134841552     0.0828896908
 ----------------------------------------------------------------
 Molecular Point Group                 C1    NOp =  1
 Largest Abelian Subgroup              C1    NOp =  1
 Nuclear Repulsion Energy =  1397.5788075400 hartrees
 There are       65 alpha and       65 beta electrons
 Applying Cartesian multipole field
    Component          Value
    ---------          -----
     (2,0,0)        1.00000E-11
     (0,2,0)        2.00000E-11
     (0,0,2)       -3.00000E-11
 Nucleus-field energy     =     0.0000000376 hartrees
 Requested basis set is 6-311++G(d,p)
 There are 192 shells and 500 basis functions
 A cutoff of  1.0D-12 yielded  15299 shell pairs
 There are    105600 function pairs (    112592 Cartesian)
 Smallest overlap matrix eigenvalue = 3.65E-07
 Linear dependence detected in AO basis
 Number of orthogonalized atomic orbitals = 499
 Maximum deviation from orthogonality = 1.458E-10
 Guess MOs from SCF MO coefficient file
 Reading MOs from coefficient file
 Reading MOs from coefficient file
 A restricted hybrid HF-DFT SCF calculation will be
 performed using Pulay DIIS extrapolation
 Exchange:     0.2000 Hartree-Fock + 0.0800 Slater + 0.7200 B88
 Correlation:  0.1900 VWN1RPA + 0.8100 LYP
 Using SG-1 standard quadrature grid
 Dispersion:   Grimme D3
 SCF converges when DIIS error is below 1.0E-08
 Geometry optimization detected.  Setting ReadMinima to 0
 Setting SaveMinima to 0
 -------------------------------------------------------
 OpenMP Integral computing Module                
 Release: version 1.0, May 2013, Q-Chem Inc. Pittsburgh 
 -------------------------------------------------------
 -------------------------------------------------------
 OpenMP BLAS3 based DFT computing Module                
 Release: version 1.0, May 2013, Q-Chem Inc. Pittsburgh 
 -------------------------------------------------------
 ---------------------------------------
  Cycle       Energy         DIIS Error
 ---------------------------------------
    1    -844.5306915634      4.92E-04
    2    -844.5283581044      7.27E-05
    3    -844.5282558741      9.89E-05
    4    -844.5285243323      1.80E-05
    5    -844.5285291958      1.01E-05
    6    -844.5285313966      2.35E-06
    7    -844.5285315060      1.16E-06
    8    -844.5285315355      2.52E-07
    9    -844.5285315369      8.97E-08
   10    -844.5285315370      3.87E-08
   11    -844.5285315371      1.38E-08
   12    -844.5285315370      3.28E-09 Convergence criterion met
 ---------------------------------------
 SCF time:  CPU 1896.21 s  wall 87.25 s
 SCF   energy in the final basis set = -844.5285315370
 Total energy in the final basis set = -844.5285315370
 
 --------------------------------------------------------------
 
                    Orbital Energies (a.u.)
 --------------------------------------------------------------
 
 Alpha MOs
 -- Occupied --
-19.176 -19.165 -19.124 -19.117 -19.110 -10.306 -10.302 -10.243
-10.235 -10.231 -10.222 -10.203 -10.202 -10.178 -10.175 -10.169
-10.153  -1.118  -1.107  -1.057  -1.031  -1.023  -0.830  -0.803
 -0.782  -0.749  -0.724  -0.720  -0.670  -0.642  -0.601  -0.580
 -0.563  -0.553  -0.526  -0.508  -0.501  -0.492  -0.488  -0.481
 -0.472  -0.470  -0.456  -0.439  -0.432  -0.421  -0.419  -0.411
 -0.405  -0.397  -0.391  -0.373  -0.368  -0.364  -0.358  -0.355
 -0.351  -0.346  -0.331  -0.323  -0.318  -0.308  -0.289  -0.273
 -0.269
 -- Virtual --
 -0.019  -0.011  -0.004  -0.000   0.009   0.011   0.012   0.019
  0.025   0.030   0.035   0.038   0.043   0.044   0.047   0.051
  0.061   0.063   0.068   0.073   0.076   0.080   0.082   0.089
  0.094   0.100   0.104   0.105   0.107   0.113   0.115   0.116
  0.117   0.121   0.125   0.127   0.131   0.137   0.138   0.139
  0.141   0.143   0.146   0.150   0.153   0.156   0.157   0.161
  0.164   0.167   0.169   0.170   0.174   0.176   0.180   0.180
  0.184   0.186   0.193   0.196   0.197   0.201   0.204   0.209
  0.211   0.212   0.216   0.219   0.224   0.229   0.232   0.234
  0.239   0.246   0.250   0.259   0.261   0.267   0.272   0.275
  0.280   0.282   0.288   0.296   0.301   0.305   0.308   0.312
  0.319   0.322   0.331   0.333   0.339   0.344   0.345   0.348
  0.354   0.357   0.361   0.363   0.368   0.372   0.375   0.376
  0.379   0.385   0.391   0.393   0.394   0.407   0.413   0.421
  0.423   0.428   0.432   0.434   0.444   0.461   0.468   0.482
  0.487   0.493   0.497   0.510   0.522   0.524   0.537   0.540
  0.547   0.558   0.568   0.573   0.581   0.595   0.599   0.604
  0.617   0.619   0.624   0.635   0.642   0.646   0.652   0.655
  0.662   0.666   0.670   0.678   0.681   0.684   0.684   0.692
  0.700   0.709   0.715   0.720   0.728   0.730   0.732   0.738
  0.747   0.753   0.765   0.772   0.786   0.792   0.796   0.804
  0.807   0.817   0.827   0.843   0.850   0.857   0.883   0.916
  0.935   0.944   0.975   0.982   0.997   1.026   1.035   1.043
  1.066   1.071   1.080   1.090   1.111   1.132   1.134   1.146
  1.173   1.191   1.200   1.213   1.216   1.235   1.242   1.257
  1.258   1.274   1.283   1.293   1.303   1.310   1.321   1.338
  1.351   1.360   1.365   1.387   1.396   1.406   1.418   1.429
  1.436   1.444   1.464   1.467   1.472   1.486   1.502   1.522
  1.526   1.534   1.546   1.550   1.553   1.564   1.570   1.578
  1.585   1.597   1.597   1.610   1.614   1.623   1.635   1.641
  1.654   1.664   1.668   1.684   1.692   1.699   1.705   1.712
  1.716   1.719   1.735   1.739   1.748   1.750   1.757   1.781
  1.788   1.804   1.815   1.820   1.834   1.838   1.851   1.864
  1.870   1.886   1.907   1.908   1.927   1.937   1.966   1.968
  1.986   2.003   2.020   2.028   2.035   2.050   2.056   2.081
  2.098   2.112   2.117   2.137   2.141   2.149   2.162   2.177
  2.182   2.195   2.206   2.233   2.235   2.255   2.282   2.291
  2.318   2.381   2.400   2.401   2.417   2.443   2.454   2.464
  2.481   2.491   2.499   2.507   2.515   2.521   2.526   2.534
  2.541   2.551   2.558   2.577   2.581   2.587   2.597   2.603
  2.613   2.635   2.651   2.665   2.674   2.690   2.703   2.720
  2.730   2.740   2.757   2.794   2.820   2.832   2.840   2.858
  2.870   2.878   2.886   2.889   2.917   2.937   2.952   2.978
  2.990   3.008   3.016   3.038   3.045   3.047   3.066   3.074
  3.085   3.095   3.106   3.118   3.137   3.154   3.176   3.183
  3.210   3.221   3.238   3.255   3.271   3.308   3.327   3.355
  3.386   3.398   3.404   3.436   3.548   3.601   3.609   3.672
  3.681   3.702   3.737   3.777   3.791   3.822   3.828   3.837
  3.845   3.847   3.863   3.961   3.987   4.032   4.074   4.107
  4.127   4.133   4.142   4.162   4.177   4.256   4.283   4.315
  4.438   4.508   5.051   5.120   5.126   5.184   5.227   5.293
  5.316   5.403   5.425   5.509   5.637   5.642   5.682   5.889
  5.910  23.765  23.854  23.854  23.900  23.904  23.930  23.940
 23.949  23.960  23.989  24.003  24.039  49.909  49.923  49.992
 50.056  50.057
 --------------------------------------------------------------
 
          Ground-State Mulliken Net Atomic Charges

     Atom                 Charge (a.u.)
  ----------------------------------------
      1 C                     0.545012
      2 C                     0.470696
      3 C                    -1.387099
      4 C                    -0.558627
      5 O                     0.029016
      6 O                    -0.149640
      7 O                    -0.015628
      8 O                    -0.163476
      9 C                    -0.176841
     10 C                    -0.193482
     11 C                    -0.134758
     12 C                    -0.280503
     13 C                    -0.447244
     14 C                    -0.729431
     15 O                     0.035775
     16 H                     0.294171
     17 H                     0.265922
     18 H                     0.167190
     19 H                     0.164172
     20 H                     0.168943
     21 H                     0.141048
     22 H                     0.171859
     23 H                     0.141375
     24 H                     0.148754
     25 H                     0.190857
     26 H                     0.179831
     27 H                     0.153454
     28 C                    -0.036098
     29 H                     0.135318
     30 H                     0.163134
     31 H                     0.212507
     32 C                    -0.060054
     33 H                     0.173404
     34 H                     0.212963
     35 H                     0.167482
  ----------------------------------------
  Sum of atomic charges =     0.000000

 -----------------------------------------------------------------
                    Cartesian Multipole Moments
 -----------------------------------------------------------------
    Charge (ESU x 10^10)
                 0.0000
    Dipole Moment (Debye)
         X      -0.7333      Y       1.9672      Z       3.5257
       Tot       4.1034
    Quadrupole Moments (Debye-Ang)
        XX     -89.7418     XY      -1.4188     YY     -97.0855
        XZ       1.3994     YZ      -4.8903     ZZ    -107.7749
    Octopole Moments (Debye-Ang^2)
       XXX     -58.9995    XXY       0.7102    XYY     -25.5442
       YYY      15.2103    XXZ       2.3819    XYZ       5.6747
       YYZ       3.5557    XZZ      -3.1486    YZZ       2.4967
       ZZZ       1.6645
    Hexadecapole Moments (Debye-Ang^3)
      XXXX   -2268.1173   XXXY     -10.7510   XXYY    -636.5984
      XYYY      -6.5554   YYYY   -1965.6184   XXXZ     -25.6344
      XXYZ      -8.9740   XYYZ      -8.4412   YYYZ     -47.3650
      XXZZ    -504.9576   XYZZ      -7.8947   YYZZ    -419.1096
      XZZZ      -5.6800   YZZZ       0.1562   ZZZZ    -485.6886
 -----------------------------------------------------------------
 Calculating analytic gradient of the SCF energy
 Gradient of SCF Energy
            1           2           3           4           5           6
    1   0.0029445  -0.0024786  -0.0004518  -0.0005946  -0.0005719   0.0009383
    2   0.0020180  -0.0014415  -0.0008235   0.0024561  -0.0002211   0.0007782
    3  -0.0033661   0.0068262  -0.0022548  -0.0055840  -0.0006356   0.0026806
            7           8           9          10          11          12
    1  -0.0000409   0.0012199   0.0007226   0.0004850  -0.0022412  -0.0004380
    2  -0.0017819   0.0008159  -0.0000783  -0.0006030   0.0006996   0.0016854
    3   0.0007590   0.0023554  -0.0000714  -0.0002238   0.0026385   0.0004233
           13          14          15          16          17          18
    1   0.0002324  -0.0008710   0.0011016  -0.0008598   0.0013537   0.0000096
    2  -0.0015973  -0.0002328  -0.0005691  -0.0002726  -0.0010815   0.0002386
    3   0.0004619  -0.0012955  -0.0030359  -0.0002781  -0.0011570   0.0000584
           19          20          21          22          23          24
    1   0.0001170  -0.0003820   0.0004089  -0.0006684   0.0007175   0.0001827
    2   0.0001487  -0.0003139   0.0005056   0.0001315  -0.0002289   0.0003169
    3   0.0001148   0.0000498   0.0000990  -0.0001141   0.0001107   0.0001960
           25          26          27          28          29          30
    1   0.0000701  -0.0000638   0.0002322  -0.0011764  -0.0000325  -0.0003833
    2  -0.0000776  -0.0000048  -0.0000285  -0.0015710   0.0003534   0.0004147
    3   0.0002648   0.0002489   0.0002415   0.0016114  -0.0001653  -0.0002262
           31          32          33          34          35
    1   0.0003563  -0.0000090  -0.0000772   0.0002364   0.0000116
    2   0.0005808   0.0003683  -0.0003370   0.0001366  -0.0003841
    3  -0.0007711   0.0004062  -0.0000049  -0.0003030  -0.0000600
 Max gradient component =       6.826E-03
 RMS gradient           =       1.354E-03
 Gradient time:  CPU 735.38 s  wall 40.30 s
 Geometry Optimization Parameters
   NAtoms,    NIC,     NZ,  NCons,   NDum,   NFix, NCnnct, MaxDiis
       35     275       0       2       0       0       0       0

 Cartesian Hessian Update
 Hessian Updated using BFGS Update


** CONSTRAINED OPTIMIZATION IN DELOCALIZED INTERNAL COORDINATES **
   Searching for a Minimum

   Optimization Cycle:   3

                       Coordinates (Angstroms)
     ATOM                X               Y               Z
      1  C         0.0524075967    0.6593896662    0.6638879356
      2  C         0.4757619998   -0.8487974446    0.6375667533
      3  C        -1.2113322101    0.9742960795   -0.1058345669
      4  C        -0.5781582670   -1.7780459185    0.0546276262
      5  O        -1.8810053837    1.9864887000    0.4906221251
      6  O        -1.5802589221    0.4474281142   -1.1230445400
      7  O        -1.6660681286   -1.7537816651    0.8674694810
      8  O        -0.4834732484   -2.5053750599   -0.8949566236
      9  C        -2.7936471621   -2.5292941238    0.4298162324
     10  C        -3.0803285354    2.4239172669   -0.1712860241
     11  C         1.2959749872    1.3391705960   -0.0029536807
     12  C         2.4610338233    1.2739647119    1.0182694960
     13  C         2.8750266578   -0.2203545230    0.9217253234
     14  C         1.8516810113   -0.7753457737   -0.1088008674
     15  O         1.6793762125    0.3596894112   -0.9837356761
     16  H        -0.0920019845    1.0215114151    1.6802565222
     17  H         0.6342292042   -1.2087482600    1.6556451531
     18  H        -2.5390965726   -3.5892707548    0.3871243180
     19  H        -3.7843797887    1.5967777377   -0.2696151589
     20  H         3.2683353911    1.9304405910    0.6904748664
     21  H         2.1603764377    1.5899169164    2.0193167064
     22  H         3.8797690302   -0.3185085135    0.5095064364
     23  H         2.8533122453   -0.7515731004    1.8760391800
     24  H        -3.5701309631   -2.3523366013    1.1714914176
     25  H        -3.1183774394   -2.1944364114   -0.5562387787
     26  H        -2.8493580837    2.8182458727   -1.1619150703
     27  H        -3.4916898631    3.2044694802    0.4650620932
     28  C         2.3340558225   -1.9830471951   -0.8825772240
     29  H         3.3586111164   -1.8057396041   -1.2198926065
     30  H         2.3241265901   -2.8728719588   -0.2497251842
     31  H         1.7013941929   -2.1715158950   -1.7463162308
     32  C         1.0731533787    2.6867974702   -0.6529773163
     33  H         2.0116583582    3.0436925522   -1.0811187581
     34  H         0.3389950800    2.6185749999   -1.4585608202
     35  H         0.7226207902    3.4134841552    0.0828896908
   Point Group: c1    Number of degrees of freedom:    99


   Energy is   -844.528531537

              Constraints and their Current Values
                                        Value     Constraint
   Dihedral:        2   1   3   5      147.300      147.300
   Dihedral:        1   2   4   7      -64.600      -64.600
 Hessian Updated using BFGS Update

   Using Lagrange Multiplier Algorithm


 86 Hessian modes will be used to form the next step
  Hessian Eigenvalues:
    -0.976916    0.030541    0.045000    0.045018    0.045054    0.045239
     0.045643    0.048544    0.057187    0.062251    0.065333    0.069883
     0.071215    0.072007    0.074401    0.075621    0.078201    0.079929
     0.081163    0.081737    0.082427    0.083424    0.083654    0.083861
     0.084728    0.090226    0.091629    0.092556    0.106815    0.109463
     0.112847    0.113882    0.116908    0.116997    0.119748    0.130808
     0.131518    0.139636    0.145846    0.157823    0.160808    0.163414
     0.168742    0.187704    0.240972    0.247340    0.249681    0.249981
     0.250190    0.252725    0.260579    0.268740    0.273512    0.284561
     0.289274    0.306279    0.307150    0.308955    0.317364    0.327945
     0.338391    0.338514    0.340663    0.341073    0.341236    0.341498
     0.342107    0.342549    0.342690    0.342814    0.342886    0.343163
     0.343438    0.343626    0.343697    0.343864    0.344085    0.345546
     0.348929    0.411697    0.413086    0.509135    0.517154    0.951001
     0.974223    1.025752

 Minimum Search - Taking P-RFO Step
 Searching for Lamda that Maximizes Along the Constraint modes Only
 Value Taken    Lamda =   0.00000039
 Searching for Lamda that Minimizes Along All other modes
 Value Taken    Lamda =  -0.00045196
 Step Taken.  Stepsize is  0.100190

                             Maximum     Tolerance    Cnvgd?
         Gradient            0.002083       0.000300      NO
         Displacement        0.044719       0.000001      NO
         Energy change     -0.000891       0.000001      NO


 New Cartesian Coordinates Obtained by Inverse Iteration

 Displacement from previous Coordinates is:  0.209833
 Adding empirical dispersion correction 
 ----------------------------------------------------------------
 Doing -D3(op) with
 s6 =   1.00000
 s8 =   0.78311
 a1 =   0.30000
 a2 =   4.25000
 n  =  10.00000
 -D3 energy without 3body term =     -0.0414184925 hartrees
 ----------------------------------------------------------------
             Standard Nuclear Orientation (Angstroms)
    I     Atom           X                Y                Z
 ----------------------------------------------------------------
    1      C       0.0507494293     0.6499557709     0.6643488630
    2      C       0.4797380635    -0.8571412312     0.6343385051
    3      C      -1.2155673793     0.9700872577    -0.1014759897
    4      C      -0.5790197348    -1.7890348104     0.0569215574
    5      O      -1.8807871781     1.9797795302     0.5035236962
    6      O      -1.5886432945     0.4521306066    -1.1231318235
    7      O      -1.6604627041    -1.7677498241     0.8773543758
    8      O      -0.5020854973    -2.5010399852    -0.9062861549
    9      C      -2.8012820981    -2.5197150382     0.4257274653
   10      C      -3.0764662634     2.4322535573    -0.1592289231
   11      C       1.2962227490     1.3329885966    -0.0103193711
   12      C       2.4584964380     1.2745056005     1.0148633990
   13      C       2.8779881931    -0.2148286292     0.9255496630
   14      C       1.8619517252    -0.7780253245    -0.1073952842
   15      O       1.6794004730     0.3523326022    -0.9831498594
   16      H      -0.0884540520     1.0146928751     1.6803000580
   17      H       0.6294916988    -1.2066866242     1.6576003874
   18      H      -2.5572949977    -3.5806828152     0.3517487106
   19      H      -3.7823989068     1.6083273814    -0.2720956420
   20      H       3.2630984489     1.9366634334     0.6893819049
   21      H       2.1477742973     1.5894965637     2.0124618602
   22      H       3.8863197348    -0.3134259057     0.5197648487
   23      H       2.8486156928    -0.7434727776     1.8802917522
   24      H      -3.5730633209    -2.3543364085     1.1740844387
   25      H      -3.1223535535    -2.1563711565    -0.5518142457
   26      H      -2.8365767090     2.8314014700    -1.1460693891
   27      H      -3.4867907588     3.2087064836     0.4818406838
   28      C       2.3569705886    -1.9825801685    -0.8793845958
   29      H       3.3802946648    -1.7989443576    -1.2156674605
   30      H       2.3567508999    -2.8699843899    -0.2415312549
   31      H       1.7187773399    -2.1849693347    -1.7346988258
   32      C       1.0626161226     2.6760042928    -0.6667924327
   33      H       1.9967532150     3.0395778375    -1.0990615078
   34      H       0.3232752517     2.5943425887    -1.4656556224
   35      H       0.7085547957     3.4049552666     0.0658984437
 ----------------------------------------------------------------
 Molecular Point Group                 C1    NOp =  1
 Largest Abelian Subgroup              C1    NOp =  1
 Nuclear Repulsion Energy =  1396.6964115576 hartrees
 There are       65 alpha and       65 beta electrons
 Applying Cartesian multipole field
    Component          Value
    ---------          -----
     (2,0,0)        1.00000E-11
     (0,2,0)        2.00000E-11
     (0,0,2)       -3.00000E-11
 Nucleus-field energy     =     0.0000000375 hartrees
 Requested basis set is 6-311++G(d,p)
 There are 192 shells and 500 basis functions
 A cutoff of  1.0D-12 yielded  15303 shell pairs
 There are    105602 function pairs (    112596 Cartesian)
 Smallest overlap matrix eigenvalue = 3.72E-07
 Linear dependence detected in AO basis
 Number of orthogonalized atomic orbitals = 499
 Maximum deviation from orthogonality = 9.916E-11
 Guess MOs from SCF MO coefficient file
 Reading MOs from coefficient file
 Reading MOs from coefficient file
 A restricted hybrid HF-DFT SCF calculation will be
 performed using Pulay DIIS extrapolation
 Exchange:     0.2000 Hartree-Fock + 0.0800 Slater + 0.7200 B88
 Correlation:  0.1900 VWN1RPA + 0.8100 LYP
 Using SG-1 standard quadrature grid
 Dispersion:   Grimme D3
 SCF converges when DIIS error is below 1.0E-08
 Geometry optimization detected.  Setting ReadMinima to 0
 Setting SaveMinima to 0
 -------------------------------------------------------
 OpenMP Integral computing Module                
 Release: version 1.0, May 2013, Q-Chem Inc. Pittsburgh 
 -------------------------------------------------------
 -------------------------------------------------------
 OpenMP BLAS3 based DFT computing Module                
 Release: version 1.0, May 2013, Q-Chem Inc. Pittsburgh 
 -------------------------------------------------------
 ---------------------------------------
  Cycle       Energy         DIIS Error
 ---------------------------------------
    1    -844.5192098003      3.56E-04
    2    -844.5286422280      6.90E-05
    3    -844.5284632457      1.12E-04
    4    -844.5287837637      2.21E-05
    5    -844.5287939696      6.50E-06
    6    -844.5287948443      2.26E-06
    7    -844.5287949496      8.17E-07
    8    -844.5287949628      3.11E-07
    9    -844.5287949649      1.08E-07
   10    -844.5287949653      3.18E-08
   11    -844.5287949653      7.86E-09 Convergence criterion met
 ---------------------------------------
 SCF time:  CPU 1769.22 s  wall 80.55 s
 SCF   energy in the final basis set = -844.5287949653
 Total energy in the final basis set = -844.5287949653
 
 --------------------------------------------------------------
 
                    Orbital Energies (a.u.)
 --------------------------------------------------------------
 
 Alpha MOs
 -- Occupied --
-19.176 -19.166 -19.125 -19.117 -19.110 -10.306 -10.302 -10.243
-10.236 -10.232 -10.222 -10.203 -10.202 -10.178 -10.175 -10.169
-10.154  -1.118  -1.107  -1.059  -1.030  -1.022  -0.830  -0.803
 -0.782  -0.749  -0.724  -0.720  -0.670  -0.642  -0.600  -0.581
 -0.563  -0.552  -0.525  -0.508  -0.500  -0.491  -0.487  -0.481
 -0.472  -0.470  -0.456  -0.439  -0.432  -0.421  -0.419  -0.411
 -0.405  -0.397  -0.391  -0.373  -0.368  -0.365  -0.358  -0.355
 -0.352  -0.346  -0.331  -0.323  -0.318  -0.308  -0.289  -0.274
 -0.269
 -- Virtual --
 -0.019  -0.011  -0.005  -0.000   0.009   0.011   0.012   0.019
  0.025   0.030   0.035   0.038   0.043   0.044   0.047   0.051
  0.061   0.063   0.068   0.073   0.076   0.080   0.083   0.089
  0.093   0.100   0.104   0.105   0.107   0.113   0.115   0.116
  0.117   0.122   0.125   0.126   0.130   0.137   0.138   0.139
  0.141   0.143   0.146   0.149   0.152   0.156   0.157   0.160
  0.164   0.167   0.168   0.170   0.174   0.176   0.179   0.180
  0.184   0.186   0.193   0.196   0.197   0.201   0.204   0.209
  0.211   0.212   0.216   0.219   0.224   0.229   0.231   0.234
  0.239   0.246   0.250   0.258   0.261   0.267   0.272   0.275
  0.280   0.282   0.287   0.294   0.300   0.305   0.307   0.312
  0.318   0.322   0.331   0.333   0.339   0.343   0.345   0.348
  0.353   0.357   0.361   0.364   0.368   0.371   0.375   0.376
  0.380   0.386   0.391   0.394   0.394   0.406   0.413   0.420
  0.423   0.428   0.431   0.434   0.444   0.461   0.467   0.482
  0.486   0.492   0.496   0.508   0.521   0.524   0.537   0.540
  0.548   0.558   0.567   0.573   0.581   0.594   0.599   0.604
  0.616   0.619   0.624   0.635   0.642   0.646   0.652   0.654
  0.661   0.666   0.670   0.678   0.682   0.683   0.684   0.692
  0.699   0.708   0.715   0.720   0.727   0.730   0.733   0.738
  0.745   0.752   0.766   0.772   0.786   0.792   0.796   0.803
  0.806   0.817   0.826   0.843   0.850   0.857   0.883   0.915
  0.936   0.944   0.974   0.981   0.996   1.026   1.036   1.044
  1.067   1.070   1.080   1.091   1.112   1.129   1.131   1.146
  1.173   1.190   1.201   1.213   1.217   1.234   1.242   1.255
  1.256   1.276   1.283   1.294   1.303   1.310   1.321   1.336
  1.351   1.362   1.366   1.386   1.397   1.406   1.417   1.429
  1.436   1.443   1.463   1.466   1.471   1.485   1.502   1.518
  1.525   1.533   1.545   1.551   1.553   1.563   1.569   1.578
  1.585   1.593   1.597   1.609   1.615   1.624   1.634   1.642
  1.654   1.663   1.668   1.684   1.691   1.699   1.705   1.711
  1.715   1.718   1.734   1.739   1.748   1.749   1.755   1.780
  1.788   1.803   1.815   1.820   1.834   1.837   1.850   1.863
  1.870   1.884   1.905   1.909   1.926   1.936   1.964   1.968
  1.985   2.002   2.019   2.026   2.035   2.046   2.054   2.082
  2.096   2.110   2.116   2.137   2.142   2.147   2.161   2.176
  2.182   2.194   2.207   2.233   2.235   2.255   2.281   2.291
  2.318   2.379   2.399   2.400   2.419   2.443   2.454   2.463
  2.481   2.491   2.499   2.507   2.515   2.521   2.526   2.535
  2.541   2.550   2.557   2.578   2.581   2.588   2.596   2.604
  2.612   2.634   2.651   2.665   2.674   2.690   2.701   2.720
  2.727   2.739   2.757   2.795   2.818   2.832   2.840   2.857
  2.869   2.876   2.885   2.888   2.917   2.937   2.952   2.978
  2.991   3.006   3.013   3.038   3.043   3.047   3.065   3.072
  3.083   3.094   3.106   3.117   3.137   3.155   3.175   3.183
  3.209   3.222   3.237   3.252   3.268   3.307   3.327   3.355
  3.385   3.396   3.403   3.434   3.547   3.602   3.609   3.670
  3.679   3.701   3.737   3.775   3.789   3.822   3.826   3.834
  3.847   3.848   3.867   3.962   3.987   4.030   4.071   4.105
  4.126   4.131   4.142   4.161   4.176   4.253   4.285   4.314
  4.437   4.505   5.053   5.121   5.124   5.183   5.226   5.292
  5.316   5.403   5.425   5.510   5.635   5.640   5.685   5.889
  5.909  23.765  23.852  23.853  23.897  23.901  23.929  23.939
 23.948  23.960  23.989  24.003  24.038  49.910  49.923  49.991
 50.054  50.056
 --------------------------------------------------------------
 
          Ground-State Mulliken Net Atomic Charges

     Atom                 Charge (a.u.)
  ----------------------------------------
      1 C                     0.564089
      2 C                     0.465068
      3 C                    -1.417669
      4 C                    -0.546387
      5 O                     0.032441
      6 O                    -0.150750
      7 O                    -0.013640
      8 O                    -0.165712
      9 C                    -0.175425
     10 C                    -0.192630
     11 C                    -0.138615
     12 C                    -0.279291
     13 C                    -0.455741
     14 C                    -0.735503
     15 O                     0.040604
     16 H                     0.294339
     17 H                     0.265263
     18 H                     0.167799
     19 H                     0.164520
     20 H                     0.169641
     21 H                     0.140416
     22 H                     0.171887
     23 H                     0.141868
     24 H                     0.148858
     25 H                     0.190267
     26 H                     0.179658
     27 H                     0.153437
     28 C                    -0.026022
     29 H                     0.136117
     30 H                     0.162822
     31 H                     0.211916
     32 C                    -0.059910
     33 H                     0.174121
     34 H                     0.214882
     35 H                     0.167285
  ----------------------------------------
  Sum of atomic charges =     0.000000

 -----------------------------------------------------------------
                    Cartesian Multipole Moments
 -----------------------------------------------------------------
    Charge (ESU x 10^10)
                 0.0000
    Dipole Moment (Debye)
         X      -0.6810      Y       1.9797      Z       3.5251
       Tot       4.0999
    Quadrupole Moments (Debye-Ang)
        XX     -89.5987     XY      -1.5431     YY     -97.0419
        XZ       1.3072     YZ      -4.8601     ZZ    -107.9314
    Octopole Moments (Debye-Ang^2)
       XXX     -58.5421    XXY       0.7142    XYY     -25.4441
       YYY      16.0367    XXZ       2.4039    XYZ       5.5653
       YYZ       3.3758    XZZ      -2.9532    YZZ       2.9073
       ZZZ       1.6638
    Hexadecapole Moments (Debye-Ang^3)
      XXXX   -2272.4563   XXXY      -9.2784   XXYY    -636.4522
      XYYY      -6.1722   YYYY   -1961.6679   XXXZ     -25.5798
      XXYZ      -8.7583   XYYZ      -8.5325   YYYZ     -46.4059
      XXZZ    -506.5874   XYZZ      -7.3973   YYZZ    -419.7951
      XZZZ      -4.6777   YZZZ      -0.1575   ZZZZ    -487.6129
 -----------------------------------------------------------------
 Calculating analytic gradient of the SCF energy
 Gradient of SCF Energy
            1           2           3           4           5           6
    1   0.0019258  -0.0016635  -0.0005689  -0.0011075   0.0004283   0.0002062
    2   0.0010345  -0.0005493   0.0001979   0.0006410  -0.0009075   0.0002696
    3  -0.0007446   0.0047415  -0.0013974  -0.0035415  -0.0003948   0.0010340
            7           8           9          10          11          12
    1   0.0009113  -0.0006623  -0.0006262  -0.0005561   0.0000838  -0.0001930
    2  -0.0013889   0.0007101   0.0000597   0.0006680   0.0006912  -0.0003532
    3   0.0004210   0.0017755   0.0005630   0.0003489   0.0007061   0.0008112
           13          14          15          16          17          18
    1  -0.0001283   0.0010224  -0.0003289  -0.0007865   0.0004856   0.0001641
    2  -0.0003882   0.0004313  -0.0004213   0.0001522  -0.0003202   0.0000885
    3   0.0010585  -0.0015023  -0.0009069  -0.0003809  -0.0006833  -0.0002669
           19          20          21          22          23          24
    1   0.0002280  -0.0001974   0.0000570  -0.0001430   0.0003438   0.0002179
    2  -0.0000858   0.0000144   0.0001337   0.0000513  -0.0000759   0.0000774
    3  -0.0002444  -0.0002411  -0.0002725  -0.0003922  -0.0002685  -0.0000606
           25          26          27          28          29          30
    1   0.0002847   0.0000228   0.0002221   0.0003549   0.0002512  -0.0004323
    2  -0.0001593  -0.0003393  -0.0001482  -0.0005510   0.0001080   0.0000518
[...]
    Octopole Moments (Debye-Ang^2)
       XXX     -58.8873    XXY      -0.2679    XYY     -25.2107
       YYY      13.0809    XXZ       2.2874    XYZ       4.1501
       YYZ       3.9871    XZZ      -2.5924    YZZ       1.6354
       ZZZ       2.7763
    Hexadecapole Moments (Debye-Ang^3)
      XXXX   -2290.6295   XXXY     -19.8266   XXYY    -638.9013
      XYYY       1.9898   YYYY   -1942.8542   XXXZ     -22.9248
      XXYZ      -5.6193   XYYZ      -6.4289   YYYZ     -42.3189
      XXZZ    -510.1057   XYZZ      -7.4684   YYZZ    -411.5359
      XZZZ      -1.4889   YZZZ       3.8452   ZZZZ    -479.5070
 -----------------------------------------------------------------
 Calculating analytic gradient of the SCF energy
 Gradient of SCF Energy
            1           2           3           4           5           6
    1  -0.0000422   0.0000235  -0.0000634  -0.0000380   0.0000005   0.0000453
    2   0.0000540  -0.0000361  -0.0001654   0.0001056   0.0000456   0.0000332
    3  -0.0000573   0.0000555   0.0001053  -0.0000784  -0.0000090  -0.0000445
            7           8           9          10          11          12
    1   0.0000261   0.0000634  -0.0000231   0.0000155   0.0000570  -0.0000308
    2   0.0000061   0.0000221  -0.0000051  -0.0000056  -0.0000221  -0.0000223
    3   0.0000103  -0.0000361  -0.0000237   0.0000129   0.0000047   0.0000199
           13          14          15          16          17          18
    1   0.0000409  -0.0000589   0.0000044   0.0000204  -0.0000085  -0.0000186
    2  -0.0000098   0.0000373  -0.0000162  -0.0000063  -0.0000137  -0.0000027
    3   0.0000079  -0.0000176   0.0000126   0.0000028  -0.0000033  -0.0000285
           19          20          21          22          23          24
    1   0.0000053   0.0000008   0.0000150  -0.0000053  -0.0000126  -0.0000043
    2  -0.0000005  -0.0000085  -0.0000057  -0.0000068  -0.0000145  -0.0000020
    3   0.0000074   0.0000041   0.0000123   0.0000144  -0.0000043  -0.0000235
           25          26          27          28          29          30
    1  -0.0000052   0.0000143   0.0000059  -0.0000198  -0.0000056  -0.0000031
    2   0.0000037   0.0000105   0.0000043  -0.0000087  -0.0000021  -0.0000010
    3  -0.0000127   0.0000175   0.0000176   0.0000070  -0.0000098  -0.0000207
           31          32          33          34          35
    1  -0.0000206  -0.0000131   0.0000027   0.0000153   0.0000167
    2   0.0000035  -0.0000066   0.0000118   0.0000105   0.0000133
    3  -0.0000285  -0.0000018   0.0000300   0.0000199   0.0000377
 Max gradient component =       1.654E-04
 RMS gradient           =       3.292E-05
 Gradient time:  CPU 739.47 s  wall 41.59 s
 Geometry Optimization Parameters
   NAtoms,    NIC,     NZ,  NCons,   NDum,   NFix, NCnnct, MaxDiis
       35     275       0       0       0       0       0       0

 Cartesian Hessian Update
 Hessian Updated using BFGS Update


** GEOMETRY OPTIMIZATION IN DELOCALIZED INTERNAL COORDINATES **
   Searching for a Minimum

   Optimization Cycle:   8

                       Coordinates (Angstroms)
     ATOM                X               Y               Z
      1  C         0.0276216622    0.6618277528    0.6492555515
      2  C         0.5245887532   -0.8244512111    0.6461774493
      3  C        -1.2659744861    0.9132273347   -0.0919879023
      4  C        -0.4853951934   -1.8108121557    0.0768232933
      5  O        -1.9920978077    1.8617522837    0.5432166600
      6  O        -1.6080722672    0.4031555600   -1.1295269068
      7  O        -1.6077573654   -1.7684654796    0.8381957572
      8  O        -0.3469010649   -2.5663132519   -0.8474664582
      9  C        -2.7143182433   -2.5576428337    0.3650666844
     10  C        -3.2180464341    2.2523584801   -0.1022529808
     11  C         1.2298986593    1.3825492960   -0.0739446905
     12  C         2.3991567430    1.4430235234    0.9417084438
     13  C         2.8752693868   -0.0316659261    0.9510737105
     14  C         1.9081362806   -0.6963235710   -0.0713797296
     15  O         1.6704549477    0.3823600127   -0.9980758099
     16  H        -0.0949285029    1.0433428690    1.6611970393
     17  H         0.6676702781   -1.1453972594    1.6811821193
     18  H        -2.4469940109   -3.6147065403    0.3283226054
     19  H        -3.8729766952    1.3894945538   -0.2312329018
     20  H         3.1764917654    2.1105036647    0.5643990727
     21  H         2.0850583086    1.8123072154    1.9198490915
     22  H         3.9007390742   -0.1189858722    0.5882843988
     23  H         2.8290732162   -0.5021982163    1.9354974687
     24  H        -3.5166608471   -2.3910409305    1.0808574892
     25  H        -3.0094555321   -2.2226733816   -0.6305909826
     26  H        -3.0115892084    2.6940051881   -1.0785590081
     27  H        -3.6743221044    2.9846435043    0.5601850268
     28  C         2.4845357509   -1.8998125489   -0.7856512343
     29  H         3.4774811065   -1.6493161583   -1.1665452678
     30  H         2.5813393382   -2.7414240797   -0.0944603627
     31  H         1.8457333308   -2.2099031442   -1.6082197457
     32  C         0.9123083972    2.6761995645   -0.7911225393
     33  H         1.8166599356    3.0680599093   -1.2609800414
     34  H         0.1642683074    2.5143609571   -1.5692527411
     35  H         0.5337043524    3.4219194000   -0.0876399046
   Point Group: c1    Number of degrees of freedom:    99


   Energy is   -844.529226412

 Hessian Updated using BFGS Update

 95 Hessian modes will be used to form the next step
  Hessian Eigenvalues:
     0.001348    0.003233    0.006503    0.007379    0.007466    0.008935
     0.010417    0.010466    0.020912    0.021579    0.023378    0.028469
     0.035453    0.036636    0.037382    0.039185    0.043093    0.043983
     0.044838    0.046585    0.050783    0.054659    0.056125    0.057741
     0.058144    0.058688    0.059538    0.060071    0.060740    0.065261
     0.066025    0.068750    0.082150    0.088751    0.097747    0.101229
     0.101566    0.105866    0.106051    0.110510    0.115572    0.125452
     0.136086    0.158001    0.159403    0.159771    0.159900    0.159975
     0.160133    0.160449    0.161011    0.175593    0.185816    0.224666
     0.239180    0.248284    0.249310    0.249880    0.250696    0.252021
     0.252218    0.254911    0.273176    0.278673    0.281910    0.309634
     0.310680    0.315180    0.324116    0.342103    0.343815    0.345066
     0.345169    0.345373    0.345756    0.345885    0.345983    0.346166
     0.346232    0.346644    0.346767    0.346906    0.346963    0.347081
     0.349778    0.350333    0.350755    0.352342    0.365117    0.396861
     0.404115    0.535936    0.541391    1.021277    1.039817

 Minimum Search - Taking Simple RFO Step
 Searching for Lamda that Minimizes Along All modes
 Value Taken    Lamda =   0.00000000
 Step Taken.  Stepsize is  0.015072

                             Maximum     Tolerance    Cnvgd?
         Gradient           0.000124      0.000300     YES
         Displacement       0.005147      0.000001      NO
         Energy change     -0.000000      0.000001     YES

 Final energy is   -844.529226412294     


 ******************************
 **  OPTIMIZATION CONVERGED  **
 ******************************

                       Coordinates (Angstroms)
     ATOM                X               Y               Z
      1  C         0.0276216622    0.6618277528    0.6492555515
      2  C         0.5245887532   -0.8244512111    0.6461774493
      3  C        -1.2659744861    0.9132273347   -0.0919879023
      4  C        -0.4853951934   -1.8108121557    0.0768232933
      5  O        -1.9920978077    1.8617522837    0.5432166600
      6  O        -1.6080722672    0.4031555600   -1.1295269068
      7  O        -1.6077573654   -1.7684654796    0.8381957572
      8  O        -0.3469010649   -2.5663132519   -0.8474664582
      9  C        -2.7143182433   -2.5576428337    0.3650666844
     10  C        -3.2180464341    2.2523584801   -0.1022529808
     11  C         1.2298986593    1.3825492960   -0.0739446905
     12  C         2.3991567430    1.4430235234    0.9417084438
     13  C         2.8752693868   -0.0316659261    0.9510737105
     14  C         1.9081362806   -0.6963235710   -0.0713797296
     15  O         1.6704549477    0.3823600127   -0.9980758099
     16  H        -0.0949285029    1.0433428690    1.6611970393
     17  H         0.6676702781   -1.1453972594    1.6811821193
     18  H        -2.4469940109   -3.6147065403    0.3283226054
     19  H        -3.8729766952    1.3894945538   -0.2312329018
     20  H         3.1764917654    2.1105036647    0.5643990727
     21  H         2.0850583086    1.8123072154    1.9198490915
     22  H         3.9007390742   -0.1189858722    0.5882843988
     23  H         2.8290732162   -0.5021982163    1.9354974687
     24  H        -3.5166608471   -2.3910409305    1.0808574892
     25  H        -3.0094555321   -2.2226733816   -0.6305909826
     26  H        -3.0115892084    2.6940051881   -1.0785590081
     27  H        -3.6743221044    2.9846435043    0.5601850268
     28  C         2.4845357509   -1.8998125489   -0.7856512343
     29  H         3.4774811065   -1.6493161583   -1.1665452678
     30  H         2.5813393382   -2.7414240797   -0.0944603627
     31  H         1.8457333308   -2.2099031442   -1.6082197457
     32  C         0.9123083972    2.6761995645   -0.7911225393
     33  H         1.8166599356    3.0680599093   -1.2609800414
     34  H         0.1642683074    2.5143609571   -1.5692527411
     35  H         0.5337043524    3.4219194000   -0.0876399046

Z-matrix Print:
$molecule
0 1
O 
C  1 1.431254
C  1 1.441810 2 99.123529
C  2 1.512858 1 110.860532 3 179.383003 0
H  4 1.091440 2 110.796840 1 56.714768 0
H  4 1.091866 2 109.694895 1 -62.810207 0
H  4 1.092853 2 110.552208 1 177.446410 0
C  3 1.513541 1 110.753456 2 -176.351430 0
H  8 1.086666 3 111.116085 1 -55.219826 0
H  8 1.092597 3 109.166306 1 65.797510 0
H  8 1.093355 3 110.331292 1 -175.123745 0
C  2 1.549959 1 102.600868 3 55.127036 0
H  12 1.091690 2 112.536383 1 -155.443252 0
H  12 1.091852 2 109.541127 1 84.507383 0
C  12 1.549671 2 101.455277 1 -33.346295 0
H  15 1.091251 12 111.275432 2 117.087960 0
H  15 1.092074 12 113.732378 2 -120.995478 0
C  3 1.563812 1 102.143976 2 55.645745 0
H  18 1.093029 3 110.043683 1 -147.872129 0
C  18 1.522215 3 117.935655 1 92.418720 0
O  20 1.201780 18 128.210843 3 3.147374 0
O  20 1.356900 18 108.585350 3 179.995708 0
C  22 1.439142 20 115.748149 18 174.637064 0
H  23 1.088056 22 105.471191 20 -179.151821 0
H  23 1.090961 22 110.731702 20 61.217504 0
H  23 1.091167 22 109.853398 20 -59.793957 0
C  18 1.567167 3 101.756615 1 -32.922457 0
H  27 1.088392 18 111.713813 3 -117.652798 0
C  27 1.511964 18 115.343308 3 119.162879 0
O  29 1.205691 27 126.462259 18 -38.692366 0
O  29 1.352937 27 110.217566 18 144.228609 0
C  31 1.439498 29 115.899699 27 176.594720 0
H  32 1.087774 31 105.475968 29 178.080443 0
H  32 1.090919 31 110.467536 29 58.482635 0
H  32 1.091261 31 110.478604 29 -62.381872 0
$end

 
 --------------------------------------------------------------
 
                    Orbital Energies (a.u.)
 --------------------------------------------------------------
 
 Alpha MOs
 -- Occupied --
-19.176 -19.166 -19.125 -19.117 -19.111 -10.306 -10.303 -10.243
-10.236 -10.232 -10.223 -10.203 -10.203 -10.177 -10.175 -10.168
-10.154  -1.117  -1.108  -1.059  -1.029  -1.023  -0.830  -0.803
 -0.782  -0.749  -0.725  -0.720  -0.670  -0.642  -0.601  -0.581
 -0.563  -0.553  -0.526  -0.508  -0.501  -0.491  -0.488  -0.480
 -0.473  -0.470  -0.456  -0.439  -0.433  -0.422  -0.419  -0.411
 -0.405  -0.396  -0.392  -0.373  -0.369  -0.365  -0.358  -0.355
 -0.352  -0.346  -0.331  -0.323  -0.318  -0.308  -0.289  -0.274
 -0.269
 -- Virtual --
 -0.019  -0.012  -0.005  -0.000   0.009   0.011   0.012   0.019
  0.025   0.030   0.035   0.038   0.043   0.044   0.048   0.051
  0.062   0.064   0.068   0.072   0.076   0.081   0.083   0.089
  0.093   0.100   0.104   0.105   0.108   0.113   0.115   0.116
  0.118   0.122   0.126   0.127   0.130   0.137   0.138   0.140
  0.140   0.144   0.145   0.150   0.152   0.156   0.157   0.161
  0.163   0.167   0.169   0.170   0.173   0.176   0.180   0.180
  0.184   0.187   0.194   0.195   0.197   0.201   0.204   0.210
  0.211   0.212   0.215   0.221   0.223   0.228   0.231   0.234
  0.241   0.246   0.251   0.257   0.259   0.268   0.271   0.275
  0.280   0.284   0.286   0.293   0.300   0.304   0.307   0.312
  0.318   0.321   0.330   0.332   0.339   0.342   0.344   0.349
  0.353   0.356   0.360   0.366   0.369   0.370   0.375   0.376
  0.380   0.384   0.392   0.395   0.401   0.407   0.413   0.419
  0.425   0.428   0.432   0.435   0.447   0.462   0.466   0.479
  0.487   0.494   0.499   0.508   0.519   0.526   0.537   0.539
  0.546   0.556   0.568   0.572   0.580   0.594   0.597   0.605
  0.615   0.619   0.622   0.636   0.642   0.647   0.653   0.656
  0.660   0.665   0.672   0.679   0.681   0.683   0.683   0.693
  0.699   0.708   0.715   0.721   0.727   0.729   0.734   0.740
  0.745   0.749   0.768   0.772   0.788   0.793   0.798   0.803
  0.806   0.818   0.822   0.847   0.850   0.858   0.886   0.911
  0.932   0.945   0.975   0.982   0.995   1.024   1.033   1.049
  1.067   1.071   1.084   1.089   1.111   1.127   1.131   1.151
  1.178   1.187   1.197   1.209   1.217   1.233   1.242   1.254
  1.259   1.275   1.281   1.290   1.305   1.312   1.323   1.339
  1.348   1.363   1.367   1.384   1.401   1.408   1.418   1.430
  1.439   1.442   1.465   1.468   1.474   1.488   1.502   1.521
  1.525   1.535   1.545   1.551   1.553   1.565   1.568   1.580
  1.586   1.594   1.597   1.611   1.613   1.625   1.628   1.639
  1.657   1.661   1.671   1.687   1.689   1.700   1.704   1.709
  1.714   1.719   1.734   1.741   1.750   1.750   1.755   1.776
  1.787   1.803   1.817   1.819   1.835   1.840   1.846   1.861
  1.871   1.883   1.902   1.913   1.928   1.935   1.962   1.971
  1.993   2.000   2.018   2.027   2.033   2.044   2.051   2.088
  2.096   2.103   2.117   2.137   2.144   2.150   2.161   2.175
  2.181   2.197   2.209   2.231   2.236   2.260   2.281   2.293
  2.320   2.378   2.399   2.402   2.421   2.443   2.454   2.463
  2.482   2.491   2.499   2.507   2.514   2.518   2.527   2.534
  2.540   2.549   2.558   2.577   2.582   2.588   2.598   2.605
  2.612   2.631   2.652   2.668   2.676   2.690   2.702   2.719
  2.726   2.742   2.759   2.795   2.818   2.832   2.843   2.859
  2.868   2.873   2.886   2.889   2.922   2.933   2.954   2.980
  2.992   3.004   3.009   3.035   3.042   3.051   3.063   3.074
  3.082   3.094   3.107   3.114   3.135   3.156   3.179   3.187
  3.212   3.218   3.237   3.249   3.274   3.305   3.319   3.355
  3.380   3.397   3.404   3.431   3.547   3.599   3.607   3.670
  3.682   3.695   3.738   3.776   3.792   3.823   3.825   3.834
  3.845   3.848   3.868   3.963   3.985   4.029   4.069   4.105
  4.123   4.132   4.143   4.163   4.178   4.254   4.285   4.314
  4.442   4.507   5.046   5.116   5.131   5.191   5.222   5.291
  5.313   5.403   5.424   5.511   5.634   5.639   5.689   5.884
  5.913  23.764  23.849  23.852  23.898  23.900  23.929  23.939
 23.949  23.958  23.989  24.002  24.042  49.911  49.919  49.990
 50.051  50.060
 --------------------------------------------------------------
 
          Ground-State Mulliken Net Atomic Charges

     Atom                 Charge (a.u.)
  ----------------------------------------
      1 C                     0.685849
      2 C                     0.420726
      3 C                    -1.523032
      4 C                    -0.524401
      5 O                     0.041739
      6 O                    -0.151548
      7 O                    -0.018530
      8 O                    -0.171849
      9 C                    -0.176033
     10 C                    -0.186893
     11 C                    -0.172992
     12 C                    -0.290656
     13 C                    -0.439915
     14 C                    -0.751166
     15 O                     0.039338
     16 H                     0.294882
     17 H                     0.261265
     18 H                     0.169506
     19 H                     0.162213
     20 H                     0.170026
     21 H                     0.140926
     22 H                     0.174633
     23 H                     0.139408
     24 H                     0.148767
     25 H                     0.190480
     26 H                     0.178812
     27 H                     0.154248
     28 C                    -0.021751
     29 H                     0.140961
     30 H                     0.159963
     31 H                     0.208092
     32 C                    -0.013942
     33 H                     0.178319
     34 H                     0.218733
     35 H                     0.163823
  ----------------------------------------
  Sum of atomic charges =     0.000000

 -----------------------------------------------------------------
                    Cartesian Multipole Moments
 -----------------------------------------------------------------
    Charge (ESU x 10^10)
                 0.0000
    Dipole Moment (Debye)
         X      -0.8332      Y       2.0138      Z       3.4938
       Tot       4.1178
    Quadrupole Moments (Debye-Ang)
        XX     -89.2007     XY      -0.9051     YY     -97.8457
        XZ       1.6218     YZ      -4.7625     ZZ    -107.8115
    Octopole Moments (Debye-Ang^2)
       XXX     -58.8873    XXY      -0.2679    XYY     -25.2107
       YYY      13.0809    XXZ       2.2874    XYZ       4.1501
       YYZ       3.9871    XZZ      -2.5924    YZZ       1.6354
       ZZZ       2.7763
    Hexadecapole Moments (Debye-Ang^3)
      XXXX   -2290.6295   XXXY     -19.8266   XXYY    -638.9013
      XYYY       1.9898   YYYY   -1942.8542   XXXZ     -22.9248
      XXYZ      -5.6193   XYYZ      -6.4289   YYYZ     -42.3189
      XXZZ    -510.1057   XYZZ      -7.4684   YYZZ    -411.5359
      XZZZ      -1.4889   YZZZ       3.8452   ZZZZ    -479.5070
 -----------------------------------------------------------------
Archival summary:
1\1\nid03725\OPT\ProcedureUnspecified\BasisUnspecified\51218\junteng\TueOct318:58:212017TueOct318:58:212017\0\\#,OPT,ProcedureUnspecified,BasisUnspecified,\\0,1\O\C,1,1.43125\C,1,1.44181,2,99.1235\C,2,1.51286,1,110.861,3,179.383,0\H,4,1.09144,2,110.797,1,56.7148,0\H,4,1.09187,2,109.695,1,-62.8102,0\H,4,1.09285,2,110.552,1,177.446,0\C,3,1.51354,1,110.753,2,-176.351,0\H,8,1.08667,3,111.116,1,-55.2198,0\H,8,1.0926,3,109.166,1,65.7975,0\H,8,1.09336,3,110.331,1,-175.124,0\C,2,1.54996,1,102.601,3,55.127,0\H,12,1.09169,2,112.536,1,-155.443,0\H,12,1.09185,2,109.541,1,84.5074,0\C,12,1.54967,2,101.455,1,-33.3463,0\H,15,1.09125,12,111.275,2,117.088,0\H,15,1.09207,12,113.732,2,-120.995,0\C,3,1.56381,1,102.144,2,55.6457,0\H,18,1.09303,3,110.044,1,-147.872,0\C,18,1.52222,3,117.936,1,92.4187,0\O,20,1.20178,18,128.211,3,3.14737,0\O,20,1.3569,18,108.585,3,179.996,0\C,22,1.43914,20,115.748,18,174.637,0\H,23,1.08806,22,105.471,20,-179.152,0\H,23,1.09096,22,110.732,20,61.2175,0\H,23,1.09117,22,109.853,20,-59.794,0\C,18,1.56717,3,101.757,1,-32.9225,0\H,27,1.08839,18,111.714,3,-117.653,0\C,27,1.51196,18,115.343,3,119.163,0\O,29,1.20569,27,126.462,18,-38.6924,0\O,29,1.35294,27,110.218,18,144.229,0\C,31,1.4395,29,115.9,27,176.595,0\H,32,1.08777,31,105.476,29,178.08,0\H,32,1.09092,31,110.468,29,58.4826,0\H,32,1.09126,31,110.479,29,-62.3819,0\\\@

 Total job time:  1013.56s(wall), 20759.61s(cpu) 
 Tue Oct  3 18:58:21 2017

        *************************************************************
        *                                                           *
        *  Thank you very much for using Q-Chem.  Have a nice day.  *
        *                                                           *
        *************************************************************


