nid03721 10.128.14
Q-Chem Developer Version! Running on 10.128.14.*
                  Welcome to Q-Chem
     A Quantum Leap Into The Future Of Chemistry


 Q-Chem 5.0, Q-Chem, Inc., Pleasanton, CA (2017)

 Yihan Shao,  Zhengting Gan,  E. Epifanovsky,  A. T. B. Gilbert,  M. Wormit,  
 J. Kussmann,  A. W. Lange,  A. Behn,  Jia Deng,  Xintian Feng,  D. Ghosh,  
 M. Goldey,  P. R. Horn,  L. D. Jacobson,  I. Kaliman,  T. Kus,  A. Landau,  
 Jie Liu,  E. I. Proynov,  R. M. Richard,  R. P. Steele,  E. J. Sundstrom,  
 H. L. Woodcock III,  P. M. Zimmerman,  D. Zuev,  B. Albrecht,  E. Alguire,  
 S. A. Baeppler,  Z. Benda,  Y. A. Bernard,  E. J. Berquist,  K. B. Bravaya,  
 D. Casanova,  Chun-Min Chang,  Yunqing Chen,  A. Chien,  K. D. Closser,  
 M. P. Coons,  S. Dasgupta,  M. Diedenhofen,  Hainam Do,  R. G. Edgar,  
 Po-Tung Fang,  S. Fatehi,  Qingguo Feng,  Qinghui Ge,  A. Ghysels,  
 J. Gomes,  J. Gonthier,  A. Gunina,  M. W. D. Hanson-Heine,  
 P. H. P. Harbach,  A. W. Hauser,  J. E. Herr,  E. G. Hohenstein,  
 Z. C. Holden,  Kerwin Hui,  T.-C. Jagau,  Hyunjun Ji,  B. Kaduk,  
 K. Khistyaev,  Jaehoon Kim,  P. Klunzinger,  K. Koh,  D. Kosenkov,  
 T. Kowalczyk,  C. M. Krauter,  A. Kunitsa,  Ka Un Lao,  A. Laurent,  
 K. V. Lawler,  Joonho Lee,  D. Lefrancois,  S. Lehtola,  D. S. Levine,  
 Yi-Pei Li,  You-Sheng Lin,  Fenglai Liu,  E. Livshits,  A. Luenser,  
 P. Manohar,  E. Mansoor,  S. F. Manzer,  Shan-Ping Mao,  Yuezhi Mao,  
 N. Mardirossian,  A. V. Marenich,  L. A. Martinez-Martinez,  S. A. Maurer,  
 N. J. Mayhall,  S. C. McKenzie,  J.-M. Mewes,  A. F. Morrison,  K. Nanda,  
 T. S. Nguyen-Beck,  R. Olivares-Amaya,  J. A. Parkhill,  T. M. Perrine,  
 F. Plasser,  S. Prager,  A. Prociuk,  D. R. Rehn,  F. Rob,  M. Schneider,  
 N. Sergueev,  S. M. Sharada,  S. Sharma,  D. W. Small,  T. Stauch,  
 T. Stein,  Yu-Chuan Su,  A. J. W. Thom,  T. Tsuchimochi,  L. Vogt,  
 O. Vydrov,  M. A. Watson,  J. Wenzel,  M. de Wergifosse,  T. A. Wesolowski,  
 A. White,  J. Witte,  A. Yamada,  Jun Yang,  K. Yao,  S. Yeganeh,  
 S. R. Yost,  Zhi-Qiang You,  A. Zech,  Igor Ying Zhang,  Xing Zhang,  
 Yan Zhao,  Ying Zhu,  B. R. Brooks,  G. K. L. Chan,  C. J. Cramer,  
 M. S. Gordon,  W. J. Hehre,  A. Klamt,  M. W. Schmidt,  C. D. Sherrill,  
 D. G. Truhlar,  A. Aspuru-Guzik,  R. Baer,  A. T. Bell,  N. A. Besley,  
 Jeng-Da Chai,  A. Dreuw,  B. D. Dunietz,  T. R. Furlani,  Chao-Ping Hsu,  
 Yousung Jung,  Jing Kong,  D. S. Lambrecht,  WanZhen Liang,  C. Ochsenfeld,  
 V. A. Rassolov,  L. V. Slipchenko,  J. E. Subotnik,  T. Van Voorhis,  
 J. M. Herbert,  A. I. Krylov,  P. M. W. Gill,  M. Head-Gordon

 Contributors to earlier versions of Q-Chem not listed above: 
 R. D. Adamson,  B. Austin,  J. Baker,  G. J. O. Beran,  K. Brandhorst,  
 S. T. Brown,  E. F. C. Byrd,  A. K. Chakraborty,  C.-L. Cheng,  
 Siu Hung Chien,  D. M. Chipman,  D. L. Crittenden,  H. Dachsel,  
 R. A. DiStasio Jr.,  R. J. Doerksen,  A. D. Dutoi,  L. Fusti-Molnar,  
 W. A. Goddard III,  A. Golubeva-Zadorozhnaya,  S. R. Gwaltney,  G. Hawkins,  
 A. Heyden,  S. Hirata,  G. Kedziora,  F. J. Keil,  C. Kelley,  Jihan Kim,  
 R. A. King,  R. Z. Khaliullin,  P. P. Korambath,  W. Kurlancheek,  
 A. M. Lee,  M. S. Lee,  S. V. Levchenko,  Ching Yeh Lin,  D. Liotard,  
 R. C. Lochan,  I. Lotan,  P. E. Maslen,  N. Nair,  D. P. O'Neill,  
 D. Neuhauser,  E. Neuscamman,  C. M. Oana,  R. Olson,  B. Peters,  
 R. Peverati,  P. A. Pieniazek,  Y. M. Rhee,  J. Ritchie,  M. A. Rohrdanz,  
 E. Rosta,  N. J. Russ,  H. F. Schaefer III,  N. E. Schultz,  N. Shenvi,  
 A. C. Simmonett,  A. Sodt,  D. Stuck,  K. S. Thanthiriwatte,  V. Vanovschi,  
 Tao Wang,  A. Warshel,  C. F. Williams,  Q. Wu,  X. Xu,  W. Zhang

 Please cite Q-Chem as follows:
 Y. Shao et al., Mol. Phys. 113, 184-215 (2015)
 DOI: 10.1080/00268976.2014.952696

 Q-Chem 5.0.0 for Intel X86 EM64T Linux

 Parts of Q-Chem use Armadillo 5.200.1 (Boston Tea Smuggler).
 http://arma.sourceforge.net/

 Q-Chem begins on Wed Oct 18 12:18:18 2017  

Host: nid03721
0

     Scratch files written to /global/cscratch1/sd/junteng/scratch/16/opt_11d01.save//

Checking the input file for inconsistencies... 	...done.

--------------------------------------------------------------
User input:
--------------------------------------------------------------
$molecule
0  1
C         -0.69200       -0.98100       -0.58500
C          0.64000       -0.15700       -0.78800
C         -1.84300       -0.29200        0.11800
C          0.73100        1.12300        0.04300
O         -2.87516       -0.11967       -0.73840
O         -1.87919        0.00580        1.29108
O         -0.29854        1.94665       -0.27182
O          1.56175        1.40999        0.87757
C         -0.32227        3.19730        0.43627
C         -3.94569        0.69150       -0.23107
C         -0.20600       -2.28500        0.12900
C          0.37100       -1.89000        1.48200
C          1.53000       -1.25700        1.25300
C          1.72400       -1.19200       -0.25700
C          1.09500       -2.54000       -0.66800
C          0.85000        0.22300       -2.26600
H         -0.38487        3.02836        1.51472
H         -3.56723        1.69178       -0.00165
H          2.16200       -0.75000        1.97400
H         -1.20840        3.72004        0.07524
H          0.58068        3.77507        0.22137
H         -4.68849        0.73364       -1.02878
H         -4.37497        0.24861        0.67256
H          2.73000       -0.96700       -0.61300
H         -0.96000       -3.07400        0.13800
H          0.87300       -0.67400       -2.89300
H          0.02900        0.85900       -2.61400
H          1.79300        0.76100       -2.39900
H          1.66400       -3.39500       -0.29200
H          0.93900       -2.65400       -1.74700
H         -0.14800       -2.00800        2.42400
H         -1.06400       -1.24200       -1.58300
$end


$opt
CONSTRAINT
tors    1    2    4    8    119.8
tors    2    1    3    6    -69.7
ENDCONSTRAINT
$end

$rem
JOBTYPE                   OPT
METHOD                    B3LYP
DFT_D                     D3_OP
BASIS                     STO-3G
GEOM_OPT_MAX_CYCLES       500
SYMMETRY                  False
THRESH                    12
SCF_CONVERGENCE           8
MAX_SUB_FILE_NUM          128
MEM_STATIC                400
MEM_TOTAL                 4000
$end

--------------------------------------------------------------
 Adding empirical dispersion correction 
 ----------------------------------------------------------------
 Doing -D3(op) with
 s6 =   1.00000
 s8 =   0.78311
 a1 =   0.30000
 a2 =   4.25000
 n  =  10.00000
 -D3 energy without 3body term =     -0.0400818055 hartrees
 ----------------------------------------------------------------
             Standard Nuclear Orientation (Angstroms)
    I     Atom           X                Y                Z
 ----------------------------------------------------------------
    1      C      -0.2139073586    -1.0088841407     0.5139903990
    2      C      -0.8080387306     0.4332762216     0.7621645358
    3      C       1.1212398019    -1.1053006138    -0.1943999762
    4      C      -0.1314918902     1.5478025553    -0.0361821460
    5      O       2.0592981475    -1.5977464714     0.6458478872
    6      O       1.3235294899    -0.8496868465    -1.3605267818
    7      O       1.1859981316     1.6004739017     0.2783164043
    8      O      -0.6367964600     2.2930461733    -0.8475360448
    9      C       1.9383800118     2.6201665496    -0.4000849472
   10      C       3.4013437140    -1.5540750069     0.1374961593
   11      C      -1.3740624241    -1.7569725604    -0.2214087716
   12      C      -1.6113611395    -1.0573772785    -1.5532566462
   13      C      -2.1775504608     0.1279224161    -1.2869761802
   14      C      -2.2940444587     0.2481637944     0.2275970796
   15      C      -2.5756718778    -1.2242413734     0.5941690624
   16      C      -0.7525900556     0.8187658139     2.2525695877
   17      H       1.8881620539     2.4797279062    -1.4832603855
   18      H       3.6819123623    -0.5156006544    -0.0606902157
   19      H      -2.3926150717     0.9310820039    -1.9833926430
   20      H       2.9631811288     2.5120998277    -0.0438120186
   21      H       1.5470120924     3.6109548533    -0.1541406967
   22      H       4.0286363629    -1.9802672583     0.9215452402
   23      H       3.4873832178    -2.1366997268    -0.7845264472
   24      H      -2.9757287248     1.0096650920     0.6081484363
   25      H      -1.2269622661    -2.8375693260    -0.2637192174
   26      H      -1.2968714906     0.0872791718     2.8583352288
   27      H       0.2859662365     0.8409605163     2.5997715798
   28      H      -1.1998575507     1.8033819195     2.4164747815
   29      H      -3.5388609982    -1.5706590740     0.2089113631
   30      H      -2.5146196533    -1.4410361973     1.6669437965
   31      H      -1.2620027230    -1.4285944650    -2.5076127104
   32      H      -0.0644402402    -1.4688969087     1.4981432498
 ----------------------------------------------------------------
 Molecular Point Group                 C1    NOp =  1
 Largest Abelian Subgroup              C1    NOp =  1
 Nuclear Repulsion Energy =  1232.9155226284 hartrees
 There are       60 alpha and       60 beta electrons
 Requested basis set is STO-3G
 There are 48 shells and 96 basis functions

 Total QAlloc Memory Limit   4000 MB
 Mega-Array Size       392 MB
 MEM_STATIC part       400 MB
 A cutoff of  1.0D-12 yielded   1050 shell pairs
 There are      4581 function pairs
 
 -------------------------------------------------------
 OpenMP Integral Computing Module                       
 Release: version 1.0, May 2013, Q-Chem Inc. Pittsburgh 
 -------------------------------------------------------
 Integral Job Info:
 Integral job number is                      11
 Integral operator is                         1
 short-range coefficients                     0
 long-range coefficients              100000000
 Omega coefficients                           0
 if combine SR and LR in K                    0
 Integral screening is                        0
 Integral computing path is                   2
 max size of driver memory is            800000
 size of driver memory is                 45569
 size of scratch memory is               945100
 max col of scratch BK array                289
 max len of scratch array in speh3           22
 max len of scratch index in speh4            8
 max int batch size is                      520
 min int batch size is                       52
 fixed nKL is                                52
 max L of basis functions is                  1
 order of int derivative is                   0
 number of shells is                         48
 number of basis is                          96
 number of cartesian basis is                96
 number of contracted shell pairs          1050
 number of primitive shell pairs           5949
 maxK2 (contraction) of shell pair            9
 max number of K2 of shell pair               1
 max number of CS2 of shell pair            161
 max number of PS2 of shell pair            762
 mem total for path MDJ                   32074
 -------------------------------------------------------
 Smallest overlap matrix eigenvalue = 1.84E-01

 Scale SEOQF with 1.000000e-01/1.000000e-01/1.000000e-01

 Standard Electronic Orientation quadrupole field applied
 Nucleus-field energy     =     0.0000000195 hartrees
 Guess from superposition of atomic densities
 Warning:  Energy on first SCF cycle will be non-variational
 A restricted hybrid HF-DFT SCF calculation will be
 performed using Pulay DIIS extrapolation
 Exchange:     0.2000 Hartree-Fock + 0.0800 Slater + 0.7200 B88
 Correlation:  0.1900 VWN1RPA + 0.8100 LYP
 Using SG-1 standard quadrature grid
 Dispersion:   Grimme D3
 SCF converges when DIIS error is below 1.0E-08
 -------------------------------------------------------
 OpenMP Integral computing Module                
 Release: version 1.0, May 2013, Q-Chem Inc. Pittsburgh 
 -------------------------------------------------------
 -------------------------------------------------------
 OpenMP BLAS3 based DFT computing Module                
 Release: version 1.0, May 2013, Q-Chem Inc. Pittsburgh 
 -------------------------------------------------------
 ---------------------------------------
  Cycle       Energy         DIIS Error
 ---------------------------------------
    1    -757.2767330312      1.10E-01
    2    -757.7473754980      1.25E-02
    3    -756.8530237971      3.11E-02
    4    -757.9565284362      4.01E-03
    5    -757.9752438787      1.40E-03
    6    -757.9777466009      2.64E-04
    7    -757.9778345477      8.15E-05
    8    -757.9778424679      3.06E-05
    9    -757.9778436817      8.87E-06
   10    -757.9778437719      3.41E-06
   11    -757.9778437876      5.75E-07
   12    -757.9778437881      1.43E-07
   13    -757.9778437881      4.72E-08
   14    -757.9778437881      1.11E-08
   15    -757.9778437881      2.67E-09 Convergence criterion met
 ---------------------------------------
 SCF time:  CPU 68.84 s  wall 2.91 s
 SCF   energy in the final basis set = -757.9778437881
 Total energy in the final basis set = -757.9778437881
 
 --------------------------------------------------------------
 
                    Orbital Energies (a.u.)
 --------------------------------------------------------------
 
 Alpha MOs
 -- Occupied --
-18.937 -18.936 -18.863 -18.855 -10.104 -10.103 -10.072 -10.071
-10.036 -10.023 -10.022 -10.018 -10.012 -10.010  -9.977  -9.976
 -1.043  -1.038  -0.949  -0.947  -0.843  -0.747  -0.711  -0.680
 -0.673  -0.659  -0.634  -0.570  -0.534  -0.510  -0.490  -0.475
 -0.474  -0.458  -0.433  -0.426  -0.415  -0.406  -0.399  -0.387
 -0.372  -0.370  -0.353  -0.341  -0.338  -0.328  -0.320  -0.317
 -0.305  -0.294  -0.288  -0.272  -0.263  -0.242  -0.240  -0.183
 -0.175  -0.171  -0.145  -0.140
 -- Virtual --
  0.113   0.127   0.137   0.268   0.289   0.311   0.331   0.350
  0.376   0.384   0.386   0.400   0.416   0.423   0.425   0.433
  0.435   0.439   0.449   0.454   0.460   0.461   0.471   0.473
  0.479   0.492   0.497   0.505   0.526   0.529   0.546   0.554
  0.602   0.711   0.725   0.779
 --------------------------------------------------------------
 
          Ground-State Mulliken Net Atomic Charges

     Atom                 Charge (a.u.)
  ----------------------------------------
      1 C                    -0.077484
      2 C                     0.012056
      3 C                     0.237882
      4 C                     0.239122
      5 O                    -0.190225
      6 O                    -0.241860
      7 O                    -0.194838
      8 O                    -0.234051
      9 C                    -0.126865
     10 C                    -0.126093
     11 C                    -0.059522
     12 C                    -0.091188
     13 C                    -0.086417
     14 C                    -0.059264
     15 C                    -0.130108
     16 C                    -0.224307
     17 H                     0.098689
     18 H                     0.092235
     19 H                     0.086993
     20 H                     0.094499
     21 H                     0.092928
     22 H                     0.096468
     23 H                     0.094716
     24 H                     0.075345
     25 H                     0.074708
     26 H                     0.076061
     27 H                     0.084155
     28 H                     0.077609
     29 H                     0.077098
     30 H                     0.067519
     31 H                     0.081547
     32 H                     0.082593
  ----------------------------------------
  Sum of atomic charges =     0.000000

 -----------------------------------------------------------------
                    Cartesian Multipole Moments
 -----------------------------------------------------------------
    Charge (ESU x 10^10)
                -0.0000
    Dipole Moment (Debye)
         X       1.4593      Y      -0.2118      Z       1.6385
       Tot       2.2044
    Quadrupole Moments (Debye-Ang)
        XX     -80.3774     XY       2.1993     YY     -84.6467
        XZ      -1.7182     YZ       1.3191     ZZ     -89.2410
    Octopole Moments (Debye-Ang^2)
       XXX      52.5777    XXY       1.0142    XYY      21.2041
       YYY       8.3833    XXZ       1.5411    XYZ      -2.8540
       YYZ       0.2074    XZZ       2.9958    YZZ       2.4346
       ZZZ      -4.0494
    Hexadecapole Moments (Debye-Ang^3)
      XXXX   -1709.1007   XXXY     -49.4377   XXYY    -468.8015
      XYYY       2.0546   YYYY   -1174.8662   XXXZ       3.7553
      XXYZ      -8.9028   XYYZ     -12.5324   YYYZ      14.1621
      XXZZ    -411.4317   XYZZ      -4.8540   YYZZ    -306.3273
      XZZZ       5.2700   YZZZ     -12.3712   ZZZZ    -622.3154
 -----------------------------------------------------------------
 Calculating analytic gradient of the SCF energy
 Gradient of SCF Energy
            1           2           3           4           5           6
    1   0.0086128   0.0112502   0.0322090   0.0063119  -0.0146770  -0.0158184
    2   0.0047229   0.0113865  -0.0080502   0.0217320   0.0250654  -0.0215494
    3  -0.0271684  -0.0032049  -0.0068115  -0.0091285  -0.0695969   0.0827381
            7           8           9          10          11          12
    1  -0.0538332   0.0382551   0.0030536  -0.0049012  -0.0005157   0.0015026
    2   0.0291667  -0.0494986  -0.0062042  -0.0013290   0.0097651  -0.0076271
    3  -0.0424547   0.0512344   0.0067571   0.0090310  -0.0000991   0.0032496
           13          14          15          16          17          18
    1  -0.0015114   0.0020726   0.0095081   0.0008624  -0.0021179  -0.0086962
    2   0.0028663  -0.0084806   0.0061739   0.0024586  -0.0005890  -0.0104549
    3   0.0102349  -0.0059175  -0.0077024  -0.0113569   0.0137653   0.0040640
           19          20          21          22          23          24
    1   0.0035804  -0.0124059   0.0014199  -0.0095957  -0.0052533   0.0069393
    2  -0.0058602  -0.0015065  -0.0140174   0.0040779   0.0058628  -0.0058926
    3   0.0053374  -0.0018417  -0.0012129  -0.0064586   0.0112017  -0.0026446
           25          26          27          28          29          30
    1  -0.0004136   0.0026198  -0.0043640   0.0020763   0.0056079  -0.0010202
    2   0.0092531   0.0024346  -0.0012005  -0.0051897   0.0025009   0.0008307
    3  -0.0001690  -0.0028625  -0.0007271  -0.0006789   0.0025793  -0.0043662
           31          32
    1  -0.0019699   0.0012118
    2   0.0047478   0.0044046
    3   0.0098358  -0.0056266
 Max gradient component =       8.274E-02
 RMS gradient           =       1.790E-02
 Gradient time:  CPU 17.95 s  wall 0.81 s
 Geometry Optimization Parameters
   NAtoms,    NIC,     NZ,  NCons,   NDum,   NFix, NCnnct, MaxDiis
       32     251       0       2       0       0       0       0


** CONSTRAINED OPTIMIZATION IN DELOCALIZED INTERNAL COORDINATES **
   Searching for a Minimum

   Optimization Cycle:   1

                       Coordinates (Angstroms)
     ATOM                X               Y               Z
      1  C        -0.2139073586   -1.0088841407    0.5139903990
      2  C        -0.8080387306    0.4332762216    0.7621645358
      3  C         1.1212398019   -1.1053006138   -0.1943999762
      4  C        -0.1314918902    1.5478025553   -0.0361821460
      5  O         2.0592981475   -1.5977464714    0.6458478872
      6  O         1.3235294899   -0.8496868465   -1.3605267818
      7  O         1.1859981316    1.6004739017    0.2783164043
      8  O        -0.6367964600    2.2930461733   -0.8475360448
      9  C         1.9383800118    2.6201665496   -0.4000849472
     10  C         3.4013437140   -1.5540750069    0.1374961593
     11  C        -1.3740624241   -1.7569725604   -0.2214087716
     12  C        -1.6113611395   -1.0573772785   -1.5532566462
     13  C        -2.1775504608    0.1279224161   -1.2869761802
     14  C        -2.2940444587    0.2481637944    0.2275970796
     15  C        -2.5756718778   -1.2242413734    0.5941690624
     16  C        -0.7525900556    0.8187658139    2.2525695877
     17  H         1.8881620539    2.4797279062   -1.4832603855
     18  H         3.6819123623   -0.5156006544   -0.0606902157
     19  H        -2.3926150717    0.9310820039   -1.9833926430
     20  H         2.9631811288    2.5120998277   -0.0438120186
     21  H         1.5470120924    3.6109548533   -0.1541406967
     22  H         4.0286363629   -1.9802672583    0.9215452402
     23  H         3.4873832178   -2.1366997268   -0.7845264472
     24  H        -2.9757287248    1.0096650920    0.6081484363
     25  H        -1.2269622661   -2.8375693260   -0.2637192174
     26  H        -1.2968714906    0.0872791718    2.8583352288
     27  H         0.2859662365    0.8409605163    2.5997715798
     28  H        -1.1998575507    1.8033819195    2.4164747815
     29  H        -3.5388609982   -1.5706590740    0.2089113631
     30  H        -2.5146196533   -1.4410361973    1.6669437965
     31  H        -1.2620027230   -1.4285944650   -2.5076127104
     32  H        -0.0644402402   -1.4688969087    1.4981432498
   Point Group: c1    Number of degrees of freedom:    90


   Energy is   -757.977843788

              Constraints and their Current Values
                                        Value     Constraint
   Dihedral:        1   2   4   8      119.847      119.800
   Dihedral:        2   1   3   6      -69.721      -69.700

 Attempting to Generate Delocalized Internal Coordinates

   Using Lagrange Multiplier Algorithm


 92 Hessian modes will be used to form the next step
  Hessian Eigenvalues:
    -0.977753   -0.977753    0.045000    0.045000    0.045000    0.045000
     0.045000    0.045002    0.045065    0.045114    0.045223    0.045813
     0.051890    0.055495    0.062031    0.066525    0.071617    0.072789
     0.076285    0.076799    0.077515    0.081114    0.082170    0.083287
     0.083867    0.084219    0.085344    0.092246    0.094906    0.100729
     0.114752    0.115122    0.115740    0.118257    0.118447    0.119323
     0.135194    0.140455    0.157015    0.157301    0.158991    0.160000
     0.160000    0.160000    0.160000    0.160000    0.160000    0.160000
     0.160000    0.160000    0.175651    0.216670    0.228999    0.244563
     0.249690    0.249990    0.250000    0.250000    0.250000    0.250000
     0.254452    0.256641    0.271818    0.284792    0.295341    0.296819
     0.309019    0.340621    0.341100    0.342094    0.342803    0.343470
     0.343758    0.343780    0.343895    0.344232    0.344333    0.346532
     0.347191    0.347440    0.347742    0.354466    0.357579    0.399461
     0.401723    0.506472    0.538613    0.545538    0.990036    0.995639
     1.022753    1.022753

 Minimum Search - Taking P-RFO Step
 Searching for Lamda that Maximizes Along the Constraint modes Only
 Value Taken    Lamda =   0.00002224
 Searching for Lamda that Minimizes Along All other modes
 Value Taken    Lamda =  -0.05410123
 Calculated Step too Large.  Step scaled by  0.874150
 Step Taken.  Stepsize is  0.300000

                             Maximum     Tolerance    Cnvgd?
         Gradient            0.118652       0.000300      NO
         Displacement        0.172401       0.001200      NO
         Energy change     *********       0.000001      NO


 New Cartesian Coordinates Obtained by Inverse Iteration

 Displacement from previous Coordinates is:  0.753733
 Adding empirical dispersion correction 
 ----------------------------------------------------------------
 Doing -D3(op) with
 s6 =   1.00000
 s8 =   0.78311
 a1 =   0.30000
 a2 =   4.25000
 n  =  10.00000
 -D3 energy without 3body term =     -0.0398408240 hartrees
 ----------------------------------------------------------------
             Standard Nuclear Orientation (Angstroms)
    I     Atom           X                Y                Z
 ----------------------------------------------------------------
    1      C      -0.2400989376    -1.0226976000     0.5286688131
    2      C      -0.8403426227     0.4328067675     0.7757113838
    3      C       1.1320734710    -1.0829109971    -0.2077434127
    4      C      -0.1112477788     1.5611736879    -0.0409487446
    5      O       2.1071803286    -1.5712830123     0.6805770283
    6      O       1.3424903590    -0.8071760689    -1.4077372246
    7      O       1.2467073118     1.5709328933     0.3320836635
    8      O      -0.6066800751     2.3279582057    -0.8915527534
    9      C       2.0199219986     2.5920952828    -0.3837452827
   10      C       3.4608029171    -1.5098868833     0.1126111566
   11      C      -1.4134151054    -1.7846264982    -0.2164503466
   12      C      -1.6601317598    -1.0773859614    -1.5654157413
   13      C      -2.2297478860     0.1121885551    -1.3049794657
   14      C      -2.3433261579     0.2461119604     0.2293617323
   15      C      -2.6295708935    -1.2450445300     0.6076241966
   16      C      -0.8011050162     0.8255582351     2.2865704770
   17      H       1.9859338736     2.4325663350    -1.4807331121
   18      H       3.7485324584    -0.4658339476    -0.1253079251
   19      H      -2.4552052835     0.9160896525    -2.0121728324
   20      H       3.0603823087     2.4989207105    -0.0257276056
   21      H       1.6430059967     3.6133461976    -0.1721777237
   22      H       4.1403664285    -1.9149484785     0.8831256645
   23      H       3.5474425426    -2.1133241967    -0.8140231120
   24      H      -3.0349437705     1.0154108344     0.6074249524
   25      H      -1.2639351638    -2.8756211754    -0.2591646342
   26      H      -1.3597765989     0.0984508483     2.8940203360
   27      H       0.2391755065     0.8455729769     2.6448406496
   28      H      -1.2462930223     1.8198344664     2.4412916972
   29      H      -3.5982906231    -1.5972481681     0.2195332886
   30      H      -2.5674382802    -1.4595152992     1.6861960132
   31      H      -1.3136066528    -1.4586261350    -2.5307880926
   32      H      -0.0942906960    -1.4917278434     1.5179259198
 ----------------------------------------------------------------
 Molecular Point Group                 C1    NOp =  1
 Largest Abelian Subgroup              C1    NOp =  1
 Nuclear Repulsion Energy =  1213.2442865089 hartrees
 There are       60 alpha and       60 beta electrons
 Applying Cartesian multipole field
    Component          Value
    ---------          -----
     (2,0,0)        1.00000E-11
     (0,2,0)        2.00000E-11
     (0,0,2)       -3.00000E-11
 Nucleus-field energy     =     0.0000000195 hartrees
 Requested basis set is STO-3G
 There are 48 shells and 96 basis functions
 A cutoff of  1.0D-12 yielded   1049 shell pairs
 There are      4577 function pairs
 Smallest overlap matrix eigenvalue = 1.89E-01
 Guess MOs from SCF MO coefficient file
 Reading MOs from coefficient file
 Reading MOs from coefficient file
 A restricted hybrid HF-DFT SCF calculation will be
 performed using Pulay DIIS extrapolation
 Exchange:     0.2000 Hartree-Fock + 0.0800 Slater + 0.7200 B88
 Correlation:  0.1900 VWN1RPA + 0.8100 LYP
 Using SG-1 standard quadrature grid
 Dispersion:   Grimme D3
 SCF converges when DIIS error is below 1.0E-08
 Geometry optimization detected.  Setting ReadMinima to 0
 Setting SaveMinima to 0
 -------------------------------------------------------
 OpenMP Integral computing Module                
 Release: version 1.0, May 2013, Q-Chem Inc. Pittsburgh 
 -------------------------------------------------------
 -------------------------------------------------------
 OpenMP BLAS3 based DFT computing Module                
 Release: version 1.0, May 2013, Q-Chem Inc. Pittsburgh 
 -------------------------------------------------------
 ---------------------------------------
  Cycle       Energy         DIIS Error
 ---------------------------------------
    1    -757.8250966158      6.05E-03
    2    -757.9967871753      2.49E-03
    3    -757.9864321071      3.80E-03
    4    -758.0040956383      7.40E-04
    5    -758.0048564572      1.26E-04
    6    -758.0048787054      3.46E-05
    7    -758.0048795653      2.46E-05
    8    -758.0048803608      4.93E-06
    9    -758.0048803916      1.85E-06
   10    -758.0048803962      5.38E-07
   11    -758.0048803966      9.06E-08
   12    -758.0048803967      2.43E-08
   13    -758.0048803967      8.94E-09 Convergence criterion met
 ---------------------------------------
 SCF time:  CPU 80.32 s  wall 3.92 s
 SCF   energy in the final basis set = -758.0048803967
 Total energy in the final basis set = -758.0048803967
 
 --------------------------------------------------------------
 
                    Orbital Energies (a.u.)
 --------------------------------------------------------------
 
 Alpha MOs
 -- Occupied --
-18.934 -18.933 -18.867 -18.858 -10.094 -10.093 -10.066 -10.065
-10.037 -10.025 -10.024 -10.020 -10.012 -10.012  -9.979  -9.978
 -1.016  -1.009  -0.935  -0.930  -0.832  -0.737  -0.698  -0.670
 -0.663  -0.653  -0.629  -0.563  -0.531  -0.503  -0.486  -0.467
 -0.463  -0.444  -0.418  -0.414  -0.407  -0.397  -0.390  -0.381
 -0.369  -0.366  -0.350  -0.340  -0.332  -0.323  -0.315  -0.311
 -0.299  -0.288  -0.284  -0.269  -0.260  -0.246  -0.243  -0.181
 -0.173  -0.169  -0.146  -0.140
 -- Virtual --
  0.101   0.117   0.127   0.248   0.268   0.297   0.316   0.336
  0.351   0.355   0.368   0.382   0.398   0.405   0.409   0.413
  0.420   0.424   0.432   0.435   0.439   0.443   0.446   0.450
  0.453   0.469   0.478   0.486   0.508   0.514   0.524   0.537
  0.588   0.655   0.667   0.764
 --------------------------------------------------------------
 
          Ground-State Mulliken Net Atomic Charges

     Atom                 Charge (a.u.)
  ----------------------------------------
      1 C                    -0.073242
      2 C                     0.014162
      3 C                     0.213824
      4 C                     0.215247
      5 O                    -0.174795
      6 O                    -0.224659
      7 O                    -0.179311
      8 O                    -0.215890
      9 C                    -0.124840
     10 C                    -0.124642
     11 C                    -0.056569
     12 C                    -0.088845
     13 C                    -0.085826
     14 C                    -0.056291
     15 C                    -0.128155
     16 C                    -0.220929
     17 H                     0.093882
     18 H                     0.087387
     19 H                     0.085241
     20 H                     0.089463
     21 H                     0.088391
     22 H                     0.090877
     23 H                     0.089406
     24 H                     0.073567
     25 H                     0.073505
     26 H                     0.074998
     27 H                     0.083506
     28 H                     0.076576
     29 H                     0.075925
     30 H                     0.066834
     31 H                     0.080043
     32 H                     0.081159
  ----------------------------------------
  Sum of atomic charges =     0.000000

 -----------------------------------------------------------------
                    Cartesian Multipole Moments
 -----------------------------------------------------------------
    Charge (ESU x 10^10)
                -0.0000
    Dipole Moment (Debye)
         X       1.2265      Y      -0.2306      Z       1.5449
       Tot       1.9860
    Quadrupole Moments (Debye-Ang)
        XX     -79.9969     XY       2.3900     YY     -84.7525
        XZ      -1.9996     YZ       1.3952     ZZ     -89.1219
    Octopole Moments (Debye-Ang^2)
       XXX      53.9038    XXY       1.9081    XYY      20.3891
       YYY       7.9864    XXZ       0.5905    XYZ      -2.4298
       YYZ      -0.0631    XZZ       2.3429    YZZ       1.9465
       ZZZ      -4.2153
    Hexadecapole Moments (Debye-Ang^3)
      XXXX   -1781.1407   XXXY     -60.7532   XXYY    -480.7660
      XYYY      -7.9516   YYYY   -1170.7787   XXXZ       4.6658
      XXYZ      -9.5223   XYYZ     -12.2757   YYYZ      12.6769
      XXZZ    -428.4470   XYZZ      -8.9496   YYZZ    -308.9633
      XZZZ       8.3098   YZZZ     -13.0962   ZZZZ    -639.4572
 -----------------------------------------------------------------
 Calculating analytic gradient of the SCF energy
 Gradient of SCF Energy
            1           2           3           4           5           6
    1  -0.0025441   0.0080869   0.0120665   0.0094900  -0.0057257  -0.0033072
    2   0.0041475   0.0005747  -0.0058417   0.0012306   0.0046339  -0.0028515
    3  -0.0114534   0.0026651   0.0164404   0.0082603  -0.0212395   0.0052034
            7           8           9          10          11          12
    1  -0.0146579   0.0013725   0.0013253  -0.0022062  -0.0004653  -0.0012674
    2   0.0075636  -0.0046158  -0.0047684  -0.0007216   0.0012990  -0.0036286
    3  -0.0136809   0.0018767   0.0058946   0.0068209   0.0009501  -0.0000930
           13          14          15          16          17          18
    1  -0.0032159  -0.0015981   0.0024443   0.0000951  -0.0005043  -0.0005773
    2   0.0016965  -0.0033733   0.0004540   0.0017537   0.0005579  -0.0005719
    3   0.0015187  -0.0017379  -0.0006794  -0.0026142   0.0006185   0.0000148
           19          20          21          22          23          24
    1   0.0015563  -0.0009194  -0.0001824  -0.0003603  -0.0001486   0.0014148
    2  -0.0006140   0.0000457  -0.0006951   0.0003846   0.0005243  -0.0002015
    3   0.0003272  -0.0002868  -0.0005708  -0.0007651   0.0004006   0.0000268
           25          26          27          28          29          30
    1   0.0004968   0.0006407  -0.0006899   0.0001239   0.0003163  -0.0011002
    2   0.0009591   0.0004626  -0.0007215  -0.0006332   0.0001827  -0.0003023
    3  -0.0005393   0.0003408   0.0005299   0.0005015   0.0007212  -0.0005642
           31          32
    1   0.0009995  -0.0009589
    2   0.0014908   0.0015789
    3   0.0010083   0.0001046
 Max gradient component =       2.124E-02
 RMS gradient           =       4.651E-03
 Gradient time:  CPU 20.53 s  wall 0.87 s
 Geometry Optimization Parameters
   NAtoms,    NIC,     NZ,  NCons,   NDum,   NFix, NCnnct, MaxDiis
       32     251       0       2       0       0       0       0

 Cartesian Hessian Update
 Hessian Updated using BFGS Update


** CONSTRAINED OPTIMIZATION IN DELOCALIZED INTERNAL COORDINATES **
   Searching for a Minimum

   Optimization Cycle:   2

                       Coordinates (Angstroms)
     ATOM                X               Y               Z
      1  C        -0.2400989376   -1.0226976000    0.5286688131
      2  C        -0.8403426227    0.4328067675    0.7757113838
      3  C         1.1320734710   -1.0829109971   -0.2077434127
      4  C        -0.1112477788    1.5611736879   -0.0409487446
      5  O         2.1071803286   -1.5712830123    0.6805770283
      6  O         1.3424903590   -0.8071760689   -1.4077372246
      7  O         1.2467073118    1.5709328933    0.3320836635
      8  O        -0.6066800751    2.3279582057   -0.8915527534
      9  C         2.0199219986    2.5920952828   -0.3837452827
     10  C         3.4608029171   -1.5098868833    0.1126111566
     11  C        -1.4134151054   -1.7846264982   -0.2164503466
     12  C        -1.6601317598   -1.0773859614   -1.5654157413
     13  C        -2.2297478860    0.1121885551   -1.3049794657
     14  C        -2.3433261579    0.2461119604    0.2293617323
     15  C        -2.6295708935   -1.2450445300    0.6076241966
     16  C        -0.8011050162    0.8255582351    2.2865704770
     17  H         1.9859338736    2.4325663350   -1.4807331121
     18  H         3.7485324584   -0.4658339476   -0.1253079251
     19  H        -2.4552052835    0.9160896525   -2.0121728324
     20  H         3.0603823087    2.4989207105   -0.0257276056
     21  H         1.6430059967    3.6133461976   -0.1721777237
     22  H         4.1403664285   -1.9149484785    0.8831256645
     23  H         3.5474425426   -2.1133241967   -0.8140231120
     24  H        -3.0349437705    1.0154108344    0.6074249524
     25  H        -1.2639351638   -2.8756211754   -0.2591646342
     26  H        -1.3597765989    0.0984508483    2.8940203360
     27  H         0.2391755065    0.8455729769    2.6448406496
     28  H        -1.2462930223    1.8198344664    2.4412916972
     29  H        -3.5982906231   -1.5972481681    0.2195332886
     30  H        -2.5674382802   -1.4595152992    1.6861960132
     31  H        -1.3136066528   -1.4586261350   -2.5307880926
     32  H        -0.0942906960   -1.4917278434    1.5179259198
   Point Group: c1    Number of degrees of freedom:    90


   Energy is   -758.004880397

              Constraints and their Current Values
                                        Value     Constraint
   Dihedral:        1   2   4   8      119.801      119.800
   Dihedral:        2   1   3   6      -69.708      -69.700
 Hessian Updated using BFGS Update

   Using Lagrange Multiplier Algorithm


 80 Hessian modes will be used to form the next step
  Hessian Eigenvalues:
    -0.977753   -0.977743    0.044861    0.045002    0.045012    0.045055
     0.045113    0.045212    0.045770    0.051851    0.055495    0.061802
     0.066524    0.071611    0.072706    0.076229    0.076778    0.077535
     0.081130    0.082172    0.083288    0.083860    0.084208    0.085329
     0.092246    0.094931    0.100756    0.114723    0.115113    0.115684
     0.118257    0.118448    0.119315    0.135154    0.140426    0.156848
     0.157110    0.158993    0.159931    0.162210    0.175608    0.216818
     0.228974    0.239668    0.244583    0.249722    0.249995    0.250712
     0.254640    0.259659    0.271832    0.285538    0.296136    0.301331
     0.317571    0.340695    0.341128    0.342113    0.342819    0.343566
     0.343774    0.343864    0.343993    0.344286    0.345902    0.346750
     0.347342    0.347597    0.353028    0.355691    0.360672    0.399421
     0.405215    0.506341    0.519782    0.542519    0.992654    1.022504
     1.022753    1.045812

 Minimum Search - Taking P-RFO Step
 Searching for Lamda that Maximizes Along the Constraint modes Only
 Value Taken    Lamda =   0.00000068
 Searching for Lamda that Minimizes Along All other modes
 Value Taken    Lamda =  -0.00435819
 Step Taken.  Stepsize is  0.188189

                             Maximum     Tolerance    Cnvgd?
         Gradient            0.018558       0.000300      NO
         Displacement        0.069641       0.001200      NO
         Energy change     -0.027037       0.000001      NO


 New Cartesian Coordinates Obtained by Inverse Iteration

 Displacement from previous Coordinates is:  0.703989
 Adding empirical dispersion correction 
 ----------------------------------------------------------------
 Doing -D3(op) with
 s6 =   1.00000
 s8 =   0.78311
 a1 =   0.30000
 a2 =   4.25000
 n  =  10.00000
 -D3 energy without 3body term =     -0.0402282537 hartrees
 ----------------------------------------------------------------
             Standard Nuclear Orientation (Angstroms)
    I     Atom           X                Y                Z
 ----------------------------------------------------------------
    1      C      -0.2475446586    -1.0263557138     0.5578843883
    2      C      -0.8578058599     0.4298460296     0.7911262597
    3      C       1.1236820324    -1.0489995134    -0.1942748727
    4      C      -0.0861027271     1.5409058227    -0.0220897394
    5      O       2.1280634506    -1.5008976198     0.7111469793
    6      O       1.3339000530    -0.7722105717    -1.3982436901
    7      O       1.2755918863     1.5269355182     0.4050088114
    8      O      -0.5345758686     2.3110065834    -0.8998023390
    9      C       2.0538744096     2.5199867973    -0.3623944608
   10      C       3.4480245171    -1.4381153434     0.0504388578
   11      C      -1.4130982638    -1.7909208804    -0.2006881795
   12      C      -1.6397214716    -1.0831556730    -1.5564394519
   13      C      -2.2082749200     0.1085457836    -1.3100207040
   14      C      -2.3486463240     0.2507818645     0.2237083204
   15      C      -2.6419380439    -1.2421861390     0.6055119186
   16      C      -0.8431428749     0.8272903260     2.3028556870
   17      H       2.0302121191     2.3016309217    -1.4504087870
   18      H       3.7032158468    -0.3995529021    -0.2458673852
   19      H      -2.4319044239     0.9094931138    -2.0235098050
   20      H       3.0931252322     2.4459577953     0.0078637266
   21      H       1.6756430560     3.5510089944    -0.2019447420
   22      H       4.1802595453    -1.8017093551     0.7948166681
   23      H       3.4874956924    -2.0799620675    -0.8543868988
   24      H      -3.0496225770     1.0216661476     0.5857163673
   25      H      -1.2668368298    -2.8838185298    -0.2400965952
   26      H      -1.4200230444     0.1040528644     2.8990644500
   27      H       0.1929249931     0.8450964044     2.6756791302
   28      H      -1.2850577185     1.8264864965     2.4403871429
   29      H      -3.6052396956    -1.5950564800     0.2022712811
   30      H      -2.5919437188    -1.4504797747     1.6868723484
   31      H      -1.2906414241    -1.4771633777    -2.5176298751
   32      H      -0.0993232124    -1.4989467077     1.5463441514
 ----------------------------------------------------------------
 Molecular Point Group                 C1    NOp =  1
 Largest Abelian Subgroup              C1    NOp =  1
 Nuclear Repulsion Energy =  1215.4966395045 hartrees
 There are       60 alpha and       60 beta electrons
 Applying Cartesian multipole field
    Component          Value
    ---------          -----
     (2,0,0)        1.00000E-11
     (0,2,0)        2.00000E-11
     (0,0,2)       -3.00000E-11
 Nucleus-field energy     =     0.0000000187 hartrees
 Requested basis set is STO-3G
 There are 48 shells and 96 basis functions
 A cutoff of  1.0D-12 yielded   1049 shell pairs
 There are      4577 function pairs
 Smallest overlap matrix eigenvalue = 1.89E-01
 Guess MOs from SCF MO coefficient file
 Reading MOs from coefficient file
 Reading MOs from coefficient file
 A restricted hybrid HF-DFT SCF calculation will be
 performed using Pulay DIIS extrapolation
 Exchange:     0.2000 Hartree-Fock + 0.0800 Slater + 0.7200 B88
 Correlation:  0.1900 VWN1RPA + 0.8100 LYP
 Using SG-1 standard quadrature grid
 Dispersion:   Grimme D3
 SCF converges when DIIS error is below 1.0E-08
 Geometry optimization detected.  Setting ReadMinima to 0
 Setting SaveMinima to 0
 -------------------------------------------------------
 OpenMP Integral computing Module                
 Release: version 1.0, May 2013, Q-Chem Inc. Pittsburgh 
 -------------------------------------------------------
 -------------------------------------------------------
 OpenMP BLAS3 based DFT computing Module                
 Release: version 1.0, May 2013, Q-Chem Inc. Pittsburgh 
 -------------------------------------------------------
 ---------------------------------------
  Cycle       Energy         DIIS Error
 ---------------------------------------
    1    -757.9641374634      2.99E-03
    2    -758.0066495811      7.96E-04
    3    -758.0041564976      1.62E-03
    4    -758.0074489619      1.95E-04
    5    -758.0074995826      5.35E-05
    6    -758.0075031744      1.85E-05
    7    -758.0075034824      1.19E-05
    8    -758.0075036689      2.66E-06
    9    -758.0075036795      6.62E-07
   10    -758.0075036800      4.02E-07
   11    -758.0075036802      5.73E-08
   12    -758.0075036803      2.30E-08
   13    -758.0075036803      2.05E-09 Convergence criterion met
 ---------------------------------------
 SCF time:  CPU 58.11 s  wall 2.45 s
 SCF   energy in the final basis set = -758.0075036803
 Total energy in the final basis set = -758.0075036803
 
 --------------------------------------------------------------
 
                    Orbital Energies (a.u.)
 --------------------------------------------------------------
 
 Alpha MOs
 -- Occupied --
-18.933 -18.931 -18.872 -18.861 -10.093 -10.091 -10.063 -10.061
-10.038 -10.026 -10.024 -10.021 -10.013 -10.013  -9.980  -9.979
 -1.012  -1.004  -0.934  -0.928  -0.832  -0.736  -0.696  -0.668
 -0.659  -0.651  -0.629  -0.561  -0.531  -0.501  -0.486  -0.467
 -0.460  -0.442  -0.417  -0.414  -0.404  -0.394  -0.389  -0.378
 -0.370  -0.364  -0.350  -0.341  -0.333  -0.324  -0.314  -0.308
 -0.298  -0.286  -0.283  -0.270  -0.260  -0.249  -0.247  -0.181
 -0.174  -0.170  -0.148  -0.142
 -- Virtual --
  0.098   0.114   0.126   0.247   0.267   0.296   0.312   0.329
  0.343   0.347   0.365   0.377   0.393   0.403   0.406   0.408
  0.419   0.425   0.430   0.433   0.436   0.438   0.441   0.447
  0.453   0.468   0.477   0.482   0.505   0.511   0.522   0.534
  0.586   0.648   0.659   0.764
 --------------------------------------------------------------
 
          Ground-State Mulliken Net Atomic Charges

     Atom                 Charge (a.u.)
  ----------------------------------------
      1 C                    -0.072719
      2 C                     0.014320
      3 C                     0.209493
      4 C                     0.210912
      5 O                    -0.169303
      6 O                    -0.222153
      7 O                    -0.174338
      8 O                    -0.211135
      9 C                    -0.127501
     10 C                    -0.126979
     11 C                    -0.056659
     12 C                    -0.088418
     13 C                    -0.085905
     14 C                    -0.056640
     15 C                    -0.127349
     16 C                    -0.220297
     17 H                     0.093569
     18 H                     0.086737
     19 H                     0.084805
     20 H                     0.087663
     21 H                     0.088372
     22 H                     0.088488
     23 H                     0.088376
     24 H                     0.073697
     25 H                     0.073555
     26 H                     0.075088
     27 H                     0.084057
     28 H                     0.076472
     29 H                     0.075694
     30 H                     0.066693
     31 H                     0.079878
     32 H                     0.081528
  ----------------------------------------
  Sum of atomic charges =     0.000000

 -----------------------------------------------------------------
                    Cartesian Multipole Moments
 -----------------------------------------------------------------
    Charge (ESU x 10^10)
                -0.0000
    Dipole Moment (Debye)
         X       0.9922      Y      -0.2594      Z       1.4368
       Tot       1.7653
    Quadrupole Moments (Debye-Ang)
        XX     -80.3024     XY       2.2915     YY     -84.8887
        XZ      -2.2921     YZ       1.4844     ZZ     -89.1959
    Octopole Moments (Debye-Ang^2)
       XXX      50.3917    XXY       3.0192    XYY      18.2952
       YYY       6.7112    XXZ      -1.1178    XYZ      -1.7724
       YYZ      -0.8029    XZZ       1.5819    YZZ       1.3813
       ZZZ      -6.2793
    Hexadecapole Moments (Debye-Ang^3)
      XXXX   -1791.1071   XXXY     -66.5003   XXYY    -477.6042
      XYYY     -19.8062   YYYY   -1132.0473   XXXZ       9.1831
      XXYZ      -9.7814   XYYZ      -9.6755   YYYZ       8.5337
      XXZZ    -430.5170   XYZZ     -12.2457   YYZZ    -303.4813
      XZZZ      14.1552   YZZZ     -16.7382   ZZZZ    -644.4029
 -----------------------------------------------------------------
 Calculating analytic gradient of the SCF energy
 Gradient of SCF Energy
            1           2           3           4           5           6
    1  -0.0020379   0.0046313   0.0067395   0.0053507  -0.0024857  -0.0001050
    2   0.0021758  -0.0018484  -0.0012330   0.0014561  -0.0010891   0.0000044
    3  -0.0054315   0.0019995   0.0079362   0.0036349  -0.0027499  -0.0032205
            7           8           9          10          11          12
    1  -0.0032544  -0.0015207  -0.0022731  -0.0031712   0.0007142  -0.0020071
    2  -0.0006973   0.0006938  -0.0013151   0.0011540  -0.0011129  -0.0006934
    3  -0.0024504  -0.0032254   0.0015019   0.0004870   0.0004681   0.0005171
           13          14          15          16          17          18
    1  -0.0010908  -0.0012061   0.0016021  -0.0003741   0.0000174   0.0000947
    2  -0.0000119  -0.0003895   0.0001996   0.0007100   0.0001979   0.0004199
    3   0.0006325  -0.0001556   0.0009589  -0.0006092  -0.0005186  -0.0001922
           19          20          21          22          23          24
    1   0.0008462   0.0000099  -0.0000735  -0.0002570   0.0001696   0.0001662
    2   0.0004154  -0.0002030   0.0005351  -0.0000674  -0.0002545   0.0005014
    3  -0.0001709   0.0000713   0.0000103   0.0002354  -0.0004936   0.0002353
           25          26          27          28          29          30
    1   0.0006990  -0.0000957   0.0002482  -0.0000096  -0.0001060  -0.0004841
    2  -0.0001301  -0.0002209  -0.0003542   0.0001122   0.0000707  -0.0002697
    3  -0.0006651   0.0001707   0.0000571  -0.0001349  -0.0001308   0.0001946
           31          32
    1   0.0010814  -0.0018183
    2   0.0005924   0.0006518
    3  -0.0000957   0.0011334
 Max gradient component =       7.936E-03
 RMS gradient           =       1.834E-03
 Gradient time:  CPU 17.77 s  wall 0.75 s
 Geometry Optimization Parameters
   NAtoms,    NIC,     NZ,  NCons,   NDum,   NFix, NCnnct, MaxDiis
       32     251       0       2       0       0       0       0

 Cartesian Hessian Update
 Hessian Updated using BFGS Update


** CONSTRAINED OPTIMIZATION IN DELOCALIZED INTERNAL COORDINATES **
   Searching for a Minimum

   Optimization Cycle:   3

                       Coordinates (Angstroms)
     ATOM                X               Y               Z
      1  C        -0.2475446586   -1.0263557138    0.5578843883
      2  C        -0.8578058599    0.4298460296    0.7911262597
      3  C         1.1236820324   -1.0489995134   -0.1942748727
      4  C        -0.0861027271    1.5409058227   -0.0220897394
      5  O         2.1280634506   -1.5008976198    0.7111469793
      6  O         1.3339000530   -0.7722105717   -1.3982436901
      7  O         1.2755918863    1.5269355182    0.4050088114
      8  O        -0.5345758686    2.3110065834   -0.8998023390
      9  C         2.0538744096    2.5199867973   -0.3623944608
     10  C         3.4480245171   -1.4381153434    0.0504388578
     11  C        -1.4130982638   -1.7909208804   -0.2006881795
     12  C        -1.6397214716   -1.0831556730   -1.5564394519
     13  C        -2.2082749200    0.1085457836   -1.3100207040
     14  C        -2.3486463240    0.2507818645    0.2237083204
     15  C        -2.6419380439   -1.2421861390    0.6055119186
     16  C        -0.8431428749    0.8272903260    2.3028556870
     17  H         2.0302121191    2.3016309217   -1.4504087870
     18  H         3.7032158468   -0.3995529021   -0.2458673852
     19  H        -2.4319044239    0.9094931138   -2.0235098050
     20  H         3.0931252322    2.4459577953    0.0078637266
     21  H         1.6756430560    3.5510089944   -0.2019447420
     22  H         4.1802595453   -1.8017093551    0.7948166681
     23  H         3.4874956924   -2.0799620675   -0.8543868988
     24  H        -3.0496225770    1.0216661476    0.5857163673
     25  H        -1.2668368298   -2.8838185298   -0.2400965952
     26  H        -1.4200230444    0.1040528644    2.8990644500
     27  H         0.1929249931    0.8450964044    2.6756791302
     28  H        -1.2850577185    1.8264864965    2.4403871429
     29  H        -3.6052396956   -1.5950564800    0.2022712811
     30  H        -2.5919437188   -1.4504797747    1.6868723484
     31  H        -1.2906414241   -1.4771633777   -2.5176298751
     32  H        -0.0993232124   -1.4989467077    1.5463441514
   Point Group: c1    Number of degrees of freedom:    90


   Energy is   -758.007503680

              Constraints and their Current Values
                                        Value     Constraint
   Dihedral:        1   2   4   8      119.800      119.800
   Dihedral:        2   1   3   6      -69.700      -69.700
 Hessian Updated using BFGS Update

   Using Lagrange Multiplier Algorithm


 81 Hessian modes will be used to form the next step
  Hessian Eigenvalues:
    -0.977441    0.034311    0.045000    0.045002    0.045050    0.045100
     0.045122    0.045209    0.045668    0.050959    0.055495    0.059377
     0.066519    0.071587    0.072051    0.075577    0.076708    0.077545
     0.081023    0.082172    0.083292    0.083841    0.084284    0.085192
     0.092251    0.094814    0.100809    0.114820    0.115200    0.115770
     0.118256    0.118446    0.119755    0.135480    0.140568    0.156795
     0.157105    0.159049    0.159824    0.160726    0.162194    0.175867
     0.216833    0.228617    0.244569    0.245807    0.249824    0.249999
     0.250433    0.254347    0.259506    0.271809    0.285096    0.295595
     0.301227    0.306893    0.317328    0.340853    0.341240    0.342176
     0.342898    0.343569    0.343754    0.343859    0.343998    0.344286
     0.345849    0.346826    0.347386    0.347732    0.353148    0.356109
     0.363295    0.388095    0.401573    0.471332    0.507753    0.542207
     0.992602    1.022452    1.077338

 Minimum Search - Taking P-RFO Step
 Searching for Lamda that Maximizes Along the Constraint modes Only
 Value Taken    Lamda =   0.00000104
 Searching for Lamda that Minimizes Along All other modes
 Value Taken    Lamda =  -0.00121791
 Step Taken.  Stepsize is  0.161200

                             Maximum     Tolerance    Cnvgd?
         Gradient            0.004472       0.000300      NO
         Displacement        0.079562       0.001200      NO
         Energy change     -0.002623       0.000001      NO


 New Cartesian Coordinates Obtained by Inverse Iteration

 Displacement from previous Coordinates is:  0.540627
 Adding empirical dispersion correction 
 ----------------------------------------------------------------
 Doing -D3(op) with
 s6 =   1.00000
 s8 =   0.78311
 a1 =   0.30000
 a2 =   4.25000
 n  =  10.00000
 -D3 energy without 3body term =     -0.0404605995 hartrees
 ----------------------------------------------------------------
             Standard Nuclear Orientation (Angstroms)
    I     Atom           X                Y                Z
 ----------------------------------------------------------------
    1      C      -0.2516938916    -1.0229402794     0.5749696483
    2      C      -0.8769575876     0.4335625643     0.7986044776
    3      C       1.1070962809    -1.0226896496    -0.2029035913
    4      C      -0.0826861712     1.5356654194    -0.0072480684
    5      O       2.1498712296    -1.4323000980     0.6975422526
    6      O       1.2947206506    -0.7535474185    -1.4112924078
    7      O       1.2778107231     1.5248293750     0.4608858227
    8      O      -0.5011914211     2.3036599653    -0.8995430463
    9      C       2.0939469722     2.4793764572    -0.3275251052
   10      C       3.4586316202    -1.3996149066    -0.0013744273
   11      C      -1.4155486825    -1.7939553484    -0.1850177459
   12      C      -1.6322897902    -1.0966673879    -1.5490280075
   13      C      -2.2045504849     0.0953277643    -1.3166633721
   14      C      -2.3587616518     0.2487397966     0.2160613031
   15      C      -2.6536350482    -1.2424866689     0.6052893897
   16      C      -0.8765105942     0.8365349606     2.3104121777
   17      H       2.1000086428     2.2101056234    -1.4035966562
   18      H       3.7040685337    -0.3767029604    -0.3526725102
   19      H      -2.4364139907     0.8869294499    -2.0377664426
   20      H       3.1213359819     2.4131802751     0.0765069943
   21      H       1.7217224425     3.5189285016    -0.2236873343
   22      H       4.2130735117    -1.7277330360     0.7376604534
   23      H       3.4729731367    -2.0832408566    -0.8747736326
   24      H      -3.0690501704     1.0166224119     0.5653910618
   25      H      -1.2710856553    -2.8871964319    -0.2157661545
   26      H      -1.4584458260     0.1146664427     2.9026188870
   27      H       0.1558497707     0.8596920661     2.6923487644
   28      H      -1.3212174456     1.8355456801     2.4401329099
   29      H      -3.6120456166    -1.6013983664     0.1958588505
   30      H      -2.6099729619    -1.4411116071     1.6885468975
   31      H      -1.2880427513    -1.5060598425    -2.5054757391
   32      H      -0.0864405784    -1.4945610809     1.5604033137
 ----------------------------------------------------------------
 Molecular Point Group                 C1    NOp =  1
 Largest Abelian Subgroup              C1    NOp =  1
 Nuclear Repulsion Energy =  1215.6027377109 hartrees
 There are       60 alpha and       60 beta electrons
 Applying Cartesian multipole field
    Component          Value
    ---------          -----
     (2,0,0)        1.00000E-11
     (0,2,0)        2.00000E-11
     (0,0,2)       -3.00000E-11
 Nucleus-field energy     =     0.0000000184 hartrees
 Requested basis set is STO-3G
 There are 48 shells and 96 basis functions
 A cutoff of  1.0D-12 yielded   1049 shell pairs
 There are      4577 function pairs
 Smallest overlap matrix eigenvalue = 1.89E-01
 Guess MOs from SCF MO coefficient file
 Reading MOs from coefficient file
 Reading MOs from coefficient file
 A restricted hybrid HF-DFT SCF calculation will be
 performed using Pulay DIIS extrapolation
 Exchange:     0.2000 Hartree-Fock + 0.0800 Slater + 0.7200 B88
 Correlation:  0.1900 VWN1RPA + 0.8100 LYP
 Using SG-1 standard quadrature grid
 Dispersion:   Grimme D3
 SCF converges when DIIS error is below 1.0E-08
 Geometry optimization detected.  Setting ReadMinima to 0
 Setting SaveMinima to 0
 -------------------------------------------------------
 OpenMP Integral computing Module                
 Release: version 1.0, May 2013, Q-Chem Inc. Pittsburgh 
 -------------------------------------------------------
 -------------------------------------------------------
 OpenMP BLAS3 based DFT computing Module                
 Release: version 1.0, May 2013, Q-Chem Inc. Pittsburgh 
 -------------------------------------------------------
 ---------------------------------------
  Cycle       Energy         DIIS Error
 ---------------------------------------
    1    -757.9910493699      2.20E-03
    2    -758.0078782789      4.74E-04
    3    -758.0065973564      1.11E-03
    4    -758.0081924089      6.30E-05
    5    -758.0081973195      2.72E-05
    6    -758.0081982022      1.25E-05
    7    -758.0081983903      5.29E-06
    8    -758.0081984273      1.57E-06
    9    -758.0081984306      4.06E-07
   10    -758.0081984308      2.51E-07
   11    -758.0081984309      3.83E-08
   12    -758.0081984309      1.65E-08
   13    -758.0081984310      1.07E-09 Convergence criterion met
 ---------------------------------------
 SCF time:  CPU 58.03 s  wall 2.44 s
 SCF   energy in the final basis set = -758.0081984310
 Total energy in the final basis set = -758.0081984310
 
 --------------------------------------------------------------
 
                    Orbital Energies (a.u.)
 --------------------------------------------------------------
 
 Alpha MOs
 -- Occupied --
-18.930 -18.927 -18.874 -18.863 -10.092 -10.091 -10.062 -10.060
-10.039 -10.028 -10.025 -10.022 -10.013 -10.013  -9.981  -9.980
 -1.008  -0.999  -0.933  -0.927  -0.832  -0.736  -0.696  -0.668
 -0.657  -0.651  -0.629  -0.561  -0.531  -0.500  -0.486  -0.467
 -0.458  -0.440  -0.417  -0.415  -0.402  -0.394  -0.388  -0.377
 -0.370  -0.363  -0.350  -0.342  -0.333  -0.324  -0.315  -0.308
 -0.298  -0.286  -0.283  -0.270  -0.261  -0.248  -0.247  -0.181
 -0.173  -0.169  -0.148  -0.142
 -- Virtual --
  0.097   0.112   0.126   0.242   0.263   0.296   0.310   0.326
  0.340   0.345   0.364   0.375   0.390   0.401   0.404   0.408
  0.420   0.426   0.429   0.432   0.436   0.438   0.439   0.446
  0.454   0.467   0.477   0.481   0.504   0.512   0.521   0.532
  0.585   0.647   0.658   0.764
 --------------------------------------------------------------
 
          Ground-State Mulliken Net Atomic Charges

     Atom                 Charge (a.u.)
  ----------------------------------------
      1 C                    -0.072302
      2 C                     0.014894
      3 C                     0.207998
      4 C                     0.209343
      5 O                    -0.168379
      6 O                    -0.221205
      7 O                    -0.173570
      8 O                    -0.209247
      9 C                    -0.129460
     10 C                    -0.128648
     11 C                    -0.056683
     12 C                    -0.087790
     13 C                    -0.085998
     14 C                    -0.056841
     15 C                    -0.127260
     16 C                    -0.220467
     17 H                     0.092931
     18 H                     0.086384
     19 H                     0.084558
     20 H                     0.087604
     21 H                     0.088547
     22 H                     0.088380
     23 H                     0.087570
     24 H                     0.073992
     25 H                     0.073471
     26 H                     0.075148
     27 H                     0.084935
     28 H                     0.076615
     29 H                     0.075953
     30 H                     0.066805
     31 H                     0.080270
     32 H                     0.082452
  ----------------------------------------
  Sum of atomic charges =    -0.000000

 -----------------------------------------------------------------
                    Cartesian Multipole Moments
 -----------------------------------------------------------------
    Charge (ESU x 10^10)
                -0.0000
    Dipole Moment (Debye)
         X       0.9016      Y      -0.3283      Z       1.3881
       Tot       1.6874
    Quadrupole Moments (Debye-Ang)
        XX     -80.0646     XY       2.2006     YY     -84.9460
        XZ      -2.4699     YZ       1.5210     ZZ     -89.2706
    Octopole Moments (Debye-Ang^2)
       XXX      50.4848    XXY       3.2017    XYY      17.8044
       YYY       5.0554    XXZ      -2.1616    XYZ      -1.5057
       YYZ      -0.9671    XZZ       1.4447    YZZ       0.7546
       ZZZ      -6.6828
    Hexadecapole Moments (Debye-Ang^3)
      XXXX   -1802.3560   XXXY     -72.3304   XXYY    -476.7476
      XYYY     -28.2560   YYYY   -1111.4286   XXXZ      12.6942
      XXYZ     -11.1488   XYYZ      -7.7002   YYYZ       1.7947
      XXZZ    -433.0536   XYZZ     -14.9097   YYZZ    -300.5880
      XZZZ      19.0046   YZZZ     -22.9638   ZZZZ    -647.1718
 -----------------------------------------------------------------
 Calculating analytic gradient of the SCF energy
 Gradient of SCF Energy
            1           2           3           4           5           6
    1  -0.0000828   0.0010072  -0.0016854  -0.0010970  -0.0000633   0.0005724
    2   0.0002725  -0.0010000   0.0006893  -0.0004393  -0.0011205   0.0002603
    3  -0.0016808   0.0005022   0.0014964   0.0008567   0.0017222  -0.0022607
            7           8           9          10          11          12
    1   0.0004176  -0.0004812   0.0010003   0.0019368   0.0002409  -0.0017466
    2  -0.0011626   0.0008649   0.0012220   0.0000302  -0.0008889   0.0003520
    3   0.0011870  -0.0020405  -0.0008041  -0.0005380   0.0000143   0.0002960
           13          14          15          16          17          18
    1  -0.0003268  -0.0008193   0.0000596   0.0000656   0.0000176   0.0000324
    2  -0.0006709   0.0001356  -0.0001957   0.0005246   0.0001271  -0.0000340
    3  -0.0003020   0.0007616   0.0008246   0.0003239  -0.0000004  -0.0000332
           19          20          21          22          23          24
    1   0.0004273   0.0004466   0.0001454   0.0005593   0.0000465  -0.0001485
    2   0.0003168   0.0001646   0.0000448  -0.0000525   0.0000133  -0.0000643
    3  -0.0000068  -0.0002149   0.0002085  -0.0000748   0.0000197   0.0001589
           25          26          27          28          29          30
    1   0.0003917  -0.0001103   0.0001101   0.0001487  -0.0001099  -0.0000958
    2   0.0000011   0.0000035  -0.0000445   0.0001251  -0.0000091  -0.0000642
    3  -0.0005627  -0.0001486   0.0000669  -0.0000600  -0.0002541   0.0000549
           31          32
    1   0.0006878  -0.0015471
    2   0.0002323   0.0003666
    3  -0.0000989   0.0005867
 Max gradient component =       2.261E-03
 RMS gradient           =       7.222E-04
 Gradient time:  CPU 16.82 s  wall 0.70 s
 Geometry Optimization Parameters
   NAtoms,    NIC,     NZ,  NCons,   NDum,   NFix, NCnnct, MaxDiis
       32     251       0       2       0       0       0       0

 Cartesian Hessian Update
 Hessian Updated using BFGS Update


** CONSTRAINED OPTIMIZATION IN DELOCALIZED INTERNAL COORDINATES **
   Searching for a Minimum

   Optimization Cycle:   4

                       Coordinates (Angstroms)
     ATOM                X               Y               Z
      1  C        -0.2516938916   -1.0229402794    0.5749696483
      2  C        -0.8769575876    0.4335625643    0.7986044776
      3  C         1.1070962809   -1.0226896496   -0.2029035913
      4  C        -0.0826861712    1.5356654194   -0.0072480684
      5  O         2.1498712296   -1.4323000980    0.6975422526
      6  O         1.2947206506   -0.7535474185   -1.4112924078
      7  O         1.2778107231    1.5248293750    0.4608858227
      8  O        -0.5011914211    2.3036599653   -0.8995430463
      9  C         2.0939469722    2.4793764572   -0.3275251052
     10  C         3.4586316202   -1.3996149066   -0.0013744273
     11  C        -1.4155486825   -1.7939553484   -0.1850177459
     12  C        -1.6322897902   -1.0966673879   -1.5490280075
     13  C        -2.2045504849    0.0953277643   -1.3166633721
     14  C        -2.3587616518    0.2487397966    0.2160613031
     15  C        -2.6536350482   -1.2424866689    0.6052893897
     16  C        -0.8765105942    0.8365349606    2.3104121777
     17  H         2.1000086428    2.2101056234   -1.4035966562
     18  H         3.7040685337   -0.3767029604   -0.3526725102
     19  H        -2.4364139907    0.8869294499   -2.0377664426
     20  H         3.1213359819    2.4131802751    0.0765069943
     21  H         1.7217224425    3.5189285016   -0.2236873343
     22  H         4.2130735117   -1.7277330360    0.7376604534
     23  H         3.4729731367   -2.0832408566   -0.8747736326
     24  H        -3.0690501704    1.0166224119    0.5653910618
     25  H        -1.2710856553   -2.8871964319   -0.2157661545
     26  H        -1.4584458260    0.1146664427    2.9026188870
     27  H         0.1558497707    0.8596920661    2.6923487644
     28  H        -1.3212174456    1.8355456801    2.4401329099
     29  H        -3.6120456166   -1.6013983664    0.1958588505
     30  H        -2.6099729619   -1.4411116071    1.6885468975
     31  H        -1.2880427513   -1.5060598425   -2.5054757391
     32  H        -0.0864405784   -1.4945610809    1.5604033137
   Point Group: c1    Number of degrees of freedom:    90


   Energy is   -758.008198431

              Constraints and their Current Values
                                        Value     Constraint
   Dihedral:        1   2   4   8      119.800      119.800
   Dihedral:        2   1   3   6      -69.700      -69.700
 Hessian Updated using BFGS Update

   Using Lagrange Multiplier Algorithm


 84 Hessian modes will be used to form the next step
  Hessian Eigenvalues:
    -0.977012    0.022774    0.045000    0.045001    0.045050    0.045091
     0.045101    0.045149    0.045347    0.045948    0.050611    0.055495
     0.059446    0.066562    0.071640    0.072432    0.075852    0.076762
     0.077602    0.080940    0.082174    0.083292    0.083872    0.084299
     0.085236    0.092251    0.094774    0.100814    0.114820    0.115273
     0.116000    0.118254    0.118449    0.119690    0.135472    0.140566
     0.157062    0.157900    0.159143    0.159877    0.160339    0.161459
     0.162273    0.175869    0.216823    0.228275    0.244502    0.248675
     0.249863    0.249999    0.250074    0.251178    0.254355    0.259429
     0.271811    0.285135    0.295853    0.301210    0.307576    0.318823
     0.340820    0.341214    0.342157    0.342890    0.343589    0.343780
     0.343899    0.344001    0.344285    0.346157    0.347003    0.347390
     0.347848    0.353359    0.356223    0.363750    0.400393    0.430431
     0.507459    0.535862    0.559935    0.992575    1.022687    1.063538

 Minimum Search - Taking P-RFO Step
 Searching for Lamda that Maximizes Along the Constraint modes Only
 Value Taken    Lamda =   0.00000021
 Searching for Lamda that Minimizes Along All other modes
 Value Taken    Lamda =  -0.00027474
 Step Taken.  Stepsize is  0.091120

                             Maximum     Tolerance    Cnvgd?
         Gradient            0.003341       0.000300      NO
         Displacement        0.037943       0.001200      NO
         Energy change     -0.000695       0.000001      NO


 New Cartesian Coordinates Obtained by Inverse Iteration

 Displacement from previous Coordinates is:  0.297577
 Adding empirical dispersion correction 
 ----------------------------------------------------------------
 Doing -D3(op) with
 s6 =   1.00000
 s8 =   0.78311
 a1 =   0.30000
 a2 =   4.25000
 n  =  10.00000
 -D3 energy without 3body term =     -0.0406449451 hartrees
 ----------------------------------------------------------------
             Standard Nuclear Orientation (Angstroms)
    I     Atom           X                Y                Z
 ----------------------------------------------------------------
    1      C      -0.2500570307    -1.0196692221     0.5855583998
    2      C      -0.8821078449     0.4364017090     0.8047596223
    3      C       1.1003644439    -1.0109644505    -0.2047832264
    4      C      -0.0796066279     1.5351624073     0.0055679334
    5      O       2.1555216700    -1.3996933432     0.6904148307
    6      O       1.2740219590    -0.7466169234    -1.4150761710
    7      O       1.2759304858     1.5226760061     0.4905124522
    8      O      -0.4861416878     2.3018787393    -0.8916498423
    9      C       2.1053669499     2.4503711912    -0.3126250732
   10      C       3.4504975345    -1.3747338206    -0.0301300111
   11      C      -1.4118328202    -1.7931403551    -0.1751371560
   12      C      -1.6177085178    -1.1032052173    -1.5448075275
   13      C      -2.1907730243     0.0907014911    -1.3222164146
   14      C      -2.3562572611     0.2508678111     0.2088919689
   15      C      -2.6549140762    -1.2378055709     0.6026533391
   16      C      -0.8916400375     0.8375966224     2.3169978263
   17      H       2.1254187122     2.1483491447    -1.3799372602
   18      H       3.6872785871    -0.3576111112    -0.4037556706
   19      H      -2.4246024079     0.8760499462    -2.0493031946
   20      H       3.1254530745     2.3901800852     0.1096008847
   21      H       1.7362213636     3.4940361252    -0.2452195917
   22      H       4.2154043040    -1.6870785220     0.7044055723
   23      H       3.4533258555    -2.0747471427    -0.8907141104
   24      H      -3.0701750509     1.0192336583     0.5494632504
   25      H      -1.2705512306    -2.8869723867    -0.1984616152
   26      H      -1.4751173386     0.1143806391     2.9060907447
   27      H       0.1383998475     0.8629896201     2.7045000846
   28      H      -1.3394144762     1.8353687528     2.4456868697
   29      H      -3.6104455960    -1.5990587393     0.1892210605
   30      H      -2.6178776502    -1.4301057874     1.6872362332
   31      H      -1.2761643084    -1.5226250950    -2.4976251925
   32      H      -0.0732486231    -1.4910554473     1.5687799476
 ----------------------------------------------------------------
 Molecular Point Group                 C1    NOp =  1
 Largest Abelian Subgroup              C1    NOp =  1
 Nuclear Repulsion Energy =  1217.4974530749 hartrees
 There are       60 alpha and       60 beta electrons
 Applying Cartesian multipole field
    Component          Value
    ---------          -----
     (2,0,0)        1.00000E-11
     (0,2,0)        2.00000E-11
     (0,0,2)       -3.00000E-11
 Nucleus-field energy     =     0.0000000181 hartrees
 Requested basis set is STO-3G
 There are 48 shells and 96 basis functions
 A cutoff of  1.0D-12 yielded   1050 shell pairs
 There are      4578 function pairs
 Smallest overlap matrix eigenvalue = 1.89E-01
 Guess MOs from SCF MO coefficient file
 Reading MOs from coefficient file
 Reading MOs from coefficient file
 A restricted hybrid HF-DFT SCF calculation will be
 performed using Pulay DIIS extrapolation
 Exchange:     0.2000 Hartree-Fock + 0.0800 Slater + 0.7200 B88
 Correlation:  0.1900 VWN1RPA + 0.8100 LYP
 Using SG-1 standard quadrature grid
 Dispersion:   Grimme D3
 SCF converges when DIIS error is below 1.0E-08
 Geometry optimization detected.  Setting ReadMinima to 0
 Setting SaveMinima to 0
 -------------------------------------------------------
 OpenMP Integral computing Module                
 Release: version 1.0, May 2013, Q-Chem Inc. Pittsburgh 
 -------------------------------------------------------
 -------------------------------------------------------
 OpenMP BLAS3 based DFT computing Module                
 Release: version 1.0, May 2013, Q-Chem Inc. Pittsburgh 
 -------------------------------------------------------
 ---------------------------------------
  Cycle       Energy         DIIS Error
 ---------------------------------------
    1    -758.0097315282      1.05E-03
    2    -758.0083560158      6.91E-05
    3    -758.0083536375      1.04E-04
    4    -758.0083670067      3.18E-05
    5    -758.0083681164      1.23E-05
    6    -758.0083683058      4.00E-06
    7    -758.0083683261      1.19E-06
    8    -758.0083683278      4.77E-07
    9    -758.0083683282      1.24E-07
   10    -758.0083683282      6.21E-08
   11    -758.0083683282      9.60E-09 Convergence criterion met
 ---------------------------------------
 SCF time:  CPU 50.21 s  wall 2.12 s
 SCF   energy in the final basis set = -758.0083683282
 Total energy in the final basis set = -758.0083683282
 
 --------------------------------------------------------------
 
                    Orbital Energies (a.u.)
 --------------------------------------------------------------
 
 Alpha MOs
 -- Occupied --
-18.929 -18.927 -18.875 -18.863 -10.093 -10.091 -10.062 -10.060
-10.039 -10.027 -10.025 -10.022 -10.013 -10.013  -9.980  -9.980
 -1.009  -1.000  -0.933  -0.928  -0.832  -0.736  -0.696  -0.668
 -0.657  -0.651  -0.629  -0.561  -0.531  -0.500  -0.486  -0.467
 -0.458  -0.440  -0.417  -0.415  -0.402  -0.394  -0.388  -0.377
 -0.370  -0.363  -0.350  -0.342  -0.333  -0.324  -0.314  -0.307
 -0.298  -0.286  -0.283  -0.270  -0.261  -0.249  -0.247  -0.181
 -0.173  -0.170  -0.149  -0.143
 -- Virtual --
  0.098   0.112   0.126   0.244   0.264   0.296   0.311   0.326
  0.340   0.345   0.364   0.375   0.390   0.401   0.404   0.409
  0.419   0.427   0.430   0.432   0.436   0.438   0.439   0.446
  0.455   0.468   0.477   0.481   0.504   0.513   0.521   0.533
  0.585   0.649   0.659   0.764
 --------------------------------------------------------------
 
          Ground-State Mulliken Net Atomic Charges

     Atom                 Charge (a.u.)
  ----------------------------------------
      1 C                    -0.072371
      2 C                     0.014829
      3 C                     0.208466
      4 C                     0.209799
      5 O                    -0.168289
      6 O                    -0.221528
      7 O                    -0.173743
      8 O                    -0.208907
      9 C                    -0.129650
     10 C                    -0.128556
     11 C                    -0.056806
     12 C                    -0.087422
     13 C                    -0.086142
     14 C                    -0.056960
     15 C                    -0.127262
     16 C                    -0.220504
     17 H                     0.092559
     18 H                     0.086247
     19 H                     0.084340
     20 H                     0.087558
     21 H                     0.088819
     22 H                     0.088304
     23 H                     0.087390
     24 H                     0.074000
     25 H                     0.073252
     26 H                     0.075137
     27 H                     0.085149
     28 H                     0.076595
     29 H                     0.075913
     30 H                     0.066762
     31 H                     0.080397
     32 H                     0.082624
  ----------------------------------------
  Sum of atomic charges =     0.000000

 -----------------------------------------------------------------
                    Cartesian Multipole Moments
 -----------------------------------------------------------------
    Charge (ESU x 10^10)
                -0.0000
    Dipole Moment (Debye)
         X       0.8893      Y      -0.3623      Z       1.3630
       Tot       1.6673
    Quadrupole Moments (Debye-Ang)
        XX     -80.0719     XY       2.1350     YY     -85.0219
        XZ      -2.5374     YZ       1.5239     ZZ     -89.2985
    Octopole Moments (Debye-Ang^2)
       XXX      49.8323    XXY       3.2308    XYY      17.3886
       YYY       4.0401    XXZ      -2.7162    XYZ      -1.3738
       YYZ      -1.1277    XZZ       1.3359    YZZ       0.4572
       ZZZ      -7.1039
    Hexadecapole Moments (Debye-Ang^3)
      XXXX   -1799.4277   XXXY     -73.8072   XXYY    -474.6832
      XYYY     -31.7288   YYYY   -1098.9807   XXXZ      14.8445
      XXYZ     -11.7260   XYYZ      -6.5428   YYYZ      -1.8272
      XXZZ    -432.4111   XYZZ     -15.9662   YYZZ    -298.6809
      XZZZ      21.7348   YZZZ     -26.2254   ZZZZ    -649.0761
 -----------------------------------------------------------------
 Calculating analytic gradient of the SCF energy
 Gradient of SCF Energy
            1           2           3           4           5           6
    1   0.0010449   0.0000501  -0.0015208  -0.0017939   0.0009541   0.0001258
    2  -0.0003849  -0.0001500   0.0006822   0.0001311  -0.0007079   0.0000203
    3  -0.0003316  -0.0001397  -0.0013408  -0.0010133   0.0024956  -0.0004152
            7           8           9          10          11          12
    1   0.0014443   0.0000839   0.0002316   0.0006445   0.0000076  -0.0007975
    2  -0.0005647   0.0000270   0.0006455   0.0000573  -0.0000729  -0.0000256
    3   0.0018704  -0.0006168  -0.0008491  -0.0008427  -0.0000720   0.0000561
           13          14          15          16          17          18
    1  -0.0002565  -0.0000889   0.0000210   0.0004391  -0.0000903  -0.0000233
    2  -0.0000513   0.0001127  -0.0002357   0.0003147   0.0000213   0.0001032
    3  -0.0003645   0.0005998   0.0004060   0.0002504  -0.0000024  -0.0000331
           19          20          21          22          23          24
    1   0.0002184   0.0000397   0.0000513  -0.0000801  -0.0000685  -0.0002067
    2   0.0001669  -0.0001857   0.0000453  -0.0000194  -0.0000897  -0.0002337
    3   0.0000382   0.0000324   0.0002208   0.0000887  -0.0000243   0.0002112
           25          26          27          28          29          30
    1   0.0001729  -0.0001356  -0.0000077   0.0001359   0.0000167   0.0000225
    2  -0.0000134   0.0000769  -0.0000433   0.0000764   0.0000229   0.0000297
[...]

 Mode:                76                     77                     78
 Frequency:      3047.83                3051.13                3054.84
 Force Cnst:      5.6359                 5.6445                 5.8325
 Red. Mass:       1.0298                 1.0291                 1.0608
 IR Active:          YES                    YES                    YES
 IR Intens:       33.093                 37.427                 36.334
 Raman Active:       YES                    YES                    YES
               X      Y      Z        X      Y      Z        X      Y      Z
 C         -0.000  0.001 -0.001   -0.000 -0.000 -0.000    0.001 -0.002  0.005
 C          0.000 -0.000 -0.000    0.000 -0.000  0.000   -0.000  0.000 -0.000
 C          0.002 -0.001  0.002   -0.000 -0.000 -0.000    0.000 -0.000  0.000
 C         -0.000 -0.000 -0.000   -0.003  0.000 -0.001   -0.000 -0.000 -0.000
 O         -0.003  0.001  0.000    0.000 -0.000 -0.000    0.000 -0.000  0.000
 O          0.000  0.000 -0.001   -0.000  0.000  0.000    0.000  0.000 -0.000
 O          0.000  0.000 -0.000    0.002  0.001 -0.001    0.000  0.000  0.000
 O          0.000 -0.000  0.000    0.000 -0.001  0.001    0.000  0.000 -0.000
 C          0.001  0.002 -0.002    0.018  0.027 -0.030   -0.000 -0.000  0.001
 C         -0.034  0.001  0.028    0.002 -0.000 -0.002   -0.001  0.000  0.001
 C          0.000 -0.000  0.000   -0.000  0.000 -0.000    0.000 -0.007  0.001
 C          0.000 -0.000  0.000   -0.000  0.000  0.000   -0.000 -0.000 -0.000
 C         -0.000  0.000 -0.000   -0.000 -0.000 -0.000   -0.000 -0.000 -0.000
 C          0.000  0.000  0.000   -0.000  0.000 -0.000   -0.004  0.004  0.002
 C         -0.001 -0.000  0.001    0.001  0.000 -0.001    0.035  0.022 -0.053
 C          0.000  0.000 -0.000    0.000  0.000  0.000   -0.002 -0.011 -0.002
 H         -0.002  0.013  0.043   -0.022  0.183  0.622    0.000 -0.003 -0.012
 H          0.196  0.558 -0.238   -0.014 -0.038  0.016    0.004  0.012 -0.005
 H          0.000 -0.000  0.000    0.000 -0.000  0.000    0.002 -0.000  0.001
 H         -0.031  0.003 -0.015   -0.416  0.035 -0.199    0.007 -0.001  0.003
 H          0.015 -0.039 -0.004    0.217 -0.555 -0.054   -0.004  0.009  0.001
 H          0.252 -0.125  0.335   -0.018  0.009 -0.024    0.005 -0.003  0.007
 H         -0.016 -0.443 -0.445    0.001  0.032  0.032   -0.000 -0.010 -0.010
 H         -0.000 -0.000 -0.000    0.000 -0.000 -0.000    0.049 -0.053 -0.020
 H         -0.000  0.001 -0.000    0.000 -0.000  0.000   -0.007  0.092 -0.008
 H         -0.002 -0.003  0.002   -0.001 -0.002  0.001    0.005  0.004 -0.006
 H          0.002  0.000  0.001   -0.004 -0.000 -0.001    0.065 -0.001  0.027
 H         -0.001  0.002  0.000   -0.001  0.002  0.000   -0.054  0.117  0.007
 H          0.009  0.004  0.004   -0.010 -0.004 -0.004   -0.440 -0.172 -0.196
 H         -0.001  0.002 -0.016    0.001 -0.001  0.015    0.038 -0.077  0.828
 H          0.000  0.000 -0.000    0.000 -0.000 -0.000    0.001  0.001  0.000
 H          0.003 -0.006  0.015    0.000 -0.000  0.001   -0.007  0.023 -0.061
 TransDip  -0.176  0.043  0.033    0.149  0.111 -0.061    0.105  0.031 -0.159

 Mode:                79                     80                     81
 Frequency:      3087.81                3101.30                3104.66
 Force Cnst:      6.1004                 6.2217                 6.1881
 Red. Mass:       1.0859                 1.0979                 1.0896
 IR Active:          YES                    YES                    YES
 IR Intens:        5.516                  1.506                 56.239
 Raman Active:       YES                    YES                    YES
               X      Y      Z        X      Y      Z        X      Y      Z
 C         -0.009  0.028 -0.074    0.000 -0.000  0.001    0.003 -0.009  0.023
 C          0.000  0.000 -0.000    0.000 -0.001  0.000    0.000  0.000  0.000
 C         -0.002  0.001 -0.002   -0.000  0.000  0.000    0.001 -0.000  0.000
 C         -0.000 -0.001  0.000    0.000  0.000 -0.000    0.000  0.000 -0.000
 O          0.000 -0.000  0.000    0.000 -0.000 -0.000   -0.000  0.000 -0.000
 O         -0.000 -0.000  0.001    0.000  0.000 -0.000   -0.000  0.000 -0.000
 O          0.000  0.000 -0.000    0.000  0.000 -0.000   -0.000 -0.000 -0.000
 O         -0.000  0.000 -0.000   -0.000  0.000  0.000   -0.000  0.000 -0.000
 C         -0.000  0.000  0.000   -0.000  0.000  0.000   -0.000  0.000 -0.000
 C          0.001 -0.000 -0.000   -0.000 -0.000 -0.000    0.000  0.001  0.000
 C          0.003 -0.022  0.001   -0.005  0.039 -0.003    0.009 -0.071  0.006
 C          0.000  0.000  0.001    0.001 -0.001 -0.001   -0.001  0.002  0.002
 C         -0.000 -0.000 -0.000    0.000 -0.000  0.000   -0.000  0.000 -0.000
 C         -0.002  0.002  0.001   -0.004  0.004  0.001    0.004 -0.005 -0.002
 C          0.005  0.002  0.003   -0.017 -0.006 -0.017   -0.012 -0.005  0.000
 C          0.007 -0.014  0.006    0.023 -0.067  0.031    0.011 -0.033  0.015
 H          0.000 -0.001 -0.003    0.000 -0.001 -0.003   -0.000  0.000  0.001
 H         -0.004 -0.009  0.004    0.001  0.003 -0.001   -0.002 -0.006  0.003
 H         -0.000 -0.000  0.000   -0.000  0.003 -0.002    0.000 -0.002  0.002
 H          0.001  0.000  0.000    0.000 -0.000  0.000    0.001 -0.000  0.000
 H         -0.000  0.000  0.000    0.001 -0.002 -0.000    0.001 -0.003 -0.000
 H         -0.004  0.002 -0.006    0.001 -0.000  0.001    0.001 -0.000  0.002
 H         -0.000  0.007  0.007    0.000  0.001  0.001   -0.000 -0.007 -0.007
 H          0.019 -0.023 -0.008    0.040 -0.048 -0.016   -0.056  0.064  0.023
 H         -0.034  0.257 -0.020    0.053 -0.453  0.034   -0.097  0.827 -0.059
 H          0.051  0.056 -0.046    0.288  0.312 -0.275    0.142  0.153 -0.136
 H         -0.082 -0.005 -0.030   -0.321 -0.029 -0.123   -0.162 -0.015 -0.063
 H         -0.051  0.113  0.009   -0.237  0.524  0.035   -0.116  0.257  0.017
 H         -0.062 -0.025 -0.024    0.208  0.083  0.084    0.134  0.051  0.053
 H          0.000  0.002 -0.013    0.001 -0.013  0.117   -0.001  0.003 -0.051
 H          0.003 -0.004 -0.006   -0.007  0.010  0.015    0.013 -0.019 -0.029
 H          0.114 -0.326  0.876   -0.001  0.008 -0.012   -0.039  0.101 -0.275
 TransDip   0.004 -0.017 -0.073   -0.027 -0.025  0.014    0.012 -0.231  0.066

 Mode:                82                     83                     84
 Frequency:      3109.65                3117.95                3118.77
 Force Cnst:      6.2910                 6.2561                 6.3383
 Red. Mass:       1.1042                 1.0922                 1.1060
 IR Active:          YES                    YES                    YES
 IR Intens:       35.868                 13.749                 21.897
 Raman Active:       YES                    YES                    YES
               X      Y      Z        X      Y      Z        X      Y      Z
 C         -0.001  0.003 -0.009   -0.001  0.001 -0.002   -0.000 -0.000 -0.000
 C         -0.000  0.001 -0.000   -0.001 -0.001 -0.000    0.000  0.000 -0.000
 C         -0.000  0.000 -0.000   -0.000  0.000 -0.000    0.000  0.000  0.000
 C         -0.000  0.000 -0.000    0.000 -0.000  0.000   -0.000 -0.000  0.000
 O         -0.000 -0.000  0.000    0.000 -0.000  0.000    0.000  0.000  0.000
 O         -0.000 -0.000  0.000    0.000  0.000 -0.000    0.000  0.000  0.000
 O          0.000 -0.000  0.000    0.000  0.000  0.000    0.000  0.000 -0.000
 O          0.000 -0.000  0.000   -0.000  0.000 -0.000   -0.000  0.000 -0.000
 C          0.000  0.000  0.000   -0.000  0.001  0.001    0.001 -0.001 -0.000
 C          0.000  0.000  0.000    0.001  0.004  0.001   -0.018 -0.088 -0.018
 C         -0.000 -0.003 -0.001   -0.001  0.008 -0.000   -0.000  0.000  0.000
 C         -0.000  0.001  0.000    0.000 -0.000  0.000   -0.000  0.000  0.000
 C          0.000  0.000 -0.000   -0.001  0.003 -0.001   -0.000  0.000 -0.000
 C          0.009 -0.011 -0.004    0.047 -0.055 -0.019    0.008 -0.010 -0.003
 C         -0.057 -0.018 -0.062    0.017  0.007  0.013   -0.001  0.000 -0.003
 C         -0.028  0.013 -0.009   -0.034 -0.019  0.005    0.017  0.005 -0.001
 H         -0.000 -0.000  0.000    0.000 -0.002 -0.008    0.000  0.001  0.003
 H         -0.001 -0.003  0.001   -0.009 -0.027  0.012    0.205  0.590 -0.271
 H          0.002 -0.005  0.005    0.007 -0.027  0.023    0.001 -0.004  0.004
 H         -0.002  0.000 -0.001    0.000  0.000  0.000   -0.005  0.001 -0.003
 H          0.001 -0.003 -0.000    0.004 -0.010 -0.001   -0.004  0.011  0.001
 H         -0.001  0.001 -0.002    0.000  0.001  0.000   -0.011 -0.014 -0.013
 H         -0.000 -0.000 -0.000   -0.001 -0.023 -0.025    0.018  0.467  0.496
 H         -0.105  0.123  0.044   -0.542  0.634  0.218   -0.096  0.112  0.038
 H         -0.005  0.038 -0.001    0.011 -0.089  0.006    0.000 -0.002  0.000
 H         -0.011 -0.002  0.005    0.165  0.194 -0.170   -0.066 -0.080  0.069
 H          0.278  0.014  0.112    0.264  0.008  0.111   -0.137 -0.004 -0.056
 H          0.069 -0.166 -0.010   -0.024  0.034  0.004   -0.005  0.019  0.001
 H          0.671  0.265  0.267   -0.201 -0.081 -0.080    0.009  0.003  0.004
 H          0.010 -0.051  0.482   -0.002  0.007 -0.083    0.001 -0.003  0.032
 H          0.001 -0.001 -0.001   -0.001  0.002  0.003    0.000 -0.000 -0.000
 H          0.015 -0.040  0.106    0.003 -0.009  0.025    0.000 -0.001  0.002
 TransDip  -0.123 -0.042 -0.141    0.069 -0.094 -0.022    0.015 -0.144 -0.038

 Mode:                85                     86                     87
 Frequency:      3119.01                3128.06                3153.86
 Force Cnst:      6.3064                 6.3837                 6.4814
 Red. Mass:       1.1003                 1.1073                 1.1059
 IR Active:          YES                    YES                    YES
 IR Intens:       21.624                 15.039                 16.609
 Raman Active:       YES                    YES                    YES
               X      Y      Z        X      Y      Z        X      Y      Z
 C          0.001 -0.001  0.001   -0.000  0.000 -0.000   -0.000  0.000 -0.000
 C         -0.001 -0.000  0.000    0.000 -0.000 -0.000    0.000 -0.000  0.000
 C         -0.000 -0.000 -0.000    0.000  0.000 -0.000    0.001  0.000 -0.001
 C         -0.000  0.000 -0.001    0.000  0.000  0.000    0.000  0.000 -0.000
 O         -0.000  0.000  0.000   -0.000 -0.000  0.000    0.000 -0.000  0.000
 O          0.000  0.000 -0.000   -0.000 -0.000  0.000   -0.000 -0.000  0.001
 O          0.000 -0.000  0.000   -0.000  0.000  0.000   -0.000  0.000  0.000
 O          0.000 -0.000  0.000    0.000  0.000  0.000   -0.000 -0.000  0.000
 C          0.000  0.000 -0.000    0.018 -0.069 -0.062   -0.003  0.001 -0.003
 C         -0.004 -0.022 -0.005    0.000  0.001  0.001   -0.036  0.024 -0.084
 C          0.001 -0.003  0.000   -0.000  0.000 -0.000   -0.000  0.000  0.000
 C          0.000 -0.000 -0.000   -0.000  0.000  0.000   -0.000  0.000  0.000
 C          0.000 -0.001  0.001   -0.000  0.000  0.000   -0.000 -0.000 -0.000
 C         -0.023  0.027  0.010    0.001 -0.001 -0.000    0.000 -0.000 -0.000
 C          0.005  0.000  0.014    0.000  0.000 -0.000    0.000  0.000 -0.000
 C         -0.075 -0.025  0.006   -0.001 -0.001  0.000   -0.000  0.000 -0.000
 H         -0.000  0.001  0.003   -0.014  0.186  0.671   -0.001  0.005  0.016
 H          0.051  0.148 -0.068   -0.002 -0.005  0.002   -0.097 -0.260  0.096
 H         -0.003  0.012 -0.010    0.000 -0.000  0.000    0.000 -0.000  0.000
 H         -0.003  0.000 -0.001    0.066 -0.018  0.018    0.037 -0.003  0.018
 H          0.001 -0.002 -0.000   -0.264  0.654  0.049    0.004 -0.012 -0.002
 H         -0.003 -0.004 -0.003   -0.003  0.001 -0.003    0.518 -0.255  0.689
 H          0.005  0.118  0.126   -0.000 -0.007 -0.007    0.004  0.228  0.208
 H          0.270 -0.315 -0.108   -0.007  0.008  0.003   -0.001  0.001  0.000
 H         -0.004  0.037 -0.003    0.000 -0.001  0.000    0.000 -0.001  0.000
 H          0.296  0.355 -0.309    0.004  0.004 -0.004   -0.000 -0.000  0.000
 H          0.590  0.018  0.243    0.004 -0.000  0.002    0.001  0.000  0.000
 H          0.011 -0.066 -0.002   -0.002  0.003  0.000    0.000  0.000  0.000
 H         -0.065 -0.025 -0.026   -0.001 -0.000 -0.000   -0.000 -0.000 -0.000
 H         -0.004  0.015 -0.140    0.000 -0.000  0.001    0.000 -0.000  0.001
 H          0.000 -0.001 -0.001    0.000 -0.000 -0.000    0.000 -0.000 -0.001
 H         -0.003  0.005 -0.014    0.000 -0.001  0.002   -0.000 -0.000  0.001
 TransDip  -0.133 -0.039  0.054    0.008 -0.099 -0.074   -0.073  0.042 -0.100

 Mode:                88                     89                     90
 Frequency:      3155.23                3216.45                3240.51
 Force Cnst:      6.4923                 6.6304                 6.8399
 Red. Mass:       1.1068                 1.0878                 1.1055
 IR Active:          YES                    YES                    YES
 IR Intens:       12.066                  2.263                  5.048
 Raman Active:       YES                    YES                    YES
               X      Y      Z        X      Y      Z        X      Y      Z
 C         -0.000  0.000 -0.000    0.000  0.000  0.000    0.000 -0.000  0.000
 C          0.000 -0.000  0.000   -0.000  0.000 -0.000    0.000  0.000  0.000
 C         -0.000  0.000 -0.000    0.000  0.000 -0.000    0.000  0.000 -0.000
 C          0.000  0.001 -0.001    0.000 -0.000  0.000   -0.000  0.000 -0.000
 O          0.000 -0.000  0.000    0.000 -0.000  0.000   -0.000 -0.000  0.000
 O          0.000 -0.000  0.000    0.000  0.000  0.000    0.000  0.000  0.000
 O          0.000 -0.000  0.000   -0.000  0.000 -0.000    0.000 -0.000  0.000
 O          0.000 -0.000  0.000   -0.000  0.000 -0.000    0.000 -0.000  0.000
 C         -0.076  0.026 -0.051    0.000 -0.000  0.000   -0.000 -0.000 -0.000
 C          0.001 -0.002  0.004   -0.000 -0.000 -0.000   -0.000  0.000 -0.000
 C         -0.000  0.000 -0.000    0.001 -0.003  0.002    0.001 -0.002  0.002
 C          0.000 -0.000 -0.000    0.022 -0.031 -0.059    0.019 -0.029 -0.043
 C          0.000 -0.000  0.000    0.008 -0.031  0.036   -0.016  0.054 -0.051
 C         -0.000  0.000  0.000    0.001 -0.002 -0.001   -0.002  0.002  0.003
 C         -0.000  0.000 -0.000   -0.000  0.000  0.000   -0.001 -0.000  0.001
 C          0.000  0.000 -0.000    0.000  0.000 -0.000    0.000  0.000 -0.000
 H         -0.023  0.088  0.265    0.000 -0.000  0.000   -0.000  0.000  0.000
 H          0.007  0.018 -0.008   -0.000  0.000 -0.000   -0.000 -0.000  0.000
 H         -0.000  0.001 -0.001   -0.101  0.383 -0.415    0.145 -0.547  0.586
 H          0.794 -0.069  0.380   -0.001  0.000 -0.000    0.000 -0.000  0.000
 H          0.123 -0.337 -0.044   -0.000  0.000  0.000   -0.000  0.000 -0.000
 H         -0.024  0.012 -0.031    0.000 -0.000  0.000    0.000 -0.000  0.000
 H          0.000 -0.007 -0.006   -0.000  0.000  0.000   -0.000  0.000  0.000
 H          0.001 -0.001 -0.000   -0.015  0.017  0.008    0.018 -0.023 -0.012
 H          0.000 -0.001  0.000   -0.004  0.034 -0.006   -0.004  0.022 -0.005
 H         -0.001 -0.001  0.001   -0.000 -0.000  0.000   -0.001 -0.001  0.001
 H         -0.001 -0.000 -0.000    0.000  0.000  0.000   -0.002 -0.000 -0.001
 H          0.000 -0.001 -0.000    0.000 -0.000  0.000    0.000 -0.000 -0.000
 H          0.000  0.000  0.000    0.001 -0.000  0.000    0.004  0.001  0.001
 H          0.000 -0.000  0.001    0.000 -0.001 -0.001   -0.000  0.001 -0.004
 H         -0.000  0.000  0.000   -0.261  0.355  0.684   -0.185  0.252  0.478
 H          0.000 -0.000  0.001   -0.001 -0.000 -0.002   -0.001  0.001 -0.002
 TransDip  -0.099  0.022 -0.046    0.014 -0.041 -0.022   -0.004  0.000 -0.072

 STANDARD THERMODYNAMIC QUANTITIES AT   298.15 K  AND     1.00 ATM

   This Molecule has  0 Imaginary Frequencies
   Zero point vibrational energy:      166.709 kcal/mol

   Atom    1 Element C  Has Mass   12.00000
   Atom    2 Element C  Has Mass   12.00000
   Atom    3 Element C  Has Mass   12.00000
   Atom    4 Element C  Has Mass   12.00000
   Atom    5 Element O  Has Mass   15.99491
   Atom    6 Element O  Has Mass   15.99491
   Atom    7 Element O  Has Mass   15.99491
   Atom    8 Element O  Has Mass   15.99491
   Atom    9 Element C  Has Mass   12.00000
   Atom   10 Element C  Has Mass   12.00000
   Atom   11 Element C  Has Mass   12.00000
   Atom   12 Element C  Has Mass   12.00000
   Atom   13 Element C  Has Mass   12.00000
   Atom   14 Element C  Has Mass   12.00000
   Atom   15 Element C  Has Mass   12.00000
   Atom   16 Element C  Has Mass   12.00000
   Atom   17 Element H  Has Mass    1.00783
   Atom   18 Element H  Has Mass    1.00783
   Atom   19 Element H  Has Mass    1.00783
   Atom   20 Element H  Has Mass    1.00783
   Atom   21 Element H  Has Mass    1.00783
   Atom   22 Element H  Has Mass    1.00783
   Atom   23 Element H  Has Mass    1.00783
   Atom   24 Element H  Has Mass    1.00783
   Atom   25 Element H  Has Mass    1.00783
   Atom   26 Element H  Has Mass    1.00783
   Atom   27 Element H  Has Mass    1.00783
   Atom   28 Element H  Has Mass    1.00783
   Atom   29 Element H  Has Mass    1.00783
   Atom   30 Element H  Has Mass    1.00783
   Atom   31 Element H  Has Mass    1.00783
   Atom   32 Element H  Has Mass    1.00783
   Molecular Mass:   224.104920 amu
   Principal axes and moments of inertia in amu*Bohr^2:
                             1           2           3
    Eigenvalues --     2490.08143  3249.14318  4223.38557
          X               0.99948     0.02784    -0.01630
          Y              -0.02778     0.99961     0.00386
          Z               0.01640    -0.00341     0.99986
   Rotational Symmetry Number is   1
   The Molecule is an Asymmetric Top
   Translational Enthalpy:        0.889 kcal/mol
   Rotational Enthalpy:           0.889 kcal/mol
   Vibrational Enthalpy:        174.636 kcal/mol
   gas constant (RT):             0.592 kcal/mol
   Translational Entropy:        42.123  cal/mol.K
   Rotational Entropy:           31.902  cal/mol.K
   Vibrational Entropy:          50.326  cal/mol.K

   Total Enthalpy:              177.006 kcal/mol
   Total Entropy:               124.351  cal/mol.K
Archival summary:
1\1\nid03721\FREQ\ProcedureUnspecified\BasisUnspecified\41216\junteng\WedOct1816:06:092017WedOct1816:06:092017\0\\#,FREQ,ProcedureUnspecified,BasisUnspecified,\\0,1\O\C,1,1.35073\O,2,1.20554,1,123.255\C,1,1.43883,2,116.17,3,-7.02086,0\H,4,1.08795,1,105.485,2,175.986,0\H,4,1.09038,1,110.635,2,56.1858,0\H,4,1.09122,1,109.777,2,-64.8441,0\C,2,1.52605,1,110.995,3,-176.395,0\C,8,1.54408,2,106.314,1,68.7877,0\H,9,1.09133,8,110.827,2,-64.1344,0\H,9,1.09139,8,110.715,2,175.571,0\H,9,1.09373,8,110.498,2,55.9351,0\C,8,1.58125,2,111.358,1,-169.258,0\H,13,1.08883,8,112.751,2,-75.548,0\C,13,1.52084,8,107.426,2,53.7902,0\H,15,1.07978,13,124.516,8,-102.251,0\C,15,1.33595,13,107.434,8,70.0593,0\H,17,1.08032,15,127.338,13,-172.38,0\C,17,1.52062,15,107.598,13,1.21016,0\H,19,1.09001,17,116.458,15,160.641,0\C,19,1.54537,17,100.167,15,32.7824,0\H,21,1.09094,19,112.355,17,65.4158,0\H,21,1.09261,19,113.87,17,-169.395,0\C,19,1.57447,17,108.414,15,-70.7936,0\H,24,1.0903,19,108.872,17,179.015,0\C,24,1.51264,19,112.981,17,-62.3744,0\O,26,1.20743,24,126.258,19,50.4887,0\O,26,1.3523,24,110.642,19,-127.436,0\C,28,1.43782,26,115.82,24,-179.635,0\H,29,1.08789,28,105.505,26,-179.975,0\H,29,1.09122,28,110.629,26,-60.2987,0\H,29,1.09129,28,110.327,26,60.5134,0\\\@

 Total job time:  10785.37s(wall), 62641.00s(cpu) 
 Wed Oct 18 16:06:09 2017

        *************************************************************
        *                                                           *
        *  Thank you very much for using Q-Chem.  Have a nice day.  *
        *                                                           *
        *************************************************************


