nid01079 10.128.4
Q-Chem Developer Version! Running on 10.128.4.*
                  Welcome to Q-Chem
     A Quantum Leap Into The Future Of Chemistry


 Q-Chem 5.0, Q-Chem, Inc., Pleasanton, CA (2017)

 Yihan Shao,  Zhengting Gan,  E. Epifanovsky,  A. T. B. Gilbert,  M. Wormit,  
 J. Kussmann,  A. W. Lange,  A. Behn,  Jia Deng,  Xintian Feng,  D. Ghosh,  
 M. Goldey,  P. R. Horn,  L. D. Jacobson,  I. Kaliman,  T. Kus,  A. Landau,  
 Jie Liu,  E. I. Proynov,  R. M. Richard,  R. P. Steele,  E. J. Sundstrom,  
 H. L. Woodcock III,  P. M. Zimmerman,  D. Zuev,  B. Albrecht,  E. Alguire,  
 S. A. Baeppler,  Z. Benda,  Y. A. Bernard,  E. J. Berquist,  K. B. Bravaya,  
 D. Casanova,  Chun-Min Chang,  Yunqing Chen,  A. Chien,  K. D. Closser,  
 M. P. Coons,  S. Dasgupta,  M. Diedenhofen,  Hainam Do,  R. G. Edgar,  
 Po-Tung Fang,  S. Fatehi,  Qingguo Feng,  Qinghui Ge,  A. Ghysels,  
 J. Gomes,  J. Gonthier,  A. Gunina,  M. W. D. Hanson-Heine,  
 P. H. P. Harbach,  A. W. Hauser,  J. E. Herr,  E. G. Hohenstein,  
 Z. C. Holden,  Kerwin Hui,  T.-C. Jagau,  Hyunjun Ji,  B. Kaduk,  
 K. Khistyaev,  Jaehoon Kim,  P. Klunzinger,  K. Koh,  D. Kosenkov,  
 T. Kowalczyk,  C. M. Krauter,  A. Kunitsa,  Ka Un Lao,  A. Laurent,  
 K. V. Lawler,  Joonho Lee,  D. Lefrancois,  S. Lehtola,  D. S. Levine,  
 Yi-Pei Li,  You-Sheng Lin,  Fenglai Liu,  E. Livshits,  A. Luenser,  
 P. Manohar,  E. Mansoor,  S. F. Manzer,  Shan-Ping Mao,  Yuezhi Mao,  
 N. Mardirossian,  A. V. Marenich,  L. A. Martinez-Martinez,  S. A. Maurer,  
 N. J. Mayhall,  S. C. McKenzie,  J.-M. Mewes,  A. F. Morrison,  K. Nanda,  
 T. S. Nguyen-Beck,  R. Olivares-Amaya,  J. A. Parkhill,  T. M. Perrine,  
 F. Plasser,  S. Prager,  A. Prociuk,  D. R. Rehn,  F. Rob,  M. Schneider,  
 N. Sergueev,  S. M. Sharada,  S. Sharma,  D. W. Small,  T. Stauch,  
 T. Stein,  Yu-Chuan Su,  A. J. W. Thom,  T. Tsuchimochi,  L. Vogt,  
 O. Vydrov,  M. A. Watson,  J. Wenzel,  M. de Wergifosse,  T. A. Wesolowski,  
 A. White,  J. Witte,  A. Yamada,  Jun Yang,  K. Yao,  S. Yeganeh,  
 S. R. Yost,  Zhi-Qiang You,  A. Zech,  Igor Ying Zhang,  Xing Zhang,  
 Yan Zhao,  Ying Zhu,  B. R. Brooks,  G. K. L. Chan,  C. J. Cramer,  
 M. S. Gordon,  W. J. Hehre,  A. Klamt,  M. W. Schmidt,  C. D. Sherrill,  
 D. G. Truhlar,  A. Aspuru-Guzik,  R. Baer,  A. T. Bell,  N. A. Besley,  
 Jeng-Da Chai,  A. Dreuw,  B. D. Dunietz,  T. R. Furlani,  Chao-Ping Hsu,  
 Yousung Jung,  Jing Kong,  D. S. Lambrecht,  WanZhen Liang,  C. Ochsenfeld,  
 V. A. Rassolov,  L. V. Slipchenko,  J. E. Subotnik,  T. Van Voorhis,  
 J. M. Herbert,  A. I. Krylov,  P. M. W. Gill,  M. Head-Gordon

 Contributors to earlier versions of Q-Chem not listed above: 
 R. D. Adamson,  B. Austin,  J. Baker,  G. J. O. Beran,  K. Brandhorst,  
 S. T. Brown,  E. F. C. Byrd,  A. K. Chakraborty,  C.-L. Cheng,  
 Siu Hung Chien,  D. M. Chipman,  D. L. Crittenden,  H. Dachsel,  
 R. A. DiStasio Jr.,  R. J. Doerksen,  A. D. Dutoi,  L. Fusti-Molnar,  
 W. A. Goddard III,  A. Golubeva-Zadorozhnaya,  S. R. Gwaltney,  G. Hawkins,  
 A. Heyden,  S. Hirata,  G. Kedziora,  F. J. Keil,  C. Kelley,  Jihan Kim,  
 R. A. King,  R. Z. Khaliullin,  P. P. Korambath,  W. Kurlancheek,  
 A. M. Lee,  M. S. Lee,  S. V. Levchenko,  Ching Yeh Lin,  D. Liotard,  
 R. C. Lochan,  I. Lotan,  P. E. Maslen,  N. Nair,  D. P. O'Neill,  
 D. Neuhauser,  E. Neuscamman,  C. M. Oana,  R. Olson,  B. Peters,  
 R. Peverati,  P. A. Pieniazek,  Y. M. Rhee,  J. Ritchie,  M. A. Rohrdanz,  
 E. Rosta,  N. J. Russ,  H. F. Schaefer III,  N. E. Schultz,  N. Shenvi,  
 A. C. Simmonett,  A. Sodt,  D. Stuck,  K. S. Thanthiriwatte,  V. Vanovschi,  
 Tao Wang,  A. Warshel,  C. F. Williams,  Q. Wu,  X. Xu,  W. Zhang

 Please cite Q-Chem as follows:
 Y. Shao et al., Mol. Phys. 113, 184-215 (2015)
 DOI: 10.1080/00268976.2014.952696

 Q-Chem 5.0.0 for Intel X86 EM64T Linux

 Parts of Q-Chem use Armadillo 5.200.1 (Boston Tea Smuggler).
 http://arma.sourceforge.net/

 Q-Chem begins on Wed Oct  4 18:04:27 2017  

Host: nid01079
0

     Scratch files written to /global/cscratch1/sd/junteng/scratch/17/opt_11n01+-.save//

Checking the input file for inconsistencies... 	...done.

--------------------------------------------------------------
User input:
--------------------------------------------------------------
$molecule
0  1
C    0.469  -2.369   0.246
C   -0.100  -2.666   1.497
C    0.820  -0.970  -0.128
C   -0.250  -1.617   2.525
O    1.710  -0.973  -1.154
O    0.353   0.027   0.395
O    0.994  -1.244   2.918
O   -1.315  -1.271   3.005
C    0.990  -0.231   3.923
C    2.104   0.331  -1.586
C    0.633  -3.406  -0.690
C    0.237  -4.708  -0.384
C   -0.335  -4.993   0.854
C   -0.510  -3.982   1.810
H    0.475   0.666   3.564
H    1.246   0.871  -1.997
H   -0.645  -6.015   1.070
H    0.524  -0.605   4.840
H    2.028   0.031   4.144
H    2.851   0.214  -2.376
H    2.557   0.890  -0.761
H    0.365  -5.501  -1.118
H    1.053  -3.209  -1.674
C   -1.128  -4.326   3.139
H   -2.093  -3.824   3.253
H   -0.462  -4.036   3.958
H   -1.304  -5.403   3.231
$end


$opt
CONSTRAINT
tors    2    1    3    5    168.6
tors    1    2    4    7    -72.3
ENDCONSTRAINT
$end

$rem
JOBTYPE                   OPT
METHOD                    B3LYP
DFT_D                     D3_OP
BASIS                     STO-3G
GEOM_OPT_MAX_CYCLES       500
SYMMETRY                  False
THRESH                    12
SCF_CONVERGENCE           8
MAX_SUB_FILE_NUM          128
MEM_STATIC                400
MEM_TOTAL                 4000
$end

--------------------------------------------------------------
 Adding empirical dispersion correction 
 ----------------------------------------------------------------
 Doing -D3(op) with
 s6 =   1.00000
 s8 =   0.78311
 a1 =   0.30000
 a2 =   4.25000
 n  =  10.00000
 -D3 energy without 3body term =     -0.0281099174 hartrees
 ----------------------------------------------------------------
             Standard Nuclear Orientation (Angstroms)
    I     Atom           X                Y                Z
 ----------------------------------------------------------------
    1      C       0.4276448099    -0.8415736243    -0.0588692333
    2      C      -0.8060843738    -0.1694900882    -0.1153229467
    3      C       1.7108516923    -0.1157460900    -0.2752773829
    4      C      -0.8586766063     1.2982395328    -0.2659510208
    5      O       2.7440659004    -0.8386462100     0.2293698371
    6      O       1.8151246914     0.9559824043    -0.8463747267
    7      O      -0.3462610882     1.8472865541     0.8641338013
    8      O      -1.3960448180     1.8760408395    -1.1942408759
    9      C      -0.3453536797     3.2741738433     0.8499267384
   10      C       4.0219453492    -0.2207266872     0.0636122501
   11      C       0.4347697576    -2.2356355990     0.1279500539
   12      C      -0.7617862935    -2.9413211965     0.2541144457
   13      C      -1.9807647890    -2.2699771573     0.1874690522
   14      C      -2.0220088454    -0.8801964136     0.0044651935
   15      H       0.2409006342     3.6507951732     0.0054285126
   16      H       4.2682047510    -0.1351699828    -0.9988007380
   17      H      -2.9041102496    -2.8410186193     0.2801232975
   18      H      -1.3703322120     3.6561049330     0.8116037554
   19      H       0.1193667722     3.6218521173     1.7762548225
   20      H       4.7702630880    -0.8580083794     0.5428727289
   21      H       4.0413877155     0.7607414868     0.5480265539
   22      H      -0.7435362013    -4.0202578732     0.3939414170
   23      H       1.3701157423    -2.7903072772     0.1584823066
   24      C      -3.3565948521    -0.1864117253    -0.0591272334
   25      H      -3.5169381685     0.2431909134    -1.0520807034
   26      H      -3.4152264497     0.6020259728     0.6980684692
   27      H      -4.1788259208    -0.8832659350     0.1350357913
 ----------------------------------------------------------------
 Molecular Point Group                 C1    NOp =  1
 Largest Abelian Subgroup              C1    NOp =  1
 Nuclear Repulsion Energy =  1009.1896279882 hartrees
 There are       55 alpha and       55 beta electrons
 Requested basis set is STO-3G
 There are 42 shells and 87 basis functions

 Total QAlloc Memory Limit   4000 MB
 Mega-Array Size       392 MB
 MEM_STATIC part       400 MB
 A cutoff of  1.0D-12 yielded    765 shell pairs
 There are      3696 function pairs
 
 -------------------------------------------------------
 OpenMP Integral Computing Module                       
 Release: version 1.0, May 2013, Q-Chem Inc. Pittsburgh 
 -------------------------------------------------------
 Integral Job Info:
 Integral job number is                      11
 Integral operator is                         1
 short-range coefficients                     0
 long-range coefficients              100000000
 Omega coefficients                           0
 if combine SR and LR in K                    0
 Integral screening is                        0
 Integral computing path is                   2
 max size of driver memory is            800000
 size of driver memory is                 45569
 size of scratch memory is               945100
 max col of scratch BK array                289
 max len of scratch array in speh3           22
 max len of scratch index in speh4            8
 max int batch size is                      520
 min int batch size is                       52
 fixed nKL is                                52
 max L of basis functions is                  1
 order of int derivative is                   0
 number of shells is                         42
 number of basis is                          87
 number of cartesian basis is                87
 number of contracted shell pairs           765
 number of primitive shell pairs           4169
 maxK2 (contraction) of shell pair            9
 max number of K2 of shell pair               1
 max number of CS2 of shell pair            112
 max number of PS2 of shell pair            564
 mem total for path MDJ                   25842
 -------------------------------------------------------
 Smallest overlap matrix eigenvalue = 1.75E-01

 Scale SEOQF with 1.000000e-01/1.000000e-01/1.000000e-01

 Standard Electronic Orientation quadrupole field applied
 Nucleus-field energy     =     0.0000000367 hartrees
 Guess from superposition of atomic densities
 Warning:  Energy on first SCF cycle will be non-variational
 A restricted hybrid HF-DFT SCF calculation will be
 performed using Pulay DIIS extrapolation
 Exchange:     0.2000 Hartree-Fock + 0.0800 Slater + 0.7200 B88
 Correlation:  0.1900 VWN1RPA + 0.8100 LYP
 Using SG-1 standard quadrature grid
 Dispersion:   Grimme D3
 SCF converges when DIIS error is below 1.0E-08
 -------------------------------------------------------
 OpenMP Integral computing Module                
 Release: version 1.0, May 2013, Q-Chem Inc. Pittsburgh 
 -------------------------------------------------------
 -------------------------------------------------------
 OpenMP BLAS3 based DFT computing Module                
 Release: version 1.0, May 2013, Q-Chem Inc. Pittsburgh 
 -------------------------------------------------------
 ---------------------------------------
  Cycle       Energy         DIIS Error
 ---------------------------------------
    1    -717.8019365690      1.20E-01
    2    -717.7010378448      1.35E-02
    3    -716.6909548447      3.55E-02
    4    -717.8989360821      4.93E-03
    5    -717.9220252155      1.83E-03
    6    -717.9252541391      6.40E-04
    7    -717.9256752319      2.14E-04
    8    -717.9257222207      5.99E-05
    9    -717.9257259474      2.45E-05
   10    -717.9257267525      3.51E-06
   11    -717.9257267669      1.14E-06
   12    -717.9257267684      2.20E-07
   13    -717.9257267684      1.01E-07
   14    -717.9257267684      3.15E-08
   15    -717.9257267684      8.11E-09 Convergence criterion met
 ---------------------------------------
 SCF time:  CPU 58.17 s  wall 2.47 s
 SCF   energy in the final basis set = -717.9257267684
 Total energy in the final basis set = -717.9257267684
 
 --------------------------------------------------------------
 
                    Orbital Energies (a.u.)
 --------------------------------------------------------------
 
 Alpha MOs
 -- Occupied --
-18.948 -18.944 -18.869 -18.865 -10.116 -10.112 -10.076 -10.069
-10.024 -10.023 -10.020 -10.016 -10.010 -10.010 -10.009  -1.048
 -1.041  -0.957  -0.953  -0.821  -0.742  -0.730  -0.692  -0.672
 -0.648  -0.595  -0.566  -0.516  -0.504  -0.472  -0.451  -0.440
 -0.433  -0.422  -0.418  -0.395  -0.390  -0.385  -0.372  -0.360
 -0.352  -0.343  -0.339  -0.322  -0.312  -0.300  -0.293  -0.253
 -0.246  -0.199  -0.190  -0.185  -0.179  -0.154  -0.147
 -- Virtual --
  0.052   0.076   0.129   0.152   0.251   0.281   0.311   0.352
  0.373   0.392   0.397   0.405   0.432   0.437   0.443   0.446
  0.453   0.456   0.457   0.459   0.467   0.471   0.483   0.493
  0.574   0.582   0.592   0.613   0.701   0.710   0.788   0.802
 --------------------------------------------------------------
 
          Ground-State Mulliken Net Atomic Charges

     Atom                 Charge (a.u.)
  ----------------------------------------
      1 C                    -0.018582
      2 C                    -0.016936
      3 C                     0.234617
      4 C                     0.240956
      5 O                    -0.184918
      6 O                    -0.230663
      7 O                    -0.182368
      8 O                    -0.224940
      9 C                    -0.127135
     10 C                    -0.125431
     11 C                    -0.074859
     12 C                    -0.080052
     13 C                    -0.077609
     14 C                     0.012689
     15 H                     0.097897
     16 H                     0.094244
     17 H                     0.080944
     18 H                     0.091047
     19 H                     0.094514
     20 H                     0.096685
     21 H                     0.094839
     22 H                     0.082779
     23 H                     0.091068
     24 C                    -0.232605
     25 H                     0.096456
     26 H                     0.085477
     27 H                     0.081886
  ----------------------------------------
  Sum of atomic charges =     0.000000

 -----------------------------------------------------------------
                    Cartesian Multipole Moments
 -----------------------------------------------------------------
    Charge (ESU x 10^10)
                -0.0000
    Dipole Moment (Debye)
         X       0.7982      Y      -0.5502      Z       1.4656
       Tot       1.7573
    Quadrupole Moments (Debye-Ang)
        XX     -68.8640     XY       1.0683     YY     -74.0057
        XZ      -1.4979     YZ       4.7411     ZZ     -83.2885
    Octopole Moments (Debye-Ang^2)
       XXX      41.5766    XXY      -2.7669    XYY       0.8577
       YYY      25.2011    XXZ       3.5524    XYZ      -0.6167
       YYZ      13.0115    XZZ       9.2585    YZZ       6.8348
       ZZZ      -3.0962
    Hexadecapole Moments (Debye-Ang^3)
      XXXX   -1834.3719   XXXY     -13.9583   XXYY    -592.7498
      XYYY      -6.0514   YYYY   -1421.5834   XXXZ       3.4567
      XXYZ       8.8362   XYYZ      -9.5961   YYYZ      16.3355
      XXZZ    -378.5399   XYZZ      -4.8522   YYZZ    -299.7002
      XZZZ      -0.3707   YZZZ       2.9732   ZZZZ    -200.2064
 -----------------------------------------------------------------
 Calculating analytic gradient of the SCF energy
 Gradient of SCF Energy
            1           2           3           4           5           6
    1   0.0155520   0.0002434   0.0288734   0.0033619  -0.0165587  -0.0090033
    2   0.0247654   0.0340006   0.0084045   0.0202584   0.0561898  -0.0668372
    3  -0.0054958  -0.0064167  -0.0034908   0.0083047  -0.0327235   0.0327088
            7           8           9          10          11          12
    1  -0.0295598   0.0255054  -0.0003711  -0.0164199  -0.0008983  -0.0031731
    2   0.0085524  -0.0425767  -0.0241214  -0.0093064   0.0067387   0.0046852
    3  -0.0553920   0.0504006  -0.0000651   0.0029537   0.0000270  -0.0002477
           13          14          15          16          17          18
    1   0.0029767  -0.0065585  -0.0025396  -0.0055135   0.0073378   0.0102249
    2   0.0029842   0.0110264  -0.0077578  -0.0067668   0.0014604  -0.0087175
    3  -0.0002257  -0.0001337   0.0102837   0.0117449  -0.0006387   0.0042723
           19          20          21          22          23          24
    1  -0.0046865  -0.0047308  -0.0030343  -0.0003432  -0.0094996   0.0157825
    2  -0.0008429   0.0080769  -0.0133174   0.0081641   0.0001020  -0.0050621
    3  -0.0097686  -0.0052144  -0.0006932  -0.0010887  -0.0004175  -0.0020005
           25          26          27
    1   0.0009587   0.0010130   0.0010607
    2  -0.0069575  -0.0076169   0.0044717
    3   0.0047262  -0.0008020  -0.0006072
 Max gradient component =       6.684E-02
 RMS gradient           =       1.774E-02
 Gradient time:  CPU 13.02 s  wall 0.56 s
 Geometry Optimization Parameters
   NAtoms,    NIC,     NZ,  NCons,   NDum,   NFix, NCnnct, MaxDiis
       27     173       0       2       0       0       0       0


** CONSTRAINED OPTIMIZATION IN DELOCALIZED INTERNAL COORDINATES **
   Searching for a Minimum

   Optimization Cycle:   1

                       Coordinates (Angstroms)
     ATOM                X               Y               Z
      1  C         0.4276448099   -0.8415736243   -0.0588692333
      2  C        -0.8060843738   -0.1694900882   -0.1153229467
      3  C         1.7108516923   -0.1157460900   -0.2752773829
      4  C        -0.8586766063    1.2982395328   -0.2659510208
      5  O         2.7440659004   -0.8386462100    0.2293698371
      6  O         1.8151246914    0.9559824043   -0.8463747267
      7  O        -0.3462610882    1.8472865541    0.8641338013
      8  O        -1.3960448180    1.8760408395   -1.1942408759
      9  C        -0.3453536797    3.2741738433    0.8499267384
     10  C         4.0219453492   -0.2207266872    0.0636122501
     11  C         0.4347697576   -2.2356355990    0.1279500539
     12  C        -0.7617862935   -2.9413211965    0.2541144457
     13  C        -1.9807647890   -2.2699771573    0.1874690522
     14  C        -2.0220088454   -0.8801964136    0.0044651935
     15  H         0.2409006342    3.6507951732    0.0054285126
     16  H         4.2682047510   -0.1351699828   -0.9988007380
     17  H        -2.9041102496   -2.8410186193    0.2801232975
     18  H        -1.3703322120    3.6561049330    0.8116037554
     19  H         0.1193667722    3.6218521173    1.7762548225
     20  H         4.7702630880   -0.8580083794    0.5428727289
     21  H         4.0413877155    0.7607414868    0.5480265539
     22  H        -0.7435362013   -4.0202578732    0.3939414170
     23  H         1.3701157423   -2.7903072772    0.1584823066
     24  C        -3.3565948521   -0.1864117253   -0.0591272334
     25  H        -3.5169381685    0.2431909134   -1.0520807034
     26  H        -3.4152264497    0.6020259728    0.6980684692
     27  H        -4.1788259208   -0.8832659350    0.1350357913
   Point Group: c1    Number of degrees of freedom:    75


   Energy is   -717.925726768

              Constraints and their Current Values
                                        Value     Constraint
   Dihedral:        2   1   3   5      160.883      168.600
   Dihedral:        1   2   4   7      -66.511      -72.300

 Attempting to Generate Delocalized Internal Coordinates

   Using Lagrange Multiplier Algorithm


 77 Hessian modes will be used to form the next step
  Hessian Eigenvalues:
    -0.977753   -0.977753    0.045000    0.045000    0.045000    0.045000
     0.045000    0.045000    0.045000    0.045000    0.045000    0.045001
     0.045002    0.045007    0.045012    0.045014    0.045073    0.045391
     0.094103    0.094233    0.113874    0.113890    0.116885    0.116948
     0.159973    0.159992    0.160000    0.160000    0.160000    0.160000
     0.160000    0.160000    0.160000    0.160000    0.160000    0.160000
     0.220831    0.234483    0.248788    0.249003    0.249488    0.249924
     0.249954    0.250000    0.250000    0.250000    0.250000    0.250000
     0.318081    0.334430    0.342234    0.342572    0.342726    0.342778
     0.342982    0.343623    0.343862    0.344084    0.344536    0.348583
     0.349879    0.350317    0.350597    0.408825    0.411215    0.413739
     0.414295    0.441969    0.449403    0.456885    0.464260    0.533072
     0.535839    0.958888    0.961246    1.022753    1.022753

 Minimum Search - Taking P-RFO Step
 Searching for Lamda that Maximizes Along the Constraint modes Only
 Value Taken    Lamda =   0.01499488
 Searching for Lamda that Minimizes Along All other modes
 Value Taken    Lamda =  -0.06486996
 Calculated Step too Large.  Step scaled by  0.815735
 Step Taken.  Stepsize is  0.300000

                             Maximum     Tolerance    Cnvgd?
         Gradient            0.134692       0.000300      NO
         Displacement        0.112596       0.001200      NO
         Energy change     *********       0.000001      NO


 New Cartesian Coordinates Obtained by Inverse Iteration

 Displacement from previous Coordinates is:  1.039552
 Adding empirical dispersion correction 
 ----------------------------------------------------------------
 Doing -D3(op) with
 s6 =   1.00000
 s8 =   0.78311
 a1 =   0.30000
 a2 =   4.25000
 n  =  10.00000
 -D3 energy without 3body term =     -0.0278143133 hartrees
 ----------------------------------------------------------------
             Standard Nuclear Orientation (Angstroms)
    I     Atom           X                Y                Z
 ----------------------------------------------------------------
    1      C       0.4249893562    -0.8974948154     0.0193240570
    2      C      -0.8108827157    -0.2066252443    -0.0608132884
    3      C       1.7280203608    -0.1286411931    -0.1933398260
    4      C      -0.8304840442     1.3163927358    -0.2467273719
    5      O       2.8197132692    -0.9101994196     0.2154013764
    6      O       1.8223389208     0.9904219465    -0.7432235229
    7      O      -0.4002793459     1.9197831534     0.9458347170
    8      O      -1.3033092121     1.9259984907    -1.2273484990
    9      C      -0.4037738002     3.3822368247     0.8715076477
   10      C       4.1018458208    -0.2457531024    -0.0155376593
   11      C       0.4284151362    -2.3039765129     0.1811564357
   12      C      -0.7828933699    -3.0090780607     0.2742127110
   13      C      -2.0071489208    -2.3204207293     0.1867742683
   14      C      -2.0412140517    -0.9177772744     0.0141464201
   15      H       0.2508135083     3.7494377774     0.0570463603
   16      H       4.2879757623    -0.0809099194    -1.0951430536
   17      H      -2.9470201760    -2.8827559882     0.2478976624
   18      H      -1.4269928245     3.7807947635     0.7237372942
   19      H      -0.0145589528     3.7574377169     1.8343505538
   20      H       4.8855640756    -0.9155666147     0.3802780060
   21      H       4.1619903392     0.7243551656     0.5157234788
   22      H      -0.7740607950    -4.0984906442     0.3999465988
   23      H       1.3783358616    -2.8501672876     0.2193918532
   24      C      -3.3865203633    -0.1918124658    -0.0903567297
   25      H      -3.5113864673     0.2603524741    -1.0867377452
   26      H      -3.4687126696     0.6029096956     0.6674580204
   27      H      -4.2186683463    -0.8917705603     0.0698744010
 ----------------------------------------------------------------
 Molecular Point Group                 C1    NOp =  1
 Largest Abelian Subgroup              C1    NOp =  1
 Nuclear Repulsion Energy =   990.4164584377 hartrees
 There are       55 alpha and       55 beta electrons
 Applying Cartesian multipole field
    Component          Value
    ---------          -----
     (2,0,0)        1.00000E-11
     (0,2,0)        2.00000E-11
     (0,0,2)       -3.00000E-11
 Nucleus-field energy     =     0.0000000386 hartrees
 Requested basis set is STO-3G
 There are 42 shells and 87 basis functions
 A cutoff of  1.0D-12 yielded    759 shell pairs
 There are      3675 function pairs
 Smallest overlap matrix eigenvalue = 1.81E-01
 Guess MOs from SCF MO coefficient file
 Reading MOs from coefficient file
 Reading MOs from coefficient file
 A restricted hybrid HF-DFT SCF calculation will be
 performed using Pulay DIIS extrapolation
 Exchange:     0.2000 Hartree-Fock + 0.0800 Slater + 0.7200 B88
 Correlation:  0.1900 VWN1RPA + 0.8100 LYP
 Using SG-1 standard quadrature grid
 Dispersion:   Grimme D3
 SCF converges when DIIS error is below 1.0E-08
 Geometry optimization detected.  Setting ReadMinima to 0
 Setting SaveMinima to 0
 -------------------------------------------------------
 OpenMP Integral computing Module                
 Release: version 1.0, May 2013, Q-Chem Inc. Pittsburgh 
 -------------------------------------------------------
 -------------------------------------------------------
 OpenMP BLAS3 based DFT computing Module                
 Release: version 1.0, May 2013, Q-Chem Inc. Pittsburgh 
 -------------------------------------------------------
 ---------------------------------------
  Cycle       Energy         DIIS Error
 ---------------------------------------
    1    -717.7787881490      7.69E-03
    2    -717.9439285127      2.48E-03
    3    -717.9303779837      4.34E-03
    4    -717.9504690408      6.67E-04
    5    -717.9509655670      2.01E-04
    6    -717.9510114888      5.11E-05
    7    -717.9510143941      2.13E-05
    8    -717.9510148936      1.08E-05
    9    -717.9510150154      2.97E-06
   10    -717.9510150264      6.03E-07
   11    -717.9510150270      1.91E-07
   12    -717.9510150270      6.02E-08
   13    -717.9510150270      2.41E-08
   14    -717.9510150270      6.65E-09 Convergence criterion met
 ---------------------------------------
 SCF time:  CPU 54.23 s  wall 2.29 s
 SCF   energy in the final basis set = -717.9510150270
 Total energy in the final basis set = -717.9510150270
 
 --------------------------------------------------------------
 
                    Orbital Energies (a.u.)
 --------------------------------------------------------------
 
 Alpha MOs
 -- Occupied --
-18.944 -18.934 -18.872 -18.865 -10.108 -10.102 -10.071 -10.063
-10.027 -10.027 -10.023 -10.018 -10.014 -10.013 -10.012  -1.023
 -1.013  -0.942  -0.934  -0.815  -0.735  -0.721  -0.679  -0.662
 -0.646  -0.588  -0.562  -0.510  -0.498  -0.461  -0.440  -0.427
 -0.420  -0.414  -0.409  -0.388  -0.382  -0.377  -0.370  -0.358
 -0.348  -0.341  -0.333  -0.314  -0.310  -0.296  -0.288  -0.255
 -0.246  -0.197  -0.191  -0.181  -0.172  -0.154  -0.145
 -- Virtual --
  0.047   0.073   0.117   0.140   0.239   0.256   0.281   0.330
  0.351   0.363   0.375   0.393   0.415   0.422   0.427   0.430
  0.431   0.438   0.440   0.443   0.448   0.459   0.467   0.478
  0.549   0.561   0.568   0.592   0.656   0.665   0.758   0.775
 --------------------------------------------------------------
 
          Ground-State Mulliken Net Atomic Charges

     Atom                 Charge (a.u.)
  ----------------------------------------
      1 C                    -0.017335
      2 C                    -0.014600
      3 C                     0.215190
      4 C                     0.221435
      5 O                    -0.173011
      6 O                    -0.215083
      7 O                    -0.172797
      8 O                    -0.213938
      9 C                    -0.124945
     10 C                    -0.123860
     11 C                    -0.074568
     12 C                    -0.077651
     13 C                    -0.076106
     14 C                     0.011212
     15 H                     0.093826
     16 H                     0.090819
     17 H                     0.080881
     18 H                     0.087435
     19 H                     0.090800
     20 H                     0.093021
     21 H                     0.091489
     22 H                     0.083099
     23 H                     0.091885
     24 C                    -0.226494
     25 H                     0.093588
     26 H                     0.084931
     27 H                     0.080776
  ----------------------------------------
  Sum of atomic charges =     0.000000

 -----------------------------------------------------------------
                    Cartesian Multipole Moments
 -----------------------------------------------------------------
    Charge (ESU x 10^10)
                 0.0000
    Dipole Moment (Debye)
         X       0.6346      Y      -0.6727      Z       1.2439
       Tot       1.5500
    Quadrupole Moments (Debye-Ang)
        XX     -68.2866     XY       1.1188     YY     -73.6095
        XZ      -1.5112     YZ       4.3952     ZZ     -83.4310
    Octopole Moments (Debye-Ang^2)
       XXX      40.4114    XXY      -0.8358    XYY      -1.0194
       YYY      27.6436    XXZ      -0.2011    XYZ      -0.7844
       YYZ      11.7283    XZZ       9.3432    YZZ       7.6976
       ZZZ      -7.9591
    Hexadecapole Moments (Debye-Ang^3)
      XXXX   -1867.8566   XXXY      -8.9160   XXYY    -613.0966
      XYYY      -3.7732   YYYY   -1489.8856   XXXZ       4.4264
      XXYZ       6.4124   XYYZ      -7.6465   YYYZ      16.9774
      XXZZ    -388.3301   XYZZ      -2.7673   YYZZ    -315.5567
      XZZZ       3.0568   YZZZ       1.8055   ZZZZ    -202.3320
 -----------------------------------------------------------------
 Calculating analytic gradient of the SCF energy
 Gradient of SCF Energy
            1           2           3           4           5           6
    1   0.0031868  -0.0011137   0.0112716   0.0116840  -0.0060753  -0.0011260
    2   0.0073977   0.0059033  -0.0041341   0.0026280   0.0201320  -0.0125318
    3  -0.0007088  -0.0023985   0.0083730   0.0113183  -0.0117662   0.0009767
            7           8           9          10          11          12
    1  -0.0120052  -0.0000031   0.0009479  -0.0071247   0.0000359  -0.0003267
    2   0.0037892  -0.0070505  -0.0089942  -0.0061357   0.0019977  -0.0011233
    3  -0.0223896   0.0082999   0.0035321   0.0023409  -0.0006764   0.0005544
           13          14          15          16          17          18
    1  -0.0010737  -0.0025449   0.0004619   0.0003231   0.0016640   0.0011722
    2   0.0001618   0.0027274  -0.0005800  -0.0020610  -0.0003378  -0.0006739
    3   0.0001853  -0.0005450   0.0022139   0.0014962  -0.0002313   0.0021197
           19          20          21          22          23          24
    1  -0.0006258   0.0006210   0.0002687   0.0001000  -0.0025086   0.0052406
    2   0.0020491   0.0023250  -0.0022724   0.0012985  -0.0014429  -0.0005462
    3  -0.0020662  -0.0010258   0.0008740  -0.0001508  -0.0005590  -0.0009405
           25          26          27
    1  -0.0010332  -0.0010609  -0.0003559
    2  -0.0021818  -0.0020384   0.0016942
    3   0.0004951   0.0006205   0.0000582
 Max gradient component =       2.239E-02
 RMS gradient           =       5.463E-03
 Gradient time:  CPU 12.18 s  wall 0.51 s
 Geometry Optimization Parameters
   NAtoms,    NIC,     NZ,  NCons,   NDum,   NFix, NCnnct, MaxDiis
       27     173       0       2       0       0       0       0

 Cartesian Hessian Update
 Hessian Updated using BFGS Update


** CONSTRAINED OPTIMIZATION IN DELOCALIZED INTERNAL COORDINATES **
   Searching for a Minimum

   Optimization Cycle:   2

                       Coordinates (Angstroms)
     ATOM                X               Y               Z
      1  C         0.4249893562   -0.8974948154    0.0193240570
      2  C        -0.8108827157   -0.2066252443   -0.0608132884
      3  C         1.7280203608   -0.1286411931   -0.1933398260
      4  C        -0.8304840442    1.3163927358   -0.2467273719
      5  O         2.8197132692   -0.9101994196    0.2154013764
      6  O         1.8223389208    0.9904219465   -0.7432235229
      7  O        -0.4002793459    1.9197831534    0.9458347170
      8  O        -1.3033092121    1.9259984907   -1.2273484990
      9  C        -0.4037738002    3.3822368247    0.8715076477
     10  C         4.1018458208   -0.2457531024   -0.0155376593
     11  C         0.4284151362   -2.3039765129    0.1811564357
     12  C        -0.7828933699   -3.0090780607    0.2742127110
     13  C        -2.0071489208   -2.3204207293    0.1867742683
     14  C        -2.0412140517   -0.9177772744    0.0141464201
     15  H         0.2508135083    3.7494377774    0.0570463603
     16  H         4.2879757623   -0.0809099194   -1.0951430536
     17  H        -2.9470201760   -2.8827559882    0.2478976624
     18  H        -1.4269928245    3.7807947635    0.7237372942
     19  H        -0.0145589528    3.7574377169    1.8343505538
     20  H         4.8855640756   -0.9155666147    0.3802780060
     21  H         4.1619903392    0.7243551656    0.5157234788
     22  H        -0.7740607950   -4.0984906442    0.3999465988
     23  H         1.3783358616   -2.8501672876    0.2193918532
     24  C        -3.3865203633   -0.1918124658   -0.0903567297
     25  H        -3.5113864673    0.2603524741   -1.0867377452
     26  H        -3.4687126696    0.6029096956    0.6674580204
     27  H        -4.2186683463   -0.8917705603    0.0698744010
   Point Group: c1    Number of degrees of freedom:    75


   Energy is   -717.951015027

              Constraints and their Current Values
                                        Value     Constraint
   Dihedral:        2   1   3   5      166.945      168.600
   Dihedral:        1   2   4   7      -71.064      -72.300
 Hessian Updated using BFGS Update

   Using Lagrange Multiplier Algorithm


 65 Hessian modes will be used to form the next step
  Hessian Eigenvalues:
    -0.978131   -0.977713    0.044574    0.045000    0.045000    0.045000
     0.045000    0.045000    0.045000    0.045002    0.045005    0.045008
     0.045064    0.045088    0.045352    0.094022    0.094224    0.113791
     0.113883    0.116885    0.116948    0.158527    0.159978    0.159992
     0.160000    0.162267    0.220778    0.232680    0.238507    0.248945
     0.249242    0.249751    0.249932    0.249961    0.250000    0.252757
     0.319381    0.337016    0.342235    0.342628    0.342732    0.342873
     0.343260    0.343783    0.343950    0.344334    0.345160    0.348601
     0.350307    0.350583    0.372667    0.407831    0.411315    0.413233
     0.424823    0.442365    0.451245    0.463614    0.470024    0.524845
     0.534659    0.959875    0.993088    1.022677    1.023259

 Minimum Search - Taking P-RFO Step
 Searching for Lamda that Maximizes Along the Constraint modes Only
 Value Taken    Lamda =   0.00043899
 Searching for Lamda that Minimizes Along All other modes
 Value Taken    Lamda =  -0.00756504
 Step Taken.  Stepsize is  0.229347

                             Maximum     Tolerance    Cnvgd?
         Gradient            0.028890       0.000300      NO
         Displacement        0.081973       0.001200      NO
         Energy change     -0.025288       0.000001      NO


 New Cartesian Coordinates Obtained by Inverse Iteration

 Displacement from previous Coordinates is:  0.931840
 Adding empirical dispersion correction 
 ----------------------------------------------------------------
 Doing -D3(op) with
 s6 =   1.00000
 s8 =   0.78311
 a1 =   0.30000
 a2 =   4.25000
 n  =  10.00000
 -D3 energy without 3body term =     -0.0279287811 hartrees
 ----------------------------------------------------------------
             Standard Nuclear Orientation (Angstroms)
    I     Atom           X                Y                Z
 ----------------------------------------------------------------
    1      C       0.4032220362    -0.9470807902     0.0443655060
    2      C      -0.8253178292    -0.2430279491    -0.0215338230
    3      C       1.6939060779    -0.1409443019    -0.1475515294
    4      C      -0.8093836860     1.2930567853    -0.2190541761
    5      O       2.8256787368    -0.9316828011     0.2056542177
    6      O       1.7588078031     1.0358334864    -0.5882110145
    7      O      -0.3677524485     1.8986580630     0.9945224410
    8      O      -1.2033484815     1.9262083928    -1.2276352464
    9      C      -0.3173649392     3.3632952008     0.8154213554
   10      C       4.0600039466    -0.1518428935    -0.0126737169
   11      C       0.4099080069    -2.3562983017     0.1700119092
   12      C      -0.8096130948    -3.0533584913     0.2444307075
   13      C      -2.0318500813    -2.3517037387     0.1736669944
   14      C      -2.0597189408    -0.9442738655     0.0321938849
   15      H       0.3658432197     3.6498406180    -0.0110005203
   16      H       4.1978398464     0.1044697933    -1.0842823892
   17      H      -2.9811499067    -2.9033574387     0.2214097112
   18      H      -1.3227211239     3.7854102340     0.6056525048
   19      H       0.0635662532     3.7704558404     1.7708167186
   20      H       4.8905769976    -0.8017393061     0.3216546949
   21      H       4.0636449823     0.7888081062     0.5765764379
   22      H      -0.8111071875    -4.1473444285     0.3461406007
   23      H       1.3693739121    -2.8907846720     0.2018305090
   24      C      -3.3984391160    -0.1918216046    -0.0670467465
   25      H      -3.4975304451     0.2921957237    -1.0534887807
   26      H      -3.4654406262     0.5939429266     0.7037288777
   27      H      -4.2395375560    -0.8882336756     0.0692350381
 ----------------------------------------------------------------
 Molecular Point Group                 C1    NOp =  1
 Largest Abelian Subgroup              C1    NOp =  1
 Nuclear Repulsion Energy =   991.0312701778 hartrees
 There are       55 alpha and       55 beta electrons
 Applying Cartesian multipole field
    Component          Value
    ---------          -----
     (2,0,0)        1.00000E-11
     (0,2,0)        2.00000E-11
     (0,0,2)       -3.00000E-11
 Nucleus-field energy     =     0.0000000389 hartrees
 Requested basis set is STO-3G
 There are 42 shells and 87 basis functions
 A cutoff of  1.0D-12 yielded    760 shell pairs
 There are      3682 function pairs
 Smallest overlap matrix eigenvalue = 1.82E-01
 Guess MOs from SCF MO coefficient file
 Reading MOs from coefficient file
 Reading MOs from coefficient file
 A restricted hybrid HF-DFT SCF calculation will be
 performed using Pulay DIIS extrapolation
 Exchange:     0.2000 Hartree-Fock + 0.0800 Slater + 0.7200 B88
 Correlation:  0.1900 VWN1RPA + 0.8100 LYP
 Using SG-1 standard quadrature grid
 Dispersion:   Grimme D3
 SCF converges when DIIS error is below 1.0E-08
 Geometry optimization detected.  Setting ReadMinima to 0
 Setting SaveMinima to 0
 -------------------------------------------------------
 OpenMP Integral computing Module                
 Release: version 1.0, May 2013, Q-Chem Inc. Pittsburgh 
 -------------------------------------------------------
 -------------------------------------------------------
 OpenMP BLAS3 based DFT computing Module                
 Release: version 1.0, May 2013, Q-Chem Inc. Pittsburgh 
 -------------------------------------------------------
 ---------------------------------------
  Cycle       Energy         DIIS Error
 ---------------------------------------
    1    -717.8786807372      6.03E-03
    2    -717.9528482608      1.10E-03
    3    -717.9496698230      2.09E-03
    4    -717.9542738745      3.74E-04
    5    -717.9544216059      1.34E-04
    6    -717.9544414615      3.63E-05
    7    -717.9544430261      1.18E-05
    8    -717.9544432092      4.03E-06
    9    -717.9544432270      1.73E-06
   10    -717.9544432299      6.12E-07
   11    -717.9544432304      9.51E-08
   12    -717.9544432304      3.59E-08
   13    -717.9544432304      1.32E-08
   14    -717.9544432304      2.60E-09 Convergence criterion met
 ---------------------------------------
 SCF time:  CPU 51.64 s  wall 2.18 s
 SCF   energy in the final basis set = -717.9544432304
 Total energy in the final basis set = -717.9544432304
 
 --------------------------------------------------------------
 
                    Orbital Energies (a.u.)
 --------------------------------------------------------------
 
 Alpha MOs
 -- Occupied --
-18.943 -18.929 -18.877 -18.867 -10.106 -10.098 -10.068 -10.058
-10.027 -10.027 -10.024 -10.020 -10.016 -10.015 -10.014  -1.016
 -1.004  -0.939  -0.929  -0.816  -0.735  -0.720  -0.673  -0.656
 -0.645  -0.586  -0.562  -0.507  -0.496  -0.458  -0.439  -0.425
 -0.416  -0.412  -0.404  -0.387  -0.379  -0.373  -0.367  -0.359
 -0.349  -0.341  -0.332  -0.311  -0.308  -0.295  -0.286  -0.261
 -0.250  -0.197  -0.192  -0.182  -0.170  -0.156  -0.146
 -- Virtual --
  0.044   0.072   0.115   0.137   0.239   0.250   0.276   0.319
  0.339   0.351   0.368   0.389   0.413   0.419   0.422   0.427
  0.429   0.435   0.437   0.440   0.446   0.454   0.461   0.474
  0.542   0.558   0.565   0.587   0.645   0.655   0.754   0.772
 --------------------------------------------------------------
 
          Ground-State Mulliken Net Atomic Charges

     Atom                 Charge (a.u.)
  ----------------------------------------
      1 C                    -0.017693
      2 C                    -0.014966
      3 C                     0.209305
      4 C                     0.215436
      5 O                    -0.166163
      6 O                    -0.209936
      7 O                    -0.167516
      8 O                    -0.210812
      9 C                    -0.126818
     10 C                    -0.125985
     11 C                    -0.074781
     12 C                    -0.076718
     13 C                    -0.075604
     14 C                     0.010507
     15 H                     0.093632
     16 H                     0.090065
     17 H                     0.080915
     18 H                     0.086070
     19 H                     0.088045
     20 H                     0.091443
     21 H                     0.091333
     22 H                     0.083432
     23 H                     0.092727
     24 C                    -0.224778
     25 H                     0.092656
     26 H                     0.085259
     27 H                     0.080944
  ----------------------------------------
  Sum of atomic charges =     0.000000

 -----------------------------------------------------------------
                    Cartesian Multipole Moments
 -----------------------------------------------------------------
    Charge (ESU x 10^10)
                 0.0000
    Dipole Moment (Debye)
         X       0.5411      Y      -0.7448      Z       1.0128
       Tot       1.3687
    Quadrupole Moments (Debye-Ang)
        XX     -68.5091     XY       1.5893     YY     -74.1414
        XZ      -1.4809     YZ       3.8062     ZZ     -83.3651
    Octopole Moments (Debye-Ang^2)
       XXX      37.1323    XXY       2.0168    XYY      -1.2214
       YYY      27.1339    XXZ      -2.2629    XYZ      -0.7746
       YYZ       9.0360    XZZ       9.9778    YZZ       8.6657
       ZZZ     -11.5174
    Hexadecapole Moments (Debye-Ang^3)
      XXXX   -1855.8225   XXXY     -26.1039   XXYY    -611.4527
      XYYY     -26.4328   YYYY   -1514.2570   XXXZ       0.6257
      XXYZ       3.4407   XYYZ      -6.9315   YYYZ      14.2968
      XXZZ    -381.8977   XYZZ      -9.8965   YYZZ    -318.8176
      XZZZ      -0.6505   YZZZ       0.3238   ZZZZ    -193.4797
 -----------------------------------------------------------------
 Calculating analytic gradient of the SCF energy
 Gradient of SCF Energy
            1           2           3           4           5           6
    1  -0.0017848   0.0010907   0.0046674   0.0049706  -0.0006595  -0.0005291
    2  -0.0003360  -0.0010537  -0.0013184   0.0018736   0.0007100   0.0023751
    3   0.0026909   0.0018390   0.0020213   0.0061261  -0.0008349  -0.0021448
            7           8           9          10          11          12
    1  -0.0010643  -0.0021384  -0.0007820  -0.0045185   0.0001005   0.0003483
    2  -0.0007275   0.0020386  -0.0043055  -0.0006030   0.0002827  -0.0003918
    3  -0.0022427  -0.0033108  -0.0019140   0.0003471  -0.0014670   0.0000613
           13          14          15          16          17          18
    1  -0.0005826  -0.0001020   0.0002912   0.0002104  -0.0003097  -0.0006496
    2   0.0003896   0.0006411   0.0005683   0.0001702   0.0000374   0.0002552
    3   0.0000300  -0.0007524  -0.0005123  -0.0006674  -0.0001405  -0.0000187
           19          20          21          22          23          24
    1   0.0003459   0.0001248   0.0004359   0.0001966   0.0002894   0.0007829
    2  -0.0005180  -0.0005837   0.0006416  -0.0001832  -0.0002960   0.0008110
    3   0.0005908   0.0003277   0.0002527   0.0001095  -0.0002549  -0.0003658
           25          26          27
    1  -0.0002760  -0.0002349  -0.0002233
    2  -0.0001190   0.0000652  -0.0004239
    3  -0.0002807   0.0002518   0.0002587
 Max gradient component =       6.126E-03
 RMS gradient           =       1.578E-03
 Gradient time:  CPU 12.51 s  wall 0.52 s
 Geometry Optimization Parameters
   NAtoms,    NIC,     NZ,  NCons,   NDum,   NFix, NCnnct, MaxDiis
       27     173       0       2       0       0       0       0

 Cartesian Hessian Update
 Hessian Updated using BFGS Update


** CONSTRAINED OPTIMIZATION IN DELOCALIZED INTERNAL COORDINATES **
   Searching for a Minimum

   Optimization Cycle:   3

                       Coordinates (Angstroms)
     ATOM                X               Y               Z
      1  C         0.4032220362   -0.9470807902    0.0443655060
      2  C        -0.8253178292   -0.2430279491   -0.0215338230
      3  C         1.6939060779   -0.1409443019   -0.1475515294
      4  C        -0.8093836860    1.2930567853   -0.2190541761
      5  O         2.8256787368   -0.9316828011    0.2056542177
      6  O         1.7588078031    1.0358334864   -0.5882110145
      7  O        -0.3677524485    1.8986580630    0.9945224410
      8  O        -1.2033484815    1.9262083928   -1.2276352464
      9  C        -0.3173649392    3.3632952008    0.8154213554
     10  C         4.0600039466   -0.1518428935   -0.0126737169
     11  C         0.4099080069   -2.3562983017    0.1700119092
     12  C        -0.8096130948   -3.0533584913    0.2444307075
     13  C        -2.0318500813   -2.3517037387    0.1736669944
     14  C        -2.0597189408   -0.9442738655    0.0321938849
     15  H         0.3658432197    3.6498406180   -0.0110005203
     16  H         4.1978398464    0.1044697933   -1.0842823892
     17  H        -2.9811499067   -2.9033574387    0.2214097112
     18  H        -1.3227211239    3.7854102340    0.6056525048
     19  H         0.0635662532    3.7704558404    1.7708167186
     20  H         4.8905769976   -0.8017393061    0.3216546949
     21  H         4.0636449823    0.7888081062    0.5765764379
     22  H        -0.8111071875   -4.1473444285    0.3461406007
     23  H         1.3693739121   -2.8907846720    0.2018305090
     24  C        -3.3984391160   -0.1918216046   -0.0670467465
     25  H        -3.4975304451    0.2921957237   -1.0534887807
     26  H        -3.4654406262    0.5939429266    0.7037288777
     27  H        -4.2395375560   -0.8882336756    0.0692350381
   Point Group: c1    Number of degrees of freedom:    75


   Energy is   -717.954443230

              Constraints and their Current Values
                                        Value     Constraint
   Dihedral:        2   1   3   5      168.593      168.600
   Dihedral:        1   2   4   7      -72.294      -72.300
 Hessian Updated using BFGS Update

   Using Lagrange Multiplier Algorithm


 68 Hessian modes will be used to form the next step
  Hessian Eigenvalues:
    -0.977819   -0.975860    0.041652    0.045000    0.045000    0.045000
     0.045000    0.045000    0.045000    0.045002    0.045004    0.045007
     0.045017    0.045085    0.045296    0.046815    0.093651    0.094214
     0.113283    0.113886    0.116885    0.116951    0.158805    0.159984
     0.159995    0.160000    0.161271    0.163761    0.220920    0.234528
     0.245232    0.248987    0.249324    0.249759    0.249932    0.249972
     0.250000    0.251340    0.285768    0.319339    0.336810    0.342281
     0.342636    0.342723    0.342881    0.343282    0.343760    0.343971
     0.344399    0.345418    0.348676    0.350323    0.350710    0.375840
     0.397508    0.410247    0.413630    0.422870    0.442470    0.451332
     0.463828    0.470088    0.484578    0.534979    0.959520    1.004394
     1.022745    1.046629

 Minimum Search - Taking P-RFO Step
 Searching for Lamda that Maximizes Along the Constraint modes Only
 Value Taken    Lamda =   0.00002265
 Searching for Lamda that Minimizes Along All other modes
 Value Taken    Lamda =  -0.00061416
 Step Taken.  Stepsize is  0.075950

                             Maximum     Tolerance    Cnvgd?
         Gradient            0.006113       0.000300      NO
         Displacement        0.035457       0.001200      NO
         Energy change     -0.003428       0.000001      NO


 New Cartesian Coordinates Obtained by Inverse Iteration

 Displacement from previous Coordinates is:  0.148183
 Adding empirical dispersion correction 
 ----------------------------------------------------------------
 Doing -D3(op) with
 s6 =   1.00000
 s8 =   0.78311
 a1 =   0.30000
 a2 =   4.25000
 n  =  10.00000
 -D3 energy without 3body term =     -0.0279076102 hartrees
 ----------------------------------------------------------------
             Standard Nuclear Orientation (Angstroms)
    I     Atom           X                Y                Z
 ----------------------------------------------------------------
    1      C       0.3978742025    -0.9463983894     0.0301309685
    2      C      -0.8348163041    -0.2436050909    -0.0325756772
    3      C       1.6896872983    -0.1421618225    -0.1553817038
    4      C      -0.8268854191     1.2947851742    -0.2270364918
    5      O       2.8281995920    -0.9348358941     0.1945506597
    6      O       1.7580378967     1.0423420216    -0.5708516214
    7      O      -0.3842445801     1.9079801238     0.9916098912
    8      O      -1.2060410214     1.9271031916    -1.2392931572
    9      C      -0.3103092704     3.3783310193     0.8202403520
   10      C       4.0715230930    -0.1558185878    -0.0118922818
   11      C       0.4079384163    -2.3546292028     0.1663874887
   12      C      -0.8088852861    -3.0550624796     0.2442926713
   13      C      -2.0323335492    -2.3581182151     0.1731513922
   14      C      -2.0656391446    -0.9513245912     0.0287924161
   15      H       0.3864135890     3.6523437323     0.0022156656
   16      H       4.2117251321     0.1114183768    -1.0794802708
   17      H      -2.9791364525    -2.9129348493     0.2277584638
   18      H      -1.3054470261     3.8145785764     0.5964204274
   19      H       0.0640123705     3.7816076895     1.7791886861
   20      H       4.9001716475    -0.8089038418     0.3185472262
   21      H       4.0705245857     0.7782592322     0.5858862878
   22      H      -0.8084472647    -4.1482902672     0.3519762144
   23      H       1.3696058567    -2.8837546662     0.2046440311
   24      C      -3.4071629229    -0.2026816295    -0.0643637374
   25      H      -3.5077859050     0.2825876101    -1.0497807526
   26      H      -3.4688872373     0.5842265679     0.7053018358
   27      H      -4.2475959409    -0.8983628768     0.0743951821
 ----------------------------------------------------------------
 Molecular Point Group                 C1    NOp =  1
 Largest Abelian Subgroup              C1    NOp =  1
 Nuclear Repulsion Energy =   989.3407817360 hartrees
 There are       55 alpha and       55 beta electrons
 Applying Cartesian multipole field
    Component          Value
    ---------          -----
     (2,0,0)        1.00000E-11
     (0,2,0)        2.00000E-11
     (0,0,2)       -3.00000E-11
 Nucleus-field energy     =     0.0000000390 hartrees
 Requested basis set is STO-3G
 There are 42 shells and 87 basis functions
 A cutoff of  1.0D-12 yielded    760 shell pairs
 There are      3682 function pairs
 Smallest overlap matrix eigenvalue = 1.82E-01
 Guess MOs from SCF MO coefficient file
 Reading MOs from coefficient file
 Reading MOs from coefficient file
 A restricted hybrid HF-DFT SCF calculation will be
 performed using Pulay DIIS extrapolation
 Exchange:     0.2000 Hartree-Fock + 0.0800 Slater + 0.7200 B88
 Correlation:  0.1900 VWN1RPA + 0.8100 LYP
 Using SG-1 standard quadrature grid
 Dispersion:   Grimme D3
 SCF converges when DIIS error is below 1.0E-08
 Geometry optimization detected.  Setting ReadMinima to 0
 Setting SaveMinima to 0
 -------------------------------------------------------
 OpenMP Integral computing Module                
 Release: version 1.0, May 2013, Q-Chem Inc. Pittsburgh 
 -------------------------------------------------------
 -------------------------------------------------------
 OpenMP BLAS3 based DFT computing Module                
 Release: version 1.0, May 2013, Q-Chem Inc. Pittsburgh 
 -------------------------------------------------------
 ---------------------------------------
  Cycle       Energy         DIIS Error
 ---------------------------------------
    1    -717.9493180754      1.28E-03
    2    -717.9546560273      2.81E-04
    3    -717.9543004503      6.33E-04
    4    -717.9547474118      5.59E-05
    5    -717.9547506722      1.81E-05
    6    -717.9547510123      5.59E-06
    7    -717.9547510465      2.73E-06
    8    -717.9547510543      1.06E-06
    9    -717.9547510553      4.28E-07
   10    -717.9547510555      6.25E-08
   11    -717.9547510555      1.97E-08
   12    -717.9547510555      7.45E-09 Convergence criterion met
 ---------------------------------------
 SCF time:  CPU 43.25 s  wall 1.82 s
 SCF   energy in the final basis set = -717.9547510555
 Total energy in the final basis set = -717.9547510555
 
 --------------------------------------------------------------
 
                    Orbital Energies (a.u.)
 --------------------------------------------------------------
 
 Alpha MOs
 -- Occupied --
-18.940 -18.927 -18.877 -18.869 -10.105 -10.099 -10.068 -10.057
-10.028 -10.028 -10.024 -10.020 -10.016 -10.016 -10.014  -1.014
 -1.001  -0.938  -0.928  -0.816  -0.735  -0.720  -0.673  -0.656
 -0.646  -0.587  -0.563  -0.507  -0.495  -0.457  -0.438  -0.425
 -0.415  -0.412  -0.403  -0.387  -0.379  -0.373  -0.367  -0.359
 -0.349  -0.342  -0.332  -0.312  -0.308  -0.295  -0.286  -0.259
 -0.248  -0.197  -0.192  -0.181  -0.169  -0.156  -0.147
 -- Virtual --
  0.044   0.072   0.114   0.137   0.238   0.246   0.272   0.318
  0.337   0.350   0.368   0.388   0.411   0.420   0.423   0.428
  0.430   0.436   0.438   0.441   0.447   0.453   0.462   0.474
  0.541   0.558   0.564   0.587   0.644   0.656   0.753   0.771
 --------------------------------------------------------------
 
          Ground-State Mulliken Net Atomic Charges

     Atom                 Charge (a.u.)
  ----------------------------------------
      1 C                    -0.017162
      2 C                    -0.014523
      3 C                     0.208279
      4 C                     0.214777
      5 O                    -0.166515
      6 O                    -0.209863
      7 O                    -0.167262
      8 O                    -0.209656
      9 C                    -0.128317
     10 C                    -0.127252
     11 C                    -0.074716
     12 C                    -0.076669
     13 C                    -0.075656
     14 C                     0.010714
     15 H                     0.093553
     16 H                     0.090040
     17 H                     0.081118
     18 H                     0.086051
     19 H                     0.088606
     20 H                     0.091813
     21 H                     0.091407
     22 H                     0.083629
     23 H                     0.093275
     24 C                    -0.225072
     25 H                     0.092532
     26 H                     0.085564
     27 H                     0.081308
  ----------------------------------------
  Sum of atomic charges =     0.000000

 -----------------------------------------------------------------
                    Cartesian Multipole Moments
 -----------------------------------------------------------------
    Charge (ESU x 10^10)
                 0.0000
    Dipole Moment (Debye)
         X       0.5108      Y      -0.7563      Z       1.0006
       Tot       1.3543
    Quadrupole Moments (Debye-Ang)
        XX     -68.4673     XY       1.6323     YY     -74.0678
        XZ      -1.4688     YZ       3.7488     ZZ     -83.3378
    Octopole Moments (Debye-Ang^2)
       XXX      37.9622    XXY       1.9377    XYY      -1.1417
       YYY      27.5182    XXZ      -2.0638    XYZ      -0.7716
       YYZ       9.5046    XZZ      10.3286    YZZ       8.6844
       ZZZ     -10.8006
    Hexadecapole Moments (Debye-Ang^3)
      XXXX   -1860.4447   XXXY     -26.7558   XXYY    -614.0352
      XYYY     -27.0285   YYYY   -1518.8521   XXXZ       0.4274
      XXYZ       2.6289   XYYZ      -6.9550   YYYZ      13.9616
      XXZZ    -383.2943   XYZZ      -9.8614   YYZZ    -319.9073
      XZZZ      -0.8669   YZZZ      -0.1899   ZZZZ    -193.8844
 -----------------------------------------------------------------
 Calculating analytic gradient of the SCF energy
 Gradient of SCF Energy
            1           2           3           4           5           6
    1  -0.0007474  -0.0002060  -0.0001339   0.0005704  -0.0003956  -0.0002004
    2  -0.0005650  -0.0005948  -0.0014400  -0.0012510   0.0005202   0.0011161
    3   0.0019492   0.0007820  -0.0002311   0.0009194   0.0000979  -0.0006764
            7           8           9          10          11          12
    1   0.0000203  -0.0006546   0.0004337   0.0011007   0.0000657   0.0000694
    2   0.0000873   0.0008331   0.0009890  -0.0003108  -0.0003009   0.0002463
    3  -0.0008815  -0.0012012   0.0010004   0.0003068  -0.0009028  -0.0001646
           13          14          15          16          17          18
    1   0.0000822  -0.0001066  -0.0002834  -0.0000028  -0.0000794   0.0000988
    2   0.0000898  -0.0001331   0.0000375   0.0001338   0.0000198   0.0000324
    3  -0.0000224  -0.0006232  -0.0001073   0.0000300  -0.0000135  -0.0000589
           19          20          21          22          23          24
    1   0.0001562   0.0002834   0.0000098  -0.0000202   0.0000227  -0.0003079
    2   0.0003288   0.0000803   0.0000254  -0.0000407   0.0000207   0.0001085
    3   0.0000157  -0.0000054  -0.0001705   0.0000522  -0.0000501  -0.0000512
           25          26          27
    1   0.0000783   0.0001307   0.0000156
    2  -0.0000329   0.0000887  -0.0000886
    3  -0.0000281  -0.0000841   0.0001188
 Max gradient component =       1.949E-03
 RMS gradient           =       5.171E-04
 Gradient time:  CPU 12.33 s  wall 0.52 s
 Geometry Optimization Parameters
   NAtoms,    NIC,     NZ,  NCons,   NDum,   NFix, NCnnct, MaxDiis
       27     173       0       2       0       0       0       0

 Cartesian Hessian Update
 Hessian Updated using BFGS Update


** CONSTRAINED OPTIMIZATION IN DELOCALIZED INTERNAL COORDINATES **
   Searching for a Minimum

   Optimization Cycle:   4

                       Coordinates (Angstroms)
     ATOM                X               Y               Z
      1  C         0.3978742025   -0.9463983894    0.0301309685
      2  C        -0.8348163041   -0.2436050909   -0.0325756772
      3  C         1.6896872983   -0.1421618225   -0.1553817038
      4  C        -0.8268854191    1.2947851742   -0.2270364918
      5  O         2.8281995920   -0.9348358941    0.1945506597
      6  O         1.7580378967    1.0423420216   -0.5708516214
      7  O        -0.3842445801    1.9079801238    0.9916098912
      8  O        -1.2060410214    1.9271031916   -1.2392931572
      9  C        -0.3103092704    3.3783310193    0.8202403520
     10  C         4.0715230930   -0.1558185878   -0.0118922818
     11  C         0.4079384163   -2.3546292028    0.1663874887
     12  C        -0.8088852861   -3.0550624796    0.2442926713
     13  C        -2.0323335492   -2.3581182151    0.1731513922
     14  C        -2.0656391446   -0.9513245912    0.0287924161
     15  H         0.3864135890    3.6523437323    0.0022156656
     16  H         4.2117251321    0.1114183768   -1.0794802708
     17  H        -2.9791364525   -2.9129348493    0.2277584638
     18  H        -1.3054470261    3.8145785764    0.5964204274
     19  H         0.0640123705    3.7816076895    1.7791886861
     20  H         4.9001716475   -0.8089038418    0.3185472262
     21  H         4.0705245857    0.7782592322    0.5858862878
     22  H        -0.8084472647   -4.1482902672    0.3519762144
     23  H         1.3696058567   -2.8837546662    0.2046440311
     24  C        -3.4071629229   -0.2026816295   -0.0643637374
     25  H        -3.5077859050    0.2825876101   -1.0497807526
     26  H        -3.4688872373    0.5842265679    0.7053018358
     27  H        -4.2475959409   -0.8983628768    0.0743951821
   Point Group: c1    Number of degrees of freedom:    75


   Energy is   -717.954751056

              Constraints and their Current Values
                                        Value     Constraint
   Dihedral:        2   1   3   5      168.600      168.600
   Dihedral:        1   2   4   7      -72.300      -72.300
 Hessian Updated using BFGS Update

   Using Lagrange Multiplier Algorithm


 71 Hessian modes will be used to form the next step
  Hessian Eigenvalues:
    -0.977653   -0.974495    0.031957    0.045000    0.045000    0.045000
     0.045000    0.045000    0.045000    0.045001    0.045003    0.045007
     0.045016    0.045042    0.045195    0.045312    0.047800    0.093934
     0.094216    0.113881    0.114690    0.116871    0.116953    0.158633
     0.159984    0.159995    0.160000    0.160130    0.161311    0.164249
     0.220823    0.234352    0.242742    0.248992    0.249418    0.249637
     0.249925    0.249985    0.249999    0.250000    0.251115    0.299546
     0.319295    0.336331    0.342242    0.342646    0.342730    0.342887
     0.343380    0.343837    0.343947    0.344434    0.348178    0.349347
     0.350403    0.352254    0.372992    0.408575    0.411966    0.413663
     0.441703    0.450901    0.458181    0.464284    0.470330    0.531941
     0.557412    0.959205    0.986309    1.023052    1.038493

 Minimum Search - Taking P-RFO Step
 Searching for Lamda that Maximizes Along the Constraint modes Only
 Value Taken    Lamda =   0.00000070
 Searching for Lamda that Minimizes Along All other modes
 Value Taken    Lamda =  -0.00010557
 Step Taken.  Stepsize is  0.043017

                             Maximum     Tolerance    Cnvgd?
         Gradient            0.002736       0.000300      NO
         Displacement        0.018301       0.001200      NO
         Energy change     -0.000308       0.000001      NO


 New Cartesian Coordinates Obtained by Inverse Iteration

 Displacement from previous Coordinates is:  0.075288
 Adding empirical dispersion correction 
 ----------------------------------------------------------------
 Doing -D3(op) with
 s6 =   1.00000
 s8 =   0.78311
 a1 =   0.30000
 a2 =   4.25000
 n  =  10.00000
 -D3 energy without 3body term =     -0.0279074626 hartrees
 ----------------------------------------------------------------
             Standard Nuclear Orientation (Angstroms)
    I     Atom           X                Y                Z
 ----------------------------------------------------------------
    1      C       0.3986616000    -0.9414582689     0.0191605582
    2      C      -0.8356668409    -0.2405297193    -0.0426516791
    3      C       1.6917970151    -0.1393201667    -0.1583613415
    4      C      -0.8317164432     1.2979604114    -0.2301700099
    5      O       2.8263159294    -0.9387516881     0.1916038882
    6      O       1.7676077968     1.0465850798    -0.5663596114
    7      O      -0.3922926530     1.9049141435     0.9937620190
    8      O      -1.2060415859     1.9346694271    -1.2401963031
    9      C      -0.3126555991     3.3744090297     0.8203260120
   10      C       4.0699321474    -0.1600857834    -0.0123091902
   11      C       0.4097804874    -2.3489288397     0.1649052526
   12      C      -0.8055531167    -3.0517349918     0.2459748002
   13      C      -2.0298806197    -2.3570720283     0.1729988244
   14      C      -2.0650706158    -0.9505196623     0.0253345099
   15      H       0.3943913336     3.6443514125     0.0097147334
   16      H       4.2111539739     0.1094596959    -1.0791215110
   17      H      -2.9755986102    -2.9130953724     0.2325263684
   18      H      -1.3041250362     3.8137693935     0.5864172090
   19      H       0.0530669319     3.7763536346     1.7828146779
   20      H       4.8963150119    -0.8162274152     0.3168475636
   21      H       4.0693676945     0.7716818778     0.5891048275
   22      H      -0.8032550054    -4.1443722403     0.3591398973
   23      H       1.3722461126    -2.8761148100     0.2083046859
   24      C      -3.4079605469    -0.2034867279    -0.0628476855
   25      H      -3.5131899477     0.2819321609    -1.0477250689
   26      H      -3.4679639584     0.5835682091     0.7068400277
   27      H      -4.2475690995    -0.8992758496     0.0788007115
 ----------------------------------------------------------------
 Molecular Point Group                 C1    NOp =  1
 Largest Abelian Subgroup              C1    NOp =  1
 Nuclear Repulsion Energy =   989.3870980435 hartrees
 There are       55 alpha and       55 beta electrons
 Applying Cartesian multipole field
    Component          Value
    ---------          -----
     (2,0,0)        1.00000E-11
     (0,2,0)        2.00000E-11
     (0,0,2)       -3.00000E-11
 Nucleus-field energy     =     0.0000000390 hartrees
 Requested basis set is STO-3G
 There are 42 shells and 87 basis functions
 A cutoff of  1.0D-12 yielded    760 shell pairs
 There are      3682 function pairs
 Smallest overlap matrix eigenvalue = 1.82E-01
 Guess MOs from SCF MO coefficient file
 Reading MOs from coefficient file
 Reading MOs from coefficient file
 A restricted hybrid HF-DFT SCF calculation will be
 performed using Pulay DIIS extrapolation
 Exchange:     0.2000 Hartree-Fock + 0.0800 Slater + 0.7200 B88
 Correlation:  0.1900 VWN1RPA + 0.8100 LYP
 Using SG-1 standard quadrature grid
 Dispersion:   Grimme D3
 SCF converges when DIIS error is below 1.0E-08
 Geometry optimization detected.  Setting ReadMinima to 0
 Setting SaveMinima to 0
 -------------------------------------------------------
 OpenMP Integral computing Module                
 Release: version 1.0, May 2013, Q-Chem Inc. Pittsburgh 
 -------------------------------------------------------
 -------------------------------------------------------
 OpenMP BLAS3 based DFT computing Module                
 Release: version 1.0, May 2013, Q-Chem Inc. Pittsburgh 
 -------------------------------------------------------
 ---------------------------------------
  Cycle       Energy         DIIS Error
 ---------------------------------------
    1    -717.9549817447      5.44E-04
    2    -717.9548113870      4.68E-05
    3    -717.9548049908      9.45E-05
    4    -717.9548148249      1.46E-05
    5    -717.9548149990      7.46E-06
    6    -717.9548150608      1.49E-06
    7    -717.9548150633      5.11E-07
    8    -717.9548150636      2.47E-07
    9    -717.9548150637      1.12E-07
   10    -717.9548150637      3.77E-08
   11    -717.9548150637      8.46E-09 Convergence criterion met
 ---------------------------------------
 SCF time:  CPU 41.08 s  wall 1.73 s
 SCF   energy in the final basis set = -717.9548150637
 Total energy in the final basis set = -717.9548150637
 
 --------------------------------------------------------------
 
                    Orbital Energies (a.u.)
 --------------------------------------------------------------
 
 Alpha MOs
 -- Occupied --
-18.940 -18.927 -18.877 -18.870 -10.105 -10.099 -10.067 -10.057
-10.028 -10.028 -10.025 -10.020 -10.016 -10.016 -10.014  -1.014
 -1.002  -0.938  -0.929  -0.816  -0.735  -0.720  -0.672  -0.656
 -0.646  -0.587  -0.563  -0.507  -0.495  -0.457  -0.438  -0.425
 -0.415  -0.413  -0.403  -0.387  -0.379  -0.373  -0.367  -0.359
 -0.349  -0.342  -0.332  -0.312  -0.308  -0.295  -0.287  -0.260
 -0.249  -0.197  -0.192  -0.181  -0.169  -0.156  -0.147
 -- Virtual --
  0.043   0.072   0.114   0.137   0.238   0.247   0.273   0.318
  0.337   0.349   0.368   0.387   0.411   0.420   0.423   0.428
  0.430   0.436   0.437   0.441   0.447   0.453   0.462   0.474
  0.541   0.558   0.564   0.587   0.645   0.656   0.753   0.771
 --------------------------------------------------------------
 
          Ground-State Mulliken Net Atomic Charges

     Atom                 Charge (a.u.)
  ----------------------------------------
      1 C                    -0.017252
      2 C                    -0.014556
      3 C                     0.208239
      4 C                     0.214914
      5 O                    -0.166554
      6 O                    -0.210135
      7 O                    -0.166901
      8 O                    -0.209277
      9 C                    -0.128503
     10 C                    -0.127383
     11 C                    -0.074598
     12 C                    -0.076728
     13 C                    -0.075645
     14 C                     0.010729
     15 H                     0.093574
     16 H                     0.089997
     17 H                     0.081157
     18 H                     0.086194
     19 H                     0.088510
     20 H                     0.091634
     21 H                     0.091398
     22 H                     0.083673
     23 H                     0.093393
     24 C                    -0.225145
     25 H                     0.092341
     26 H                     0.085561
     27 H                     0.081362
  ----------------------------------------
  Sum of atomic charges =     0.000000

 -----------------------------------------------------------------
                    Cartesian Multipole Moments
 -----------------------------------------------------------------
    Charge (ESU x 10^10)
                 0.0000
    Dipole Moment (Debye)
         X       0.4897      Y      -0.7627      Z       1.0004
       Tot       1.3499
    Quadrupole Moments (Debye-Ang)
        XX     -68.5392     XY       1.6036     YY     -74.1343
        XZ      -1.4602     YZ       3.7162     ZZ     -83.3218
    Octopole Moments (Debye-Ang^2)
       XXX      37.5591    XXY       1.7749    XYY      -1.1961
       YYY      27.0372    XXZ      -1.9346    XYZ      -0.7557
       YYZ       9.7153    XZZ      10.3490    YZZ       8.5675
       ZZZ     -10.4451
    Hexadecapole Moments (Debye-Ang^3)
      XXXX   -1862.7689   XXXY     -26.0220   XXYY    -613.8852
      XYYY     -25.9457   YYYY   -1517.9915   XXXZ       0.6370
      XXYZ       2.4651   XYYZ      -6.9679   YYYZ      13.6719
      XXZZ    -383.3302   XYZZ      -9.4342   YYZZ    -319.5922
      XZZZ      -0.6417   YZZZ      -0.0519   ZZZZ    -193.9878
 -----------------------------------------------------------------
 Calculating analytic gradient of the SCF energy
 Gradient of SCF Energy
            1           2           3           4           5           6
    1   0.0001682  -0.0002050  -0.0000816  -0.0002974  -0.0001751   0.0000607
    2  -0.0002580   0.0001321  -0.0004329  -0.0000287  -0.0002172   0.0002420
    3   0.0009797   0.0004414  -0.0003944  -0.0004644   0.0005054  -0.0003650
            7           8           9          10          11          12
    1   0.0003398  -0.0002159   0.0001721   0.0007064   0.0000457  -0.0001129
    2   0.0000858   0.0000110   0.0006080   0.0001768  -0.0001383   0.0000468
    3   0.0005091  -0.0000851   0.0002278  -0.0000733  -0.0005074  -0.0001210
           13          14          15          16          17          18
    1   0.0001412  -0.0000430  -0.0001020  -0.0000086   0.0000140  -0.0000078
    2  -0.0001337  -0.0001832  -0.0000324   0.0000142  -0.0000198   0.0000485
    3  -0.0001194  -0.0004091  -0.0001256  -0.0000027   0.0000393   0.0000404
           19          20          21          22          23          24
    1   0.0000673  -0.0000942  -0.0000964  -0.0000738  -0.0000213  -0.0003423
    2  -0.0000183   0.0000051   0.0000039  -0.0000309   0.0000231  -0.0001107
    3  -0.0001151  -0.0000254  -0.0000221   0.0000243   0.0000465   0.0000824
           25          26          27
    1   0.0000328   0.0000753   0.0000535
    2  -0.0000074   0.0001191   0.0000951
    3  -0.0000110  -0.0001214   0.0000660
 Max gradient component =       9.797E-04
 RMS gradient           =       2.421E-04
 Gradient time:  CPU 12.49 s  wall 0.52 s
 Geometry Optimization Parameters
   NAtoms,    NIC,     NZ,  NCons,   NDum,   NFix, NCnnct, MaxDiis
       27     173       0       2       0       0       0       0

 Cartesian Hessian Update
 Hessian Updated using BFGS Update


** CONSTRAINED OPTIMIZATION IN DELOCALIZED INTERNAL COORDINATES **
   Searching for a Minimum

   Optimization Cycle:   5

                       Coordinates (Angstroms)
     ATOM                X               Y               Z
      1  C         0.3986616000   -0.9414582689    0.0191605582
      2  C        -0.8356668409   -0.2405297193   -0.0426516791
      3  C         1.6917970151   -0.1393201667   -0.1583613415
      4  C        -0.8317164432    1.2979604114   -0.2301700099
      5  O         2.8263159294   -0.9387516881    0.1916038882
      6  O         1.7676077968    1.0465850798   -0.5663596114
      7  O        -0.3922926530    1.9049141435    0.9937620190
      8  O        -1.2060415859    1.9346694271   -1.2401963031
      9  C        -0.3126555991    3.3744090297    0.8203260120
     10  C         4.0699321474   -0.1600857834   -0.0123091902
     11  C         0.4097804874   -2.3489288397    0.1649052526
     12  C        -0.8055531167   -3.0517349918    0.2459748002
     13  C        -2.0298806197   -2.3570720283    0.1729988244
     14  C        -2.0650706158   -0.9505196623    0.0253345099
     15  H         0.3943913336    3.6443514125    0.0097147334
     16  H         4.2111539739    0.1094596959   -1.0791215110
     17  H        -2.9755986102   -2.9130953724    0.2325263684
     18  H        -1.3041250362    3.8137693935    0.5864172090
     19  H         0.0530669319    3.7763536346    1.7828146779
     20  H         4.8963150119   -0.8162274152    0.3168475636
     21  H         4.0693676945    0.7716818778    0.5891048275
     22  H        -0.8032550054   -4.1443722403    0.3591398973
     23  H         1.3722461126   -2.8761148100    0.2083046859
     24  C        -3.4079605469   -0.2034867279   -0.0628476855
     25  H        -3.5131899477    0.2819321609   -1.0477250689
     26  H        -3.4679639584    0.5835682091    0.7068400277
     27  H        -4.2475690995   -0.8992758496    0.0788007115
   Point Group: c1    Number of degrees of freedom:    75


   Energy is   -717.954815064

              Constraints and their Current Values
                                        Value     Constraint
   Dihedral:        2   1   3   5      168.600      168.600
   Dihedral:        1   2   4   7      -72.300      -72.300
 Hessian Updated using BFGS Update

 64 Hessian modes will be used to form the next step
  Hessian Eigenvalues:
     0.017486    0.044872    0.045000    0.045000    0.045001    0.045002
     0.045007    0.045013    0.045024    0.045134    0.045425    0.047614
     0.093811    0.094223    0.113879    0.114245    0.116881    0.116956
     0.159060    0.159854    0.159989    0.159995    0.160903    0.162465
     0.164271    0.221275    0.234106    0.244245    0.245947    0.249167
     0.249459    0.249874    0.249990    0.250000    0.251096    0.267281
     0.318885    0.328309    0.336944    0.342441    0.342664    0.342741
     0.342886    0.343479    0.343839    0.344274    0.345769    0.348629
     0.349938    0.350518    0.354873    0.371851    0.409954    0.411958
     0.423711    0.443340    0.451299    0.460111    0.467884    0.470076
     0.507770    0.536869    0.960242    0.997737

 Minimum Search - Taking Simple RFO Step
 Searching for Lamda that Minimizes Along All modes
 Value Taken    Lamda =  -0.00006299
 Step Taken.  Stepsize is  0.054611

                             Maximum     Tolerance    Cnvgd?
         Gradient           0.000945      0.000300      NO
         Displacement       0.023870      0.001200      NO
         Energy change     -0.000064      0.000001      NO


 New Cartesian Coordinates Obtained by Inverse Iteration

 Displacement from previous Coordinates is:  0.110319
 Adding empirical dispersion correction 
 ----------------------------------------------------------------
 Doing -D3(op) with
 s6 =   1.00000
 s8 =   0.78311
 a1 =   0.30000
 a2 =   4.25000
 n  =  10.00000
 -D3 energy without 3body term =     -0.0279302607 hartrees
 ----------------------------------------------------------------
             Standard Nuclear Orientation (Angstroms)
    I     Atom           X                Y                Z
 ----------------------------------------------------------------
    1      C       0.3966045848    -0.9385340376     0.0038761621
    2      C      -0.8384376984    -0.2404815390    -0.0570449626
    3      C       1.6885826463    -0.1339227197    -0.1639988688
    4      C      -0.8344147673     1.2973779344    -0.2386289870
    5      O       2.8217601110    -0.9363248068     0.1849472847
    6      O       1.7662979993     1.0554286420    -0.5597046844
    7      O      -0.3968060628     1.8958363084     0.9898787012
    8      O      -1.2008514010     1.9402826817    -1.2469065948
    9      C      -0.3053203759     3.3645233104     0.8202858010
   10      C       4.0653776929    -0.1565515765    -0.0099243115
   11      C       0.4098203934    -2.3446839120     0.1614890305
   12      C      -0.8041500244    -3.0490774627     0.2493458404
   13      C      -2.0298141850    -2.3565220296     0.1753505705
   14      C      -2.0666562861    -0.9507664560     0.0213316111
   15      H       0.4160081297     3.6314146746     0.0213210519
   16      H       4.2097821460     0.1197625717    -1.0745367875
   17      H      -2.9748442770    -2.9128804783     0.2422052088
   18      H      -1.2903939920     3.8108653721     0.5732521707
   19      H       0.0488413857     3.7619091707     1.7890990520
   20      H       4.8907784673    -0.8152693344     0.3169256970
   21      H       4.0641916723     0.7709379934     0.5980270594
   22      H      -0.7993885478    -4.1408160725     0.3702128695
   23      H       1.3732611372    -2.8697617335     0.2095060238
   24      C      -3.4102507887    -0.2048388606    -0.0608044911
   25      H      -3.5218503760     0.2798860738    -1.0453411536
   26      H      -3.4674974570     0.5822874527     0.7091040538
   27      H      -4.2485337705    -0.9014002549     0.0855668191
 ----------------------------------------------------------------
 Molecular Point Group                 C1    NOp =  1
 Largest Abelian Subgroup              C1    NOp =  1
 Nuclear Repulsion Energy =   989.9515079685 hartrees
 There are       55 alpha and       55 beta electrons
 Applying Cartesian multipole field
    Component          Value
    ---------          -----
     (2,0,0)        1.00000E-11
     (0,2,0)        2.00000E-11
     (0,0,2)       -3.00000E-11
 Nucleus-field energy     =     0.0000000389 hartrees
 Requested basis set is STO-3G
[...]
 IR Intens:       10.596                  3.173                 10.175
 Raman Active:       YES                    YES                    YES
               X      Y      Z        X      Y      Z        X      Y      Z
 C         -0.004 -0.007  0.001    0.074  0.007 -0.000    0.225  0.011  0.000
 C          0.003  0.002 -0.000   -0.034  0.057 -0.007   -0.310 -0.055 -0.000
 C          0.012 -0.001  0.001   -0.026 -0.002  0.000   -0.036 -0.024  0.007
 C         -0.001 -0.001 -0.000    0.005 -0.018 -0.008    0.030  0.011 -0.019
 O         -0.002 -0.017  0.004    0.002 -0.000  0.000   -0.005  0.002 -0.001
 O         -0.004  0.006 -0.002    0.003 -0.001  0.000    0.005  0.012 -0.003
 O         -0.000  0.000 -0.001   -0.001  0.004  0.002   -0.003  0.003  0.003
 O          0.000  0.000  0.000    0.001 -0.001  0.003   -0.003 -0.008  0.013
 C         -0.001  0.002 -0.005   -0.002  0.006 -0.001   -0.001  0.000  0.001
 C         -0.007 -0.054  0.014    0.006  0.005 -0.001    0.003  0.001  0.000
 C         -0.003  0.002 -0.000   -0.030 -0.064  0.008   -0.237 -0.176  0.020
 C          0.008  0.003 -0.000   -0.028  0.038 -0.005    0.401  0.074 -0.006
 C         -0.000 -0.006  0.001    0.043 -0.010  0.001   -0.210  0.021 -0.005
 C         -0.003  0.002  0.000   -0.029 -0.068  0.012    0.226  0.127 -0.011
 H          0.046 -0.021  0.044    0.030 -0.029  0.020   -0.004 -0.015 -0.010
 H          0.088  0.624  0.261   -0.028 -0.032 -0.017   -0.002 -0.010 -0.005
 H         -0.017  0.016 -0.003   -0.064  0.145 -0.019   -0.072 -0.197  0.023
 H         -0.031 -0.031  0.045   -0.023 -0.046  0.010    0.000  0.010  0.001
 H          0.007  0.027 -0.013    0.019 -0.011  0.003   -0.009 -0.006  0.004
 H         -0.133 -0.164  0.031   -0.014 -0.018  0.002    0.009  0.005 -0.002
 H          0.123  0.423 -0.526   -0.032 -0.019  0.027   -0.003 -0.006  0.008
 H         -0.027  0.000 -0.000    0.092  0.057 -0.006   -0.529 -0.005 -0.004
 H         -0.004  0.004 -0.000    0.102  0.225 -0.026   -0.024  0.338 -0.039
 C         -0.002 -0.002  0.002   -0.032 -0.018  0.012   -0.028 -0.011  0.001
 H         -0.003  0.025  0.011    0.042  0.498  0.187    0.015 -0.065 -0.023
 H          0.019  0.026 -0.028    0.097  0.378 -0.425    0.064 -0.041  0.050
 H          0.019 -0.026 -0.013    0.335 -0.364  0.018   -0.131  0.084 -0.039
 TransDip  -0.079  0.066 -0.013   -0.006  0.047 -0.032   -0.073 -0.072 -0.002

 Mode:                61                     62                     63
 Frequency:      1629.99                1766.64                1787.65
 Force Cnst:      9.0520                21.5810                22.3275
 Red. Mass:       5.7826                11.7361                11.8584
 IR Active:          YES                    YES                    YES
 IR Intens:        9.939                249.897                272.647
 Raman Active:       YES                    YES                    YES
               X      Y      Z        X      Y      Z        X      Y      Z
 C          0.092 -0.259  0.034   -0.008 -0.116  0.018    0.011  0.004 -0.001
 C         -0.081  0.152 -0.018   -0.026  0.040 -0.007   -0.030  0.078 -0.029
 C         -0.018 -0.034  0.012    0.031  0.760 -0.190   -0.010 -0.056  0.014
 C          0.001 -0.020 -0.032    0.029 -0.013  0.048    0.229 -0.383  0.646
 O         -0.003 -0.004  0.001    0.012 -0.051  0.014    0.001  0.004 -0.001
 O          0.008  0.044 -0.012   -0.002 -0.478  0.123    0.001  0.036 -0.012
 O          0.000  0.004  0.004   -0.006 -0.004 -0.006   -0.015  0.008 -0.049
 O          0.005 -0.008  0.020   -0.013  0.011 -0.029   -0.147  0.225 -0.431
 C         -0.001  0.004  0.001    0.001 -0.002 -0.001    0.004 -0.029  0.009
 C         -0.001  0.001 -0.000    0.024  0.023 -0.005   -0.002 -0.002  0.001
 C          0.060  0.281 -0.035   -0.026  0.015 -0.001    0.001 -0.005  0.003
 C          0.059 -0.161  0.021    0.038 -0.003  0.000    0.007 -0.002 -0.000
 C         -0.177  0.307 -0.042   -0.021  0.017 -0.002   -0.013  0.007  0.001
 C          0.060 -0.273  0.036    0.017 -0.015  0.002    0.016 -0.013  0.007
 H          0.001 -0.015 -0.008    0.016 -0.020  0.009   -0.014  0.110  0.090
 H          0.013  0.001  0.001   -0.144  0.027 -0.040    0.012 -0.002  0.004
 H          0.336 -0.399  0.061    0.010 -0.028  0.005    0.017 -0.030  0.003
 H         -0.003 -0.011 -0.008   -0.003 -0.000  0.023    0.039  0.107  0.094
 H          0.003 -0.015  0.008   -0.010  0.013 -0.006   -0.026  0.215 -0.068
 H          0.004  0.005 -0.002   -0.172 -0.172  0.037    0.012  0.012 -0.004
 H          0.009 -0.001 -0.000   -0.145  0.039  0.010    0.010 -0.002 -0.002
 H         -0.025 -0.193  0.027   -0.041 -0.011  0.001   -0.003 -0.004 -0.003
 H         -0.227 -0.339  0.037   -0.052 -0.011  0.002   -0.001 -0.009  0.005
 C         -0.018  0.022 -0.003   -0.003  0.002 -0.000    0.003  0.007 -0.001
 H         -0.046  0.141  0.049    0.002  0.006 -0.000   -0.071 -0.054 -0.004
 H         -0.089  0.101 -0.109    0.008  0.009 -0.003    0.013 -0.020  0.026
 H          0.127 -0.111  0.036    0.012 -0.013 -0.001   -0.029  0.020 -0.047
 TransDip   0.056 -0.082 -0.017   -0.003  0.499 -0.084    0.154 -0.175  0.475

 Mode:                64                     65                     66
 Frequency:      3035.23                3050.09                3050.35
 Force Cnst:      5.6246                 5.6417                 5.6442
 Red. Mass:       1.0362                 1.0293                 1.0296
 IR Active:          YES                    YES                    YES
 IR Intens:       18.060                 30.658                 42.871
 Raman Active:       YES                    YES                    YES
               X      Y      Z        X      Y      Z        X      Y      Z
 C         -0.000  0.000 -0.000   -0.000  0.000 -0.000    0.000 -0.000  0.000
 C          0.001  0.000 -0.000    0.000  0.000  0.000   -0.000  0.000  0.000
 C          0.000  0.000 -0.000    0.001 -0.001  0.000   -0.002  0.002 -0.001
 C         -0.000  0.000 -0.000   -0.000 -0.001 -0.002   -0.000 -0.000 -0.001
 O         -0.000 -0.000 -0.000   -0.001 -0.000 -0.000    0.002  0.001 -0.000
 O         -0.000 -0.000  0.000   -0.000  0.000 -0.000   -0.000 -0.001  0.000
 O          0.000 -0.000 -0.000    0.000  0.002  0.001    0.000  0.001  0.000
 O          0.000 -0.000  0.000    0.000 -0.000  0.001    0.000 -0.000  0.000
 C          0.000 -0.000  0.000   -0.004  0.036 -0.013   -0.002  0.020 -0.007
 C         -0.000 -0.000  0.000   -0.014 -0.015  0.003    0.026  0.028 -0.006
 C         -0.000 -0.000 -0.000   -0.000  0.000 -0.000    0.000 -0.000  0.000
 C         -0.000  0.000 -0.000   -0.000 -0.000 -0.000   -0.000  0.000 -0.000
 C          0.001  0.000  0.000    0.000  0.000 -0.000    0.000  0.000 -0.000
 C          0.000 -0.000  0.000   -0.000 -0.000 -0.000   -0.000  0.000 -0.000
 H          0.001  0.000 -0.001   -0.402 -0.164  0.323   -0.218 -0.089  0.175
 H          0.000  0.001 -0.004    0.024  0.102 -0.283   -0.045 -0.189  0.523
 H         -0.012 -0.007  0.001   -0.000 -0.000  0.000   -0.001 -0.001  0.000
 H         -0.001  0.000 -0.000    0.507 -0.163  0.201    0.275 -0.088  0.109
 H          0.000  0.000  0.001   -0.056 -0.128 -0.368   -0.031 -0.069 -0.199
 H          0.002 -0.002  0.001    0.154 -0.139  0.043   -0.283  0.257 -0.080
 H         -0.000  0.003  0.003    0.001  0.227  0.197   -0.002 -0.418 -0.364
 H         -0.000  0.000  0.000   -0.000  0.000 -0.000    0.000 -0.001  0.000
 H          0.001 -0.000  0.000    0.001 -0.000  0.000   -0.002  0.000 -0.000
 C         -0.042  0.029 -0.000    0.000  0.000  0.000   -0.000  0.000  0.000
 H          0.082 -0.193  0.527   -0.000  0.001 -0.002    0.001 -0.001  0.003
 H          0.066 -0.498 -0.426   -0.000 -0.001 -0.001    0.000 -0.004 -0.003
 H          0.336  0.346 -0.099   -0.002 -0.002  0.001    0.001  0.001 -0.000
 TransDip  -0.131  0.033  0.018   -0.110  0.136  0.028    0.151  0.146  0.007

 Mode:                67                     68                     69
 Frequency:      3090.80                3111.26                3123.30
 Force Cnst:      6.1922                 6.2873                 6.3625
 Red. Mass:       1.1002                 1.1024                 1.1070
 IR Active:          YES                    YES                    YES
 IR Intens:        8.448                 15.264                 17.430
 Raman Active:       YES                    YES                    YES
               X      Y      Z        X      Y      Z        X      Y      Z
 C          0.000 -0.000 -0.000    0.000 -0.000  0.000    0.000 -0.000 -0.000
 C          0.000  0.000  0.000   -0.000 -0.000  0.000    0.000  0.000  0.000
 C         -0.000 -0.000  0.000    0.000 -0.000  0.000   -0.000  0.000  0.000
 C          0.000  0.000 -0.000    0.000 -0.000  0.000   -0.000 -0.000 -0.000
 O          0.000  0.000  0.000   -0.000  0.000 -0.000   -0.000  0.000  0.000
 O         -0.000  0.000 -0.000   -0.000  0.000 -0.000   -0.000  0.000  0.000
 O         -0.000  0.000  0.000   -0.000 -0.000 -0.000    0.000  0.000  0.000
 O          0.000  0.000  0.000   -0.000  0.000 -0.000   -0.000  0.000  0.000
 C         -0.000  0.000 -0.000   -0.000  0.000 -0.000    0.001  0.000 -0.000
 C         -0.000  0.000  0.000   -0.000  0.000 -0.000    0.005 -0.025 -0.092
 C          0.000  0.000 -0.000    0.000  0.000 -0.000   -0.000  0.000  0.000
 C         -0.000 -0.000 -0.000   -0.000 -0.000  0.000    0.000 -0.000  0.000
 C          0.001  0.000 -0.000    0.004  0.003 -0.000   -0.000  0.000 -0.000
 C         -0.000 -0.000 -0.001    0.001 -0.001  0.000   -0.000 -0.000 -0.000
 H         -0.001 -0.000  0.001    0.001  0.000 -0.001   -0.006 -0.002  0.005
 H          0.000  0.000 -0.000   -0.000 -0.000  0.000   -0.050 -0.253  0.650
 H         -0.005 -0.003  0.000   -0.043 -0.028  0.003    0.000  0.000 -0.000
 H          0.002 -0.001  0.001    0.004 -0.001  0.002   -0.008  0.003 -0.003
 H         -0.000 -0.000 -0.001    0.000  0.000  0.001   -0.000 -0.001 -0.002
 H          0.000 -0.000  0.000    0.000 -0.000  0.000   -0.004 -0.001 -0.019
 H          0.000 -0.000 -0.000    0.000 -0.000 -0.000   -0.002  0.545  0.452
 H         -0.000  0.001 -0.000   -0.001  0.008 -0.001   -0.000  0.000 -0.000
 H          0.000 -0.000 -0.000   -0.000  0.000 -0.000    0.000 -0.000 -0.000
 C         -0.010 -0.030 -0.086   -0.041 -0.077  0.032   -0.000 -0.000 -0.000
 H          0.110 -0.263  0.642   -0.076  0.135 -0.394    0.000 -0.000  0.000
 H         -0.079  0.535  0.434   -0.038  0.193  0.185   -0.000  0.000  0.000
 H          0.088  0.084 -0.044    0.596  0.593 -0.173    0.000  0.000 -0.000
 TransDip  -0.011 -0.053 -0.076   -0.085 -0.089  0.023    0.007 -0.035 -0.129

 Mode:                70                     71                     72
 Frequency:      3125.97                3156.24                3156.67
 Force Cnst:      6.3747                 6.4928                 6.4952
 Red. Mass:       1.1072                 1.1062                 1.1063
 IR Active:          YES                    YES                    YES
 IR Intens:       13.561                 14.191                 13.976
 Raman Active:       YES                    YES                    YES
               X      Y      Z        X      Y      Z        X      Y      Z
 C          0.000  0.000 -0.000    0.000 -0.000  0.000    0.000 -0.000 -0.000
 C         -0.000 -0.000  0.000   -0.000  0.000  0.000    0.000  0.000  0.000
 C         -0.000 -0.000  0.000    0.001  0.001 -0.000   -0.000  0.000 -0.000
 C          0.000  0.000 -0.000    0.000 -0.000  0.000   -0.000  0.001 -0.001
 O         -0.000  0.000 -0.000    0.000 -0.000  0.000    0.000 -0.000  0.000
 O          0.000  0.000 -0.000   -0.000 -0.000  0.000    0.000 -0.000  0.000
 O          0.000  0.000  0.000   -0.000  0.000 -0.000    0.000  0.000  0.000
 O          0.000 -0.000 -0.000   -0.000  0.000 -0.000    0.000 -0.000  0.000
 C         -0.094 -0.002  0.011    0.000  0.000  0.003   -0.010 -0.009 -0.094
 C         -0.000 -0.000 -0.001   -0.052  0.076 -0.023   -0.001  0.002 -0.001
 C         -0.000 -0.000 -0.000   -0.000  0.000 -0.000    0.000 -0.000 -0.000
 C          0.000  0.000 -0.000    0.000 -0.000  0.000    0.000  0.000 -0.000
 C         -0.000 -0.000 -0.000    0.000  0.000 -0.000   -0.000 -0.000  0.000
 C          0.000 -0.000 -0.000    0.000 -0.000  0.000   -0.000 -0.000 -0.000
 H          0.512  0.215 -0.435    0.007  0.003 -0.005   -0.259 -0.103  0.190
 H         -0.001 -0.003  0.008   -0.032 -0.093  0.295   -0.001 -0.003  0.009
 H          0.000  0.000 -0.000   -0.002 -0.001  0.000    0.003  0.002 -0.000
 H          0.618 -0.202  0.261   -0.008  0.003 -0.003    0.254 -0.081  0.084
 H         -0.011  0.015  0.047   -0.003 -0.008 -0.024    0.125  0.290  0.836
 H          0.001 -0.001  0.000    0.649 -0.590  0.185    0.019 -0.017  0.005
 H          0.000  0.006  0.005   -0.008 -0.217 -0.207   -0.000 -0.005 -0.005
 H          0.000 -0.000  0.000   -0.000  0.004 -0.001    0.000 -0.001  0.000
 H          0.000 -0.000 -0.000    0.004 -0.002  0.000   -0.000  0.000 -0.000
 C          0.000  0.000 -0.000    0.000  0.000 -0.000    0.000  0.000 -0.000
 H          0.000 -0.000  0.001    0.000 -0.000  0.000    0.000 -0.000  0.001
 H          0.000 -0.001 -0.001    0.000 -0.000 -0.000    0.000 -0.000 -0.000
 H         -0.002 -0.002  0.001   -0.000 -0.000  0.000   -0.001 -0.001  0.000
 TransDip  -0.117  0.005  0.011   -0.089  0.078 -0.021   -0.019 -0.037 -0.112

 Mode:                73                     74                     75
 Frequency:      3164.88                3184.53                3220.66
 Force Cnst:      6.4210                 6.5334                 6.6789
 Red. Mass:       1.0880                 1.0934                 1.0929
 IR Active:          YES                    YES                    YES
 IR Intens:        7.160                 15.370                  2.064
 Raman Active:       YES                    YES                    YES
               X      Y      Z        X      Y      Z        X      Y      Z
 C          0.000 -0.000 -0.000   -0.000  0.000  0.000   -0.000 -0.003  0.000
 C          0.000  0.000  0.000    0.000  0.000 -0.000    0.001 -0.000  0.000
 C         -0.000 -0.000  0.000    0.000  0.000 -0.000   -0.001  0.001 -0.000
 C         -0.000  0.000 -0.000   -0.000  0.000 -0.000   -0.000 -0.000  0.000
 O          0.000  0.000  0.000   -0.000 -0.000  0.000   -0.000 -0.001  0.000
 O         -0.000  0.000  0.000   -0.000 -0.000  0.000    0.000  0.000 -0.000
 O          0.000 -0.000 -0.000    0.000 -0.000 -0.000   -0.000  0.000  0.000
 O          0.000 -0.000  0.000    0.000 -0.000  0.000   -0.000  0.000 -0.000
 C          0.000  0.000  0.000    0.000  0.000  0.000    0.000 -0.000 -0.000
 C         -0.000  0.000 -0.000    0.000 -0.000  0.000    0.000 -0.000  0.000
 C          0.004 -0.003  0.000   -0.012  0.008 -0.001   -0.078  0.035 -0.005
 C         -0.001  0.039 -0.005    0.009 -0.075  0.009    0.001  0.019 -0.002
 C         -0.061 -0.045  0.005   -0.036 -0.022  0.002    0.003  0.001 -0.000
 C         -0.001  0.002 -0.000   -0.001  0.002 -0.000    0.000 -0.000  0.000
 H          0.001  0.000 -0.000   -0.000 -0.000  0.000   -0.000 -0.000  0.000
 H         -0.000 -0.000  0.001   -0.000 -0.000 -0.000   -0.000  0.000 -0.000
 H          0.714  0.508 -0.057    0.380  0.265 -0.030   -0.025 -0.016  0.002
 H         -0.001  0.000 -0.000    0.000 -0.000  0.000   -0.000  0.000 -0.000
 H         -0.000 -0.001 -0.003   -0.000 -0.000 -0.001    0.000  0.000  0.000
 H          0.003 -0.002  0.001   -0.003  0.003 -0.001   -0.003  0.003 -0.001
 H         -0.000 -0.001 -0.001   -0.000 -0.000  0.000   -0.000 -0.000  0.000
 H          0.039 -0.457  0.058   -0.080  0.850 -0.107    0.014 -0.192  0.024
 H         -0.060  0.027 -0.004    0.171 -0.080  0.011    0.891 -0.395  0.053
 C         -0.003 -0.003  0.001   -0.001 -0.001  0.000    0.000 -0.000  0.000
 H         -0.001  0.003 -0.009    0.000  0.001 -0.002   -0.000  0.000 -0.001
 H         -0.000  0.007  0.006    0.001  0.001  0.001   -0.000  0.001  0.000
 H          0.036  0.032 -0.010    0.014  0.012 -0.004   -0.000 -0.000  0.000
 TransDip  -0.085 -0.011 -0.000   -0.039 -0.119  0.015   -0.004  0.046 -0.004

 STANDARD THERMODYNAMIC QUANTITIES AT   298.15 K  AND     1.00 ATM

   This Molecule has  0 Imaginary Frequencies
   Zero point vibrational energy:      133.302 kcal/mol

   Atom    1 Element C  Has Mass   12.00000
   Atom    2 Element C  Has Mass   12.00000
   Atom    3 Element C  Has Mass   12.00000
   Atom    4 Element C  Has Mass   12.00000
   Atom    5 Element O  Has Mass   15.99491
   Atom    6 Element O  Has Mass   15.99491
   Atom    7 Element O  Has Mass   15.99491
   Atom    8 Element O  Has Mass   15.99491
   Atom    9 Element C  Has Mass   12.00000
   Atom   10 Element C  Has Mass   12.00000
   Atom   11 Element C  Has Mass   12.00000
   Atom   12 Element C  Has Mass   12.00000
   Atom   13 Element C  Has Mass   12.00000
   Atom   14 Element C  Has Mass   12.00000
   Atom   15 Element H  Has Mass    1.00783
   Atom   16 Element H  Has Mass    1.00783
   Atom   17 Element H  Has Mass    1.00783
   Atom   18 Element H  Has Mass    1.00783
   Atom   19 Element H  Has Mass    1.00783
   Atom   20 Element H  Has Mass    1.00783
   Atom   21 Element H  Has Mass    1.00783
   Atom   22 Element H  Has Mass    1.00783
   Atom   23 Element H  Has Mass    1.00783
   Atom   24 Element C  Has Mass   12.00000
   Atom   25 Element H  Has Mass    1.00783
   Atom   26 Element H  Has Mass    1.00783
   Atom   27 Element H  Has Mass    1.00783
   Molecular Mass:   208.073600 amu
   Principal axes and moments of inertia in amu*Bohr^2:
                             1           2           3
    Eigenvalues --     2454.14946  3114.13141  5139.66144
          X               0.99986     0.01645    -0.00189
          Y              -0.01643     0.99982     0.00976
          Z               0.00205    -0.00972     0.99995
   Rotational Symmetry Number is   1
   The Molecule is an Asymmetric Top
   Translational Enthalpy:        0.889 kcal/mol
   Rotational Enthalpy:           0.889 kcal/mol
   Vibrational Enthalpy:        141.069 kcal/mol
   gas constant (RT):             0.592 kcal/mol
   Translational Entropy:        41.902  cal/mol.K
   Rotational Entropy:           32.041  cal/mol.K
   Vibrational Entropy:          51.734  cal/mol.K

   Total Enthalpy:              143.439 kcal/mol
   Total Entropy:               125.676  cal/mol.K
Archival summary:
1\1\nid01079\FREQ\ProcedureUnspecified\BasisUnspecified\41112\junteng\WedOct420:07:202017WedOct420:07:202017\0\\#,FREQ,ProcedureUnspecified,BasisUnspecified,\\0,1\O\C,1,1.34346\O,2,1.20535,1,124.671\C,1,1.44003,2,115.657,3,-9.56796,0\H,4,1.08769,1,105.423,2,179.126,0\H,4,1.09085,1,110.67,2,59.2716,0\H,4,1.09095,1,109.482,2,-61.7257,0\C,2,1.50484,1,111.054,3,-175.554,0\C,8,1.40509,2,117.775,1,102.664,0\C,9,1.39744,8,118.441,2,179.78,0\H,10,1.08505,9,118.95,8,179.505,0\C,10,1.39216,9,121.404,8,-0.510663,0\H,12,1.08399,10,120.023,9,-179.817,0\C,12,1.38821,10,119.886,9,0.0500807,0\H,14,1.08093,12,120.671,10,-179.551,0\C,14,1.40021,12,120.067,10,0.239641,0\C,16,1.49119,14,120.506,12,-178.274,0\O,17,1.20993,16,124.893,14,171.014,0\O,17,1.35004,16,112.209,14,-8.41438,0\C,19,1.43819,17,115.981,16,178.718,0\H,20,1.08775,19,105.332,17,-179.365,0\H,20,1.09092,19,110.438,17,61.1576,0\H,20,1.09099,19,110.463,17,-59.8182,0\C,9,1.5102,8,121.311,2,-0.00311044,0\H,24,1.09122,9,110.736,8,-172.206,0\H,24,1.09301,9,110.906,8,67.4244,0\H,24,1.09355,9,111.496,8,-51.913,0\\\@

 Total job time:  5839.32s(wall), 31358.46s(cpu) 
 Wed Oct  4 20:07:20 2017

        *************************************************************
        *                                                           *
        *  Thank you very much for using Q-Chem.  Have a nice day.  *
        *                                                           *
        *************************************************************


