nid01073 10.128.4
Q-Chem Developer Version! Running on 10.128.4.*
                  Welcome to Q-Chem
     A Quantum Leap Into The Future Of Chemistry


 Q-Chem 5.0, Q-Chem, Inc., Pleasanton, CA (2017)

 Yihan Shao,  Zhengting Gan,  E. Epifanovsky,  A. T. B. Gilbert,  M. Wormit,  
 J. Kussmann,  A. W. Lange,  A. Behn,  Jia Deng,  Xintian Feng,  D. Ghosh,  
 M. Goldey,  P. R. Horn,  L. D. Jacobson,  I. Kaliman,  T. Kus,  A. Landau,  
 Jie Liu,  E. I. Proynov,  R. M. Richard,  R. P. Steele,  E. J. Sundstrom,  
 H. L. Woodcock III,  P. M. Zimmerman,  D. Zuev,  B. Albrecht,  E. Alguire,  
 S. A. Baeppler,  Z. Benda,  Y. A. Bernard,  E. J. Berquist,  K. B. Bravaya,  
 D. Casanova,  Chun-Min Chang,  Yunqing Chen,  A. Chien,  K. D. Closser,  
 M. P. Coons,  S. Dasgupta,  M. Diedenhofen,  Hainam Do,  R. G. Edgar,  
 Po-Tung Fang,  S. Fatehi,  Qingguo Feng,  Qinghui Ge,  A. Ghysels,  
 J. Gomes,  J. Gonthier,  A. Gunina,  M. W. D. Hanson-Heine,  
 P. H. P. Harbach,  A. W. Hauser,  J. E. Herr,  E. G. Hohenstein,  
 Z. C. Holden,  Kerwin Hui,  T.-C. Jagau,  Hyunjun Ji,  B. Kaduk,  
 K. Khistyaev,  Jaehoon Kim,  P. Klunzinger,  K. Koh,  D. Kosenkov,  
 T. Kowalczyk,  C. M. Krauter,  A. Kunitsa,  Ka Un Lao,  A. Laurent,  
 K. V. Lawler,  Joonho Lee,  D. Lefrancois,  S. Lehtola,  D. S. Levine,  
 Yi-Pei Li,  You-Sheng Lin,  Fenglai Liu,  E. Livshits,  A. Luenser,  
 P. Manohar,  E. Mansoor,  S. F. Manzer,  Shan-Ping Mao,  Yuezhi Mao,  
 N. Mardirossian,  A. V. Marenich,  L. A. Martinez-Martinez,  S. A. Maurer,  
 N. J. Mayhall,  S. C. McKenzie,  J.-M. Mewes,  A. F. Morrison,  K. Nanda,  
 T. S. Nguyen-Beck,  R. Olivares-Amaya,  J. A. Parkhill,  T. M. Perrine,  
 F. Plasser,  S. Prager,  A. Prociuk,  D. R. Rehn,  F. Rob,  M. Schneider,  
 N. Sergueev,  S. M. Sharada,  S. Sharma,  D. W. Small,  T. Stauch,  
 T. Stein,  Yu-Chuan Su,  A. J. W. Thom,  T. Tsuchimochi,  L. Vogt,  
 O. Vydrov,  M. A. Watson,  J. Wenzel,  M. de Wergifosse,  T. A. Wesolowski,  
 A. White,  J. Witte,  A. Yamada,  Jun Yang,  K. Yao,  S. Yeganeh,  
 S. R. Yost,  Zhi-Qiang You,  A. Zech,  Igor Ying Zhang,  Xing Zhang,  
 Yan Zhao,  Ying Zhu,  B. R. Brooks,  G. K. L. Chan,  C. J. Cramer,  
 M. S. Gordon,  W. J. Hehre,  A. Klamt,  M. W. Schmidt,  C. D. Sherrill,  
 D. G. Truhlar,  A. Aspuru-Guzik,  R. Baer,  A. T. Bell,  N. A. Besley,  
 Jeng-Da Chai,  A. Dreuw,  B. D. Dunietz,  T. R. Furlani,  Chao-Ping Hsu,  
 Yousung Jung,  Jing Kong,  D. S. Lambrecht,  WanZhen Liang,  C. Ochsenfeld,  
 V. A. Rassolov,  L. V. Slipchenko,  J. E. Subotnik,  T. Van Voorhis,  
 J. M. Herbert,  A. I. Krylov,  P. M. W. Gill,  M. Head-Gordon

 Contributors to earlier versions of Q-Chem not listed above: 
 R. D. Adamson,  B. Austin,  J. Baker,  G. J. O. Beran,  K. Brandhorst,  
 S. T. Brown,  E. F. C. Byrd,  A. K. Chakraborty,  C.-L. Cheng,  
 Siu Hung Chien,  D. M. Chipman,  D. L. Crittenden,  H. Dachsel,  
 R. A. DiStasio Jr.,  R. J. Doerksen,  A. D. Dutoi,  L. Fusti-Molnar,  
 W. A. Goddard III,  A. Golubeva-Zadorozhnaya,  S. R. Gwaltney,  G. Hawkins,  
 A. Heyden,  S. Hirata,  G. Kedziora,  F. J. Keil,  C. Kelley,  Jihan Kim,  
 R. A. King,  R. Z. Khaliullin,  P. P. Korambath,  W. Kurlancheek,  
 A. M. Lee,  M. S. Lee,  S. V. Levchenko,  Ching Yeh Lin,  D. Liotard,  
 R. C. Lochan,  I. Lotan,  P. E. Maslen,  N. Nair,  D. P. O'Neill,  
 D. Neuhauser,  E. Neuscamman,  C. M. Oana,  R. Olson,  B. Peters,  
 R. Peverati,  P. A. Pieniazek,  Y. M. Rhee,  J. Ritchie,  M. A. Rohrdanz,  
 E. Rosta,  N. J. Russ,  H. F. Schaefer III,  N. E. Schultz,  N. Shenvi,  
 A. C. Simmonett,  A. Sodt,  D. Stuck,  K. S. Thanthiriwatte,  V. Vanovschi,  
 Tao Wang,  A. Warshel,  C. F. Williams,  Q. Wu,  X. Xu,  W. Zhang

 Please cite Q-Chem as follows:
 Y. Shao et al., Mol. Phys. 113, 184-215 (2015)
 DOI: 10.1080/00268976.2014.952696

 Q-Chem 5.0.0 for Intel X86 EM64T Linux

 Parts of Q-Chem use Armadillo 5.200.1 (Boston Tea Smuggler).
 http://arma.sourceforge.net/

 Q-Chem begins on Wed Oct  4 17:29:54 2017  

Host: nid01073
0

     Scratch files written to /global/cscratch1/sd/junteng/scratch/13/opt_1001++.save//

Checking the input file for inconsistencies... 	...done.

--------------------------------------------------------------
User input:
--------------------------------------------------------------
$molecule
0  1
C    0.656  -1.997   0.550
C   -0.379  -2.055   1.685
C    1.075  -0.633   0.035
C   -0.743  -0.756   2.367
O    2.254  -0.766  -0.643
O    0.466   0.414   0.178
O    0.380  -0.211   2.923
O   -1.879  -0.339   2.537
C    0.159   1.039   3.578
C    2.798   0.433  -1.203
C   -0.074  -2.721  -0.584
C   -0.239  -4.209  -0.268
C   -1.341  -4.194   0.796
C   -1.585  -2.694   0.978
O   -1.425  -2.250  -0.391
H    1.566  -2.528   0.855
H   -0.041  -2.721   2.491
H   -0.505   1.690   2.999
H    2.061   1.233  -1.326
H    0.286  -2.514  -1.595
H   -0.592  -4.755  -1.150
H    0.687  -4.677   0.078
H   -2.237  -4.682   0.398
H   -1.053  -4.703   1.720
H   -2.574  -2.451   1.372
H   -0.249   0.863   4.578
H    1.124   1.543   3.677
H    3.204   0.190  -2.189
H    3.617   0.777  -0.565
$end


$opt
CONSTRAINT
tors    2    1    3    5    167.3
tors    1    2    4    7    -56.6
ENDCONSTRAINT
$end

$rem
JOBTYPE                   OPT
METHOD                    B3LYP
DFT_D                     D3_OP
BASIS                     STO-3G
GEOM_OPT_MAX_CYCLES       500
SYMMETRY                  False
THRESH                    12
SCF_CONVERGENCE           8
MAX_SUB_FILE_NUM          128
MEM_STATIC                400
MEM_TOTAL                 4000
$end

--------------------------------------------------------------
 Adding empirical dispersion correction 
 ----------------------------------------------------------------
 Doing -D3(op) with
 s6 =   1.00000
 s8 =   0.78311
 a1 =   0.30000
 a2 =   4.25000
 n  =  10.00000
 -D3 energy without 3body term =     -0.0301175666 hartrees
 ----------------------------------------------------------------
             Standard Nuclear Orientation (Angstroms)
    I     Atom           X                Y                Z
 ----------------------------------------------------------------
    1      C       0.3697342729    -0.6344652785    -0.5682185024
    2      C       0.5830892856     0.8866305416    -0.5085431759
    3      C      -0.8699014548    -1.2078766031     0.0919214188
    4      C      -0.5598235439     1.7339384151     0.0021824174
    5      O      -1.0906277378    -2.4603631032    -0.4080500553
    6      O      -1.5566019091    -0.6636803128     0.9403504869
    7      O      -1.6498149946     1.5482939899    -0.8007775971
    8      O      -0.4799332706     2.5718972711     0.8880308806
    9      C      -2.8044492191     2.2858543985    -0.3968092184
   10      C      -2.2289112229    -3.1547881210     0.1108156327
   11      C       1.5897974066    -1.1573410878     0.1940667708
   12      C       2.8778742489    -0.9023938644    -0.5914807846
   13      C       3.0736984138     0.6062805862    -0.4118163796
   14      C       1.8273869003     0.9943712392     0.3874040257
   15      O       1.7087539834    -0.1697627505     1.2404077097
   16      H       0.3688686773    -0.9646705244    -1.6141868320
   17      H       0.8207486346     1.2891342672    -1.5030002060
   18      H      -2.9457124994     2.2580152575     0.6891040690
   19      H      -2.5806906233    -2.7639184006     1.0709042303
   20      H       1.5042519872    -2.1684976679     0.6000401094
   21      H       3.7202931181    -1.4355074158    -0.1367617613
   22      H       2.8052766319    -1.2051355012    -1.6399525713
   23      H       3.9784423183     0.7875324718     0.1780566756
   24      H       3.1670514341     1.1432862684    -1.3598201301
   25      H       1.9410338999     1.9133998678     0.9660893801
   26      H      -2.7227111035     3.3187026777    -0.7489218606
   27      H      -3.6791460159     1.8248750106    -0.8631197561
   28      H      -1.9485029726    -4.2023825341     0.2522304790
   29      H      -3.0343825811    -3.1071758873    -0.6274864507
 ----------------------------------------------------------------
 Molecular Point Group                 C1    NOp =  1
 Largest Abelian Subgroup              C1    NOp =  1
 Nuclear Repulsion Energy =  1110.7745787068 hartrees
 There are       57 alpha and       57 beta electrons
 Requested basis set is STO-3G
 There are 44 shells and 89 basis functions

 Total QAlloc Memory Limit   4000 MB
 Mega-Array Size       392 MB
 MEM_STATIC part       400 MB
 A cutoff of  1.0D-12 yielded    865 shell pairs
 There are      3901 function pairs
 
 -------------------------------------------------------
 OpenMP Integral Computing Module                       
 Release: version 1.0, May 2013, Q-Chem Inc. Pittsburgh 
 -------------------------------------------------------
 Integral Job Info:
 Integral job number is                      11
 Integral operator is                         1
 short-range coefficients                     0
 long-range coefficients              100000000
 Omega coefficients                           0
 if combine SR and LR in K                    0
 Integral screening is                        0
 Integral computing path is                   2
 max size of driver memory is            800000
 size of driver memory is                 45569
 size of scratch memory is               945100
 max col of scratch BK array                289
 max len of scratch array in speh3           22
 max len of scratch index in speh4            8
 max int batch size is                      520
 min int batch size is                       52
 fixed nKL is                                52
 max L of basis functions is                  1
 order of int derivative is                   0
 number of shells is                         44
 number of basis is                          89
 number of cartesian basis is                89
 number of contracted shell pairs           865
 number of primitive shell pairs           4854
 maxK2 (contraction) of shell pair            9
 max number of K2 of shell pair               1
 max number of CS2 of shell pair            117
 max number of PS2 of shell pair            570
 mem total for path MDJ                   27818
 -------------------------------------------------------
 Smallest overlap matrix eigenvalue = 1.94E-01

 Scale SEOQF with 1.000000e-01/1.000000e-01/1.000000e-01

 Standard Electronic Orientation quadrupole field applied
 Nucleus-field energy     =     0.0000000330 hartrees
 Guess from superposition of atomic densities
 Warning:  Energy on first SCF cycle will be non-variational
 A restricted hybrid HF-DFT SCF calculation will be
 performed using Pulay DIIS extrapolation
 Exchange:     0.2000 Hartree-Fock + 0.0800 Slater + 0.7200 B88
 Correlation:  0.1900 VWN1RPA + 0.8100 LYP
 Using SG-1 standard quadrature grid
 Dispersion:   Grimme D3
 SCF converges when DIIS error is below 1.0E-08
 -------------------------------------------------------
 OpenMP Integral computing Module                
 Release: version 1.0, May 2013, Q-Chem Inc. Pittsburgh 
 -------------------------------------------------------
 -------------------------------------------------------
 OpenMP BLAS3 based DFT computing Module                
 Release: version 1.0, May 2013, Q-Chem Inc. Pittsburgh 
 -------------------------------------------------------
 ---------------------------------------
  Cycle       Energy         DIIS Error
 ---------------------------------------
    1    -755.1333775847      1.15E-01
    2    -755.4330515638      1.43E-02
    3    -754.4849215495      3.46E-02
    4    -755.6668951176      4.97E-03
    5    -755.6923795685      1.60E-03
    6    -755.6952387513      2.89E-04
    7    -755.6953280194      8.61E-05
    8    -755.6953339718      4.56E-05
    9    -755.6953363169      5.67E-06
   10    -755.6953363555      1.52E-06
   11    -755.6953363583      3.20E-07
   12    -755.6953363584      9.74E-08
   13    -755.6953363584      1.84E-08
   14    -755.6953363584      6.30E-09 Convergence criterion met
 ---------------------------------------
 SCF time:  CPU 61.18 s  wall 2.83 s
 SCF   energy in the final basis set = -755.6953363584
 Total energy in the final basis set = -755.6953363584
 
 --------------------------------------------------------------
 
                    Orbital Energies (a.u.)
 --------------------------------------------------------------
 
 Alpha MOs
 -- Occupied --
-18.943 -18.934 -18.872 -18.868 -18.859 -10.111 -10.104 -10.073
-10.066 -10.061 -10.055 -10.036 -10.033 -10.014 -10.012  -1.042
 -1.033  -0.990  -0.953  -0.945  -0.775  -0.736  -0.726  -0.683
 -0.671  -0.604  -0.551  -0.537  -0.526  -0.488  -0.473  -0.461
 -0.440  -0.428  -0.426  -0.421  -0.415  -0.386  -0.375  -0.365
 -0.353  -0.345  -0.341  -0.326  -0.314  -0.310  -0.301  -0.289
 -0.277  -0.247  -0.240  -0.219  -0.182  -0.172  -0.155  -0.144
 -0.134
 -- Virtual --
  0.113   0.127   0.251   0.273   0.299   0.310   0.345   0.356
  0.375   0.385   0.402   0.409   0.410   0.426   0.432   0.435
  0.443   0.451   0.455   0.460   0.460   0.465   0.475   0.480
  0.491   0.502   0.518   0.541   0.575   0.584   0.702   0.708
 --------------------------------------------------------------
 
          Ground-State Mulliken Net Atomic Charges

     Atom                 Charge (a.u.)
  ----------------------------------------
      1 C                    -0.082971
      2 C                    -0.085571
      3 C                     0.240451
      4 C                     0.242231
      5 O                    -0.189960
      6 O                    -0.229387
      7 O                    -0.191160
      8 O                    -0.229880
      9 C                    -0.125822
     10 C                    -0.130239
     11 C                     0.028296
     12 C                    -0.148142
     13 C                    -0.147404
     14 C                     0.027402
     15 O                    -0.209209
     16 H                     0.089321
     17 H                     0.087279
     18 H                     0.100295
     19 H                     0.102343
     20 H                     0.088273
     21 H                     0.078598
     22 H                     0.072977
     23 H                     0.078897
     24 H                     0.071806
     25 H                     0.097598
     26 H                     0.087949
     27 H                     0.092564
     28 H                     0.092952
     29 H                     0.090514
  ----------------------------------------
  Sum of atomic charges =     0.000000

 -----------------------------------------------------------------
                    Cartesian Multipole Moments
 -----------------------------------------------------------------
    Charge (ESU x 10^10)
                 0.0000
    Dipole Moment (Debye)
         X      -0.4166      Y      -1.4010      Z      -2.3203
       Tot       2.7423
    Quadrupole Moments (Debye-Ang)
        XX     -73.2573     XY       1.4702     YY     -76.5838
        XZ      -0.8786     YZ      -4.0885     ZZ     -84.4320
    Octopole Moments (Debye-Ang^2)
       XXX     -32.0675    XXY       2.6418    XYY     -21.2123
       YYY     -18.0132    XXZ      -1.5320    XYZ       2.6868
       YYZ       0.4941    XZZ      -5.4483    YZZ      -0.5880
       ZZZ       2.8189
    Hexadecapole Moments (Debye-Ang^3)
      XXXX   -1766.3352   XXXY      -9.1296   XXYY    -491.3941
      XYYY      25.6612   YYYY   -1433.0856   XXXZ      29.3497
      XXYZ       1.9950   XYYZ       9.5677   YYYZ     -42.5702
      XXZZ    -358.3887   XYZZ       4.2414   YYZZ    -298.1186
      XZZZ      -2.0840   YZZZ       6.4186   ZZZZ    -270.9550
 -----------------------------------------------------------------
 Calculating analytic gradient of the SCF energy
 Gradient of SCF Energy
            1           2           3           4           5           6
    1   0.0021799  -0.0079730  -0.0035713  -0.0118003  -0.0264753   0.0361920
    2   0.0147913  -0.0097851  -0.0216101   0.0028776   0.0360793  -0.0275161
    3   0.0422889   0.0229121   0.0047460  -0.0042293   0.0358437  -0.0453326
            7           8           9          10          11          12
    1   0.0164333   0.0007554   0.0161062   0.0147445  -0.0138282  -0.0217591
    2   0.0367505  -0.0371405  -0.0106249   0.0095456   0.0058728   0.0198850
    3   0.0447053  -0.0455882  -0.0072183  -0.0088297  -0.0065146   0.0225080
           13          14          15          16          17          18
    1  -0.0241050  -0.0105318   0.0070337  -0.0006561  -0.0000244   0.0002217
    2  -0.0176790  -0.0004173   0.0029261   0.0044461   0.0029786  -0.0041832
    3   0.0175573  -0.0072092  -0.0670699   0.0053539   0.0078343  -0.0111811
           19          20          21          22          23          24
    1   0.0033618   0.0038078  -0.0013620   0.0001313  -0.0031001  -0.0009921
    2  -0.0087182   0.0089398   0.0060041   0.0020688  -0.0049969  -0.0034859
    3  -0.0085645  -0.0049610  -0.0006986   0.0063589  -0.0026417   0.0059499
           25          26          27          28          29
    1   0.0056966   0.0025947   0.0072903  -0.0031770   0.0128064
    2  -0.0092234  -0.0145968   0.0054778   0.0113557  -0.0000218
    3  -0.0076017  -0.0009062   0.0069966  -0.0001980   0.0056898
 Max gradient component =       6.707E-02
 RMS gradient           =       1.788E-02
 Gradient time:  CPU 24.42 s  wall 1.17 s
 Geometry Optimization Parameters
   NAtoms,    NIC,     NZ,  NCons,   NDum,   NFix, NCnnct, MaxDiis
       29     227       0       2       0       0       0       0


** CONSTRAINED OPTIMIZATION IN DELOCALIZED INTERNAL COORDINATES **
   Searching for a Minimum

   Optimization Cycle:   1

                       Coordinates (Angstroms)
     ATOM                X               Y               Z
      1  C         0.3697342729   -0.6344652785   -0.5682185024
      2  C         0.5830892856    0.8866305416   -0.5085431759
      3  C        -0.8699014548   -1.2078766031    0.0919214188
      4  C        -0.5598235439    1.7339384151    0.0021824174
      5  O        -1.0906277378   -2.4603631032   -0.4080500553
      6  O        -1.5566019091   -0.6636803128    0.9403504869
      7  O        -1.6498149946    1.5482939899   -0.8007775971
      8  O        -0.4799332706    2.5718972711    0.8880308806
      9  C        -2.8044492191    2.2858543985   -0.3968092184
     10  C        -2.2289112229   -3.1547881210    0.1108156327
     11  C         1.5897974066   -1.1573410878    0.1940667708
     12  C         2.8778742489   -0.9023938644   -0.5914807846
     13  C         3.0736984138    0.6062805862   -0.4118163796
     14  C         1.8273869003    0.9943712392    0.3874040257
     15  O         1.7087539834   -0.1697627505    1.2404077097
     16  H         0.3688686773   -0.9646705244   -1.6141868320
     17  H         0.8207486346    1.2891342672   -1.5030002060
     18  H        -2.9457124994    2.2580152575    0.6891040690
     19  H        -2.5806906233   -2.7639184006    1.0709042303
     20  H         1.5042519872   -2.1684976679    0.6000401094
     21  H         3.7202931181   -1.4355074158   -0.1367617613
     22  H         2.8052766319   -1.2051355012   -1.6399525713
     23  H         3.9784423183    0.7875324718    0.1780566756
     24  H         3.1670514341    1.1432862684   -1.3598201301
     25  H         1.9410338999    1.9133998678    0.9660893801
     26  H        -2.7227111035    3.3187026777   -0.7489218606
     27  H        -3.6791460159    1.8248750106   -0.8631197561
     28  H        -1.9485029726   -4.2023825341    0.2522304790
     29  H        -3.0343825811   -3.1071758873   -0.6274864507
   Point Group: c1    Number of degrees of freedom:    81


   Energy is   -755.695336358

              Constraints and their Current Values
                                        Value     Constraint
   Dihedral:        2   1   3   5      161.585      167.300
   Dihedral:        1   2   4   7      -59.895      -56.600

 Attempting to Generate Delocalized Internal Coordinates

   Using Lagrange Multiplier Algorithm


 83 Hessian modes will be used to form the next step
  Hessian Eigenvalues:
    -0.977753   -0.977753    0.045000    0.045000    0.045000    0.045000
     0.045004    0.045352    0.045530    0.048627    0.058814    0.061923
     0.065581    0.067904    0.070808    0.072130    0.074343    0.075916
     0.081732    0.083785    0.084157    0.085390    0.086890    0.088227
     0.091114    0.091429    0.097232    0.098159    0.112260    0.112299
     0.113404    0.116979    0.117194    0.120275    0.121575    0.138015
     0.140421    0.160000    0.160000    0.160000    0.160000    0.160000
     0.160000    0.168655    0.174257    0.246664    0.248450    0.249983
     0.250000    0.250000    0.250000    0.250000    0.257040    0.266186
     0.268519    0.290485    0.293737    0.306576    0.311874    0.329392
     0.338114    0.340326    0.341575    0.341941    0.342237    0.342787
     0.342803    0.343231    0.343866    0.343905    0.343937    0.344082
     0.344477    0.344724    0.345856    0.408772    0.412181    0.516485
     0.516574    0.945024    0.955398    1.022753    1.022753

 Minimum Search - Taking P-RFO Step
 Searching for Lamda that Maximizes Along the Constraint modes Only
 Value Taken    Lamda =   0.00606306
 Searching for Lamda that Minimizes Along All other modes
 Value Taken    Lamda =  -0.07162455
 Calculated Step too Large.  Step scaled by  0.706482
 Step Taken.  Stepsize is  0.300000

                             Maximum     Tolerance    Cnvgd?
         Gradient            0.099739       0.000300      NO
         Displacement        0.103518       0.001200      NO
         Energy change     *********       0.000001      NO


 New Cartesian Coordinates Obtained by Inverse Iteration

 Displacement from previous Coordinates is:  0.767501
 Adding empirical dispersion correction 
 ----------------------------------------------------------------
 Doing -D3(op) with
 s6 =   1.00000
 s8 =   0.78311
 a1 =   0.30000
 a2 =   4.25000
 n  =  10.00000
 -D3 energy without 3body term =     -0.0300474628 hartrees
 ----------------------------------------------------------------
             Standard Nuclear Orientation (Angstroms)
    I     Atom           X                Y                Z
 ----------------------------------------------------------------
    1      C       0.3895679844    -0.6387287292    -0.6196485928
    2      C       0.6211653821     0.8997226197    -0.5169119743
    3      C      -0.9071567772    -1.1831784356     0.0347332273
    4      C      -0.5704934625     1.7466223837     0.0050998284
    5      O      -1.1169765469    -2.4867329430    -0.4318623014
    6      O      -1.6137819912    -0.6063917957     0.8791721951
    7      O      -1.6769067006     1.5289909182    -0.8269149030
    8      O      -0.5331277868     2.5735215204     0.9330719964
    9      C      -2.8670863200     2.2472816913    -0.3905618134
   10      C      -2.2922882932    -3.1331387796     0.1342048686
   11      C       1.6341319990    -1.1696411376     0.1894640884
   12      C       2.9531340824    -0.9140801140    -0.6144338490
   13      C       3.1501379989     0.6210644398    -0.4115707651
   14      C       1.8744609714     0.9896837481     0.4160008296
   15      O       1.7390182286    -0.1901540202     1.2848879010
   16      H       0.4091653446    -0.9794917205    -1.6681911786
   17      H       0.8759979919     1.3116159273    -1.5093364802
   18      H      -2.9985706436     2.2006319018     0.7059512437
   19      H      -2.6260448751    -2.6527420219     1.0719321254
   20      H       1.5308892541    -2.1901839138     0.5931115230
   21      H       3.7925293263    -1.4640868716    -0.1649563992
   22      H       2.8779161403    -1.2103988434    -1.6707972069
   23      H       4.0541390811     0.8102726421     0.1850047256
   24      H       3.2412973510     1.1759013658    -1.3567376331
   25      H       1.9652244056     1.9102896691     1.0148863704
   26      H      -2.8313168302     3.3053048521    -0.7116742380
   27      H      -3.7357924199     1.7632580749    -0.8681443787
   28      H      -2.0350246648    -4.1857583614     0.3464696503
   29      H      -3.1191161653    -3.1152008569    -0.5995898548
 ----------------------------------------------------------------
 Molecular Point Group                 C1    NOp =  1
 Largest Abelian Subgroup              C1    NOp =  1
 Nuclear Repulsion Energy =  1094.0345194177 hartrees
 There are       57 alpha and       57 beta electrons
 Applying Cartesian multipole field
    Component          Value
    ---------          -----
     (2,0,0)        1.00000E-11
     (0,2,0)        2.00000E-11
     (0,0,2)       -3.00000E-11
 Nucleus-field energy     =     0.0000000334 hartrees
 Requested basis set is STO-3G
 There are 44 shells and 89 basis functions
 A cutoff of  1.0D-12 yielded    864 shell pairs
 There are      3900 function pairs
 Smallest overlap matrix eigenvalue = 2.07E-01
 Guess MOs from SCF MO coefficient file
 Reading MOs from coefficient file
 Reading MOs from coefficient file
 A restricted hybrid HF-DFT SCF calculation will be
 performed using Pulay DIIS extrapolation
 Exchange:     0.2000 Hartree-Fock + 0.0800 Slater + 0.7200 B88
 Correlation:  0.1900 VWN1RPA + 0.8100 LYP
 Using SG-1 standard quadrature grid
 Dispersion:   Grimme D3
 SCF converges when DIIS error is below 1.0E-08
 Geometry optimization detected.  Setting ReadMinima to 0
 Setting SaveMinima to 0
 -------------------------------------------------------
 OpenMP Integral computing Module                
 Release: version 1.0, May 2013, Q-Chem Inc. Pittsburgh 
 -------------------------------------------------------
 -------------------------------------------------------
 OpenMP BLAS3 based DFT computing Module                
 Release: version 1.0, May 2013, Q-Chem Inc. Pittsburgh 
 -------------------------------------------------------
 ---------------------------------------
  Cycle       Energy         DIIS Error
 ---------------------------------------
    1    -755.5673443464      5.83E-03
    2    -755.7208260226      2.05E-03
    3    -755.7146890651      3.14E-03
    4    -755.7251583078      6.52E-04
    5    -755.7256607167      1.06E-04
    6    -755.7256747414      2.24E-05
    7    -755.7256749347      1.98E-05
    8    -755.7256753624      4.55E-06
    9    -755.7256753880      7.66E-07
   10    -755.7256753886      3.07E-07
   11    -755.7256753887      4.90E-08
   12    -755.7256753888      1.71E-08
   13    -755.7256753888      3.12E-09 Convergence criterion met
 ---------------------------------------
 SCF time:  CPU 54.42 s  wall 2.30 s
 SCF   energy in the final basis set = -755.7256753888
 Total energy in the final basis set = -755.7256753888
 
 --------------------------------------------------------------
 
                    Orbital Energies (a.u.)
 --------------------------------------------------------------
 
 Alpha MOs
 -- Occupied --
-18.940 -18.929 -18.879 -18.872 -18.861 -10.104 -10.096 -10.068
-10.061 -10.059 -10.055 -10.038 -10.034 -10.017 -10.015  -1.024
 -1.012  -0.973  -0.942  -0.932  -0.765  -0.726  -0.711  -0.672
 -0.661  -0.597  -0.546  -0.536  -0.515  -0.480  -0.462  -0.453
 -0.432  -0.418  -0.417  -0.411  -0.407  -0.380  -0.366  -0.355
 -0.348  -0.340  -0.333  -0.323  -0.309  -0.305  -0.299  -0.283
 -0.273  -0.249  -0.241  -0.227  -0.180  -0.168  -0.155  -0.144
 -0.138
 -- Virtual --
  0.103   0.118   0.242   0.258   0.279   0.295   0.325   0.344
  0.359   0.363   0.375   0.382   0.395   0.414   0.420   0.422
  0.424   0.433   0.434   0.442   0.445   0.448   0.450   0.454
  0.467   0.476   0.501   0.518   0.554   0.561   0.664   0.669
 --------------------------------------------------------------
 
          Ground-State Mulliken Net Atomic Charges

     Atom                 Charge (a.u.)
  ----------------------------------------
      1 C                    -0.078655
      2 C                    -0.081423
      3 C                     0.224217
      4 C                     0.225912
      5 O                    -0.179976
      6 O                    -0.218034
      7 O                    -0.181937
      8 O                    -0.220171
      9 C                    -0.124281
     10 C                    -0.128910
     11 C                     0.025659
     12 C                    -0.145665
     13 C                    -0.144709
     14 C                     0.025027
     15 O                    -0.196063
     16 H                     0.087826
     17 H                     0.084669
     18 H                     0.097653
     19 H                     0.100192
     20 H                     0.084592
     21 H                     0.077816
     22 H                     0.072991
     23 H                     0.077536
     24 H                     0.071861
     25 H                     0.093575
     26 H                     0.084438
     27 H                     0.089312
     28 H                     0.089753
     29 H                     0.086796
  ----------------------------------------
  Sum of atomic charges =    -0.000000

 -----------------------------------------------------------------
                    Cartesian Multipole Moments
 -----------------------------------------------------------------
    Charge (ESU x 10^10)
                 0.0000
    Dipole Moment (Debye)
         X      -0.2469      Y      -1.3380      Z      -2.2556
       Tot       2.6342
    Quadrupole Moments (Debye-Ang)
        XX     -72.7184     XY       1.6707     YY     -77.0400
        XZ      -1.2231     YZ      -3.9736     ZZ     -84.2740
    Octopole Moments (Debye-Ang^2)
       XXX     -31.8737    XXY       2.2265    XYY     -20.4080
       YYY     -16.1327    XXZ      -1.6415    XYZ       3.1913
       YYZ       1.3470    XZZ      -5.1952    YZZ      -0.9741
       ZZZ       4.1432
    Hexadecapole Moments (Debye-Ang^3)
      XXXX   -1846.9712   XXXY      -8.6519   XXYY    -501.9459
      XYYY      24.6342   YYYY   -1426.3344   XXXZ      28.5708
      XXYZ       0.6301   XYYZ       9.0946   YYYZ     -47.2743
      XXZZ    -374.4471   XYZZ       4.9625   YYZZ    -298.8890
      XZZZ      -2.4690   YZZZ       2.4142   ZZZZ    -279.2497
 -----------------------------------------------------------------
 Calculating analytic gradient of the SCF energy
 Gradient of SCF Energy
            1           2           3           4           5           6
    1  -0.0040553   0.0000888  -0.0000017  -0.0071373  -0.0130035   0.0100678
    2   0.0112133  -0.0113891  -0.0164665  -0.0049183   0.0161599  -0.0063753
    3   0.0126400   0.0125673  -0.0070743  -0.0104555   0.0171044  -0.0111145
            7           8           9          10          11          12
    1   0.0065969   0.0018533   0.0081020   0.0105099  -0.0058849  -0.0062892
    2   0.0158546  -0.0071239  -0.0059767   0.0054859  -0.0003740   0.0055870
    3   0.0219645  -0.0117178  -0.0052468  -0.0069845  -0.0048163   0.0071508
           13          14          15          16          17          18
    1  -0.0078446  -0.0073000   0.0046514  -0.0011073   0.0008370  -0.0011264
    2  -0.0055166   0.0038396   0.0035247   0.0010659   0.0017611  -0.0016422
    3   0.0058183  -0.0030001  -0.0189867   0.0012390   0.0028762  -0.0030273
           19          20          21          22          23          24
    1   0.0001710   0.0019249   0.0003769   0.0014831  -0.0009438   0.0016825
    2  -0.0042888   0.0035450   0.0031043  -0.0003956  -0.0021115  -0.0009891
    3  -0.0012483  -0.0007695  -0.0007790   0.0019450  -0.0012245   0.0017153
           25          26          27          28          29
    1   0.0039444   0.0001539   0.0006828  -0.0017188   0.0032860
    2  -0.0035715  -0.0039014   0.0020710   0.0025527  -0.0007245
    3  -0.0020963  -0.0012112   0.0028792   0.0005894   0.0012633
 Max gradient component =       2.196E-02
 RMS gradient           =       7.054E-03
 Gradient time:  CPU 13.92 s  wall 0.58 s
 Geometry Optimization Parameters
   NAtoms,    NIC,     NZ,  NCons,   NDum,   NFix, NCnnct, MaxDiis
       29     227       0       2       0       0       0       0

 Cartesian Hessian Update
 Hessian Updated using BFGS Update


** CONSTRAINED OPTIMIZATION IN DELOCALIZED INTERNAL COORDINATES **
   Searching for a Minimum

   Optimization Cycle:   2

                       Coordinates (Angstroms)
     ATOM                X               Y               Z
      1  C         0.3895679844   -0.6387287292   -0.6196485928
      2  C         0.6211653821    0.8997226197   -0.5169119743
      3  C        -0.9071567772   -1.1831784356    0.0347332273
      4  C        -0.5704934625    1.7466223837    0.0050998284
      5  O        -1.1169765469   -2.4867329430   -0.4318623014
      6  O        -1.6137819912   -0.6063917957    0.8791721951
      7  O        -1.6769067006    1.5289909182   -0.8269149030
      8  O        -0.5331277868    2.5735215204    0.9330719964
      9  C        -2.8670863200    2.2472816913   -0.3905618134
     10  C        -2.2922882932   -3.1331387796    0.1342048686
     11  C         1.6341319990   -1.1696411376    0.1894640884
     12  C         2.9531340824   -0.9140801140   -0.6144338490
     13  C         3.1501379989    0.6210644398   -0.4115707651
     14  C         1.8744609714    0.9896837481    0.4160008296
     15  O         1.7390182286   -0.1901540202    1.2848879010
     16  H         0.4091653446   -0.9794917205   -1.6681911786
     17  H         0.8759979919    1.3116159273   -1.5093364802
     18  H        -2.9985706436    2.2006319018    0.7059512437
     19  H        -2.6260448751   -2.6527420219    1.0719321254
     20  H         1.5308892541   -2.1901839138    0.5931115230
     21  H         3.7925293263   -1.4640868716   -0.1649563992
     22  H         2.8779161403   -1.2103988434   -1.6707972069
     23  H         4.0541390811    0.8102726421    0.1850047256
     24  H         3.2412973510    1.1759013658   -1.3567376331
     25  H         1.9652244056    1.9102896691    1.0148863704
     26  H        -2.8313168302    3.3053048521   -0.7116742380
     27  H        -3.7357924199    1.7632580749   -0.8681443787
     28  H        -2.0350246648   -4.1857583614    0.3464696503
     29  H        -3.1191161653   -3.1152008569   -0.5995898548
   Point Group: c1    Number of degrees of freedom:    81


   Energy is   -755.725675389

              Constraints and their Current Values
                                        Value     Constraint
   Dihedral:        2   1   3   5      165.476      167.300
   Dihedral:        1   2   4   7      -57.657      -56.600
 Hessian Updated using BFGS Update

   Using Lagrange Multiplier Algorithm


 75 Hessian modes will be used to form the next step
  Hessian Eigenvalues:
    -0.977833   -0.975829    0.044994    0.045001    0.045016    0.045410
     0.045543    0.048627    0.058818    0.061814    0.065589    0.067901
     0.070811    0.072098    0.074339    0.075933    0.081726    0.083700
     0.084179    0.085496    0.086953    0.088246    0.091052    0.091420
     0.097084    0.098159    0.112205    0.112440    0.113359    0.116981
     0.117192    0.121504    0.122538    0.138182    0.141241    0.159008
     0.160980    0.168006    0.174490    0.240061    0.247185    0.248629
     0.249984    0.250199    0.257139    0.267258    0.268582    0.291927
     0.299320    0.308685    0.320412    0.328835    0.338144    0.340341
     0.341560    0.341946    0.342218    0.342756    0.343168    0.343722
     0.343868    0.343920    0.344073    0.344419    0.344646    0.345785
     0.377790    0.405810    0.414708    0.502005    0.516557    0.949253
     0.965511    1.022723    1.030139

 Minimum Search - Taking P-RFO Step
 Searching for Lamda that Maximizes Along the Constraint modes Only
 Value Taken    Lamda =   0.00086411
 Searching for Lamda that Minimizes Along All other modes
 Value Taken    Lamda =  -0.01094782
 Step Taken.  Stepsize is  0.223620

                             Maximum     Tolerance    Cnvgd?
         Gradient            0.032009       0.000300      NO
         Displacement        0.070783       0.001200      NO
         Energy change     -0.030339       0.000001      NO


 New Cartesian Coordinates Obtained by Inverse Iteration

 Displacement from previous Coordinates is:  0.696431
 Adding empirical dispersion correction 
 ----------------------------------------------------------------
 Doing -D3(op) with
 s6 =   1.00000
 s8 =   0.78311
 a1 =   0.30000
 a2 =   4.25000
 n  =  10.00000
 -D3 energy without 3body term =     -0.0301856652 hartrees
 ----------------------------------------------------------------
             Standard Nuclear Orientation (Angstroms)
    I     Atom           X                Y                Z
 ----------------------------------------------------------------
    1      C       0.4220325740    -0.6459760765    -0.6637217099
    2      C       0.6420948130     0.9085273596    -0.5304032658
    3      C      -0.9007955283    -1.1645305076    -0.0078688523
    4      C      -0.5892176783     1.7324856099    -0.0093150756
    5      O      -1.1113773339    -2.4998377802    -0.4560731603
    6      O      -1.6194789085    -0.5727360848     0.8287568096
    7      O      -1.6915273553     1.4789621659    -0.8763840620
    8      O      -0.6077559512     2.5317112873     0.9520744141
    9      C      -2.8884844892     2.1846441782    -0.3851484571
   10      C      -2.3244646287    -3.0632736127     0.1656601813
   11      C       1.6592049367    -1.1876387448     0.1770038935
   12      C       2.9863226352    -0.9148387426    -0.6296314659
   13      C       3.1770355304     0.6315193559    -0.3955517841
   14      C       1.8850648222     0.9721165941     0.4423958717
   15      O       1.7331363632    -0.2278637400     1.3031435452
   16      H       0.4667674231    -0.9861855943    -1.7135458909
   17      H       0.9084426142     1.3339865218    -1.5166915072
   18      H      -2.9848749853     2.1063455297     0.7166603429
   19      H      -2.6054726781    -2.4878317960     1.0708962569
   20      H       1.5389836131    -2.2195393358     0.5621590447
   21      H       3.8199443338    -1.4864920915    -0.1905061221
   22      H       2.8998229240    -1.1880816674    -1.6938451264
   23      H       4.0788174463     0.8271143729     0.2074862565
   24      H       3.2509081862     1.2097173270    -1.3308438583
   25      H       1.9379927188     1.8891382317     1.0612910213
   26      H      -2.8670182283     3.2590340935    -0.6648542700
   27      H      -3.7558604721     1.6990380059    -0.8708651666
   28      H      -2.1070647205    -4.1150243493     0.4352073733
   29      H      -3.1680859123    -3.0402372999    -0.5548262320
 ----------------------------------------------------------------
 Molecular Point Group                 C1    NOp =  1
 Largest Abelian Subgroup              C1    NOp =  1
 Nuclear Repulsion Energy =  1090.6812410653 hartrees
 There are       57 alpha and       57 beta electrons
 Applying Cartesian multipole field
    Component          Value
    ---------          -----
     (2,0,0)        1.00000E-11
     (0,2,0)        2.00000E-11
     (0,0,2)       -3.00000E-11
 Nucleus-field energy     =     0.0000000327 hartrees
 Requested basis set is STO-3G
 There are 44 shells and 89 basis functions
 A cutoff of  1.0D-12 yielded    865 shell pairs
 There are      3901 function pairs
 Smallest overlap matrix eigenvalue = 2.13E-01
 Guess MOs from SCF MO coefficient file
 Reading MOs from coefficient file
 Reading MOs from coefficient file
 A restricted hybrid HF-DFT SCF calculation will be
 performed using Pulay DIIS extrapolation
 Exchange:     0.2000 Hartree-Fock + 0.0800 Slater + 0.7200 B88
 Correlation:  0.1900 VWN1RPA + 0.8100 LYP
 Using SG-1 standard quadrature grid
 Dispersion:   Grimme D3
 SCF converges when DIIS error is below 1.0E-08
 Geometry optimization detected.  Setting ReadMinima to 0
 Setting SaveMinima to 0
 -------------------------------------------------------
 OpenMP Integral computing Module                
 Release: version 1.0, May 2013, Q-Chem Inc. Pittsburgh 
 -------------------------------------------------------
 -------------------------------------------------------
 OpenMP BLAS3 based DFT computing Module                
 Release: version 1.0, May 2013, Q-Chem Inc. Pittsburgh 
 -------------------------------------------------------
 ---------------------------------------
  Cycle       Energy         DIIS Error
 ---------------------------------------
    1    -755.6415017365      4.12E-03
    2    -755.7291554016      1.35E-03
    3    -755.7252653329      2.33E-03
    4    -755.7310902145      3.99E-04
    5    -755.7312763073      8.60E-05
    6    -755.7312851295      2.13E-05
    7    -755.7312853129      1.83E-05
    8    -755.7312856825      3.91E-06
    9    -755.7312857020      5.64E-07
   10    -755.7312857023      2.75E-07
   11    -755.7312857024      3.46E-08
   12    -755.7312857024      1.34E-08
   13    -755.7312857024      3.38E-09 Convergence criterion met
 ---------------------------------------
 SCF time:  CPU 54.12 s  wall 2.28 s
 SCF   energy in the final basis set = -755.7312857024
 Total energy in the final basis set = -755.7312857024
 
 --------------------------------------------------------------
 
                    Orbital Energies (a.u.)
 --------------------------------------------------------------
 
 Alpha MOs
 -- Occupied --
-18.937 -18.926 -18.884 -18.876 -18.865 -10.101 -10.093 -10.062
-10.059 -10.057 -10.055 -10.038 -10.033 -10.019 -10.018  -1.016
 -1.003  -0.968  -0.938  -0.928  -0.762  -0.722  -0.706  -0.665
 -0.654  -0.593  -0.544  -0.536  -0.510  -0.475  -0.456  -0.451
 -0.430  -0.414  -0.413  -0.406  -0.403  -0.376  -0.361  -0.353
 -0.344  -0.339  -0.330  -0.322  -0.310  -0.303  -0.297  -0.280
 -0.271  -0.252  -0.245  -0.232  -0.180  -0.167  -0.157  -0.145
 -0.141
 -- Virtual --
  0.098   0.114   0.240   0.253   0.273   0.284   0.314   0.333
  0.345   0.348   0.361   0.373   0.387   0.406   0.411   0.419
  0.422   0.427   0.430   0.435   0.437   0.440   0.444   0.445
  0.453   0.468   0.491   0.509   0.545   0.552   0.648   0.653
 --------------------------------------------------------------
 
          Ground-State Mulliken Net Atomic Charges

     Atom                 Charge (a.u.)
  ----------------------------------------
      1 C                    -0.077085
      2 C                    -0.080418
      3 C                     0.216993
      4 C                     0.217863
      5 O                    -0.172405
      6 O                    -0.212280
      7 O                    -0.175473
      8 O                    -0.215041
      9 C                    -0.126483
     10 C                    -0.133024
     11 C                     0.024868
     12 C                    -0.144195
     13 C                    -0.143135
     14 C                     0.023572
     15 O                    -0.190268
     16 H                     0.087272
     17 H                     0.082910
     18 H                     0.097454
     19 H                     0.101050
     20 H                     0.083710
     21 H                     0.077606
     22 H                     0.073447
     23 H                     0.077441
     24 H                     0.072616
     25 H                     0.091156
     26 H                     0.082697
     27 H                     0.087098
     28 H                     0.087496
     29 H                     0.084562
  ----------------------------------------
  Sum of atomic charges =     0.000000

 -----------------------------------------------------------------
                    Cartesian Multipole Moments
 -----------------------------------------------------------------
    Charge (ESU x 10^10)
                 0.0000
    Dipole Moment (Debye)
         X      -0.0266      Y      -1.1861      Z      -2.1632
       Tot       2.4672
    Quadrupole Moments (Debye-Ang)
        XX     -72.8414     XY       1.7159     YY     -77.6592
        XZ      -1.4512     YZ      -3.8151     ZZ     -84.1916
    Octopole Moments (Debye-Ang^2)
       XXX     -30.7555    XXY       2.2137    XYY     -17.7582
       YYY     -11.2112    XXZ      -0.9659    XYZ       3.5249
       YYZ       2.5633    XZZ      -4.7549    YZZ      -0.5168
       ZZZ       6.0309
    Hexadecapole Moments (Debye-Ang^3)
      XXXX   -1881.3232   XXXY      -4.0599   XXYY    -505.3900
      XYYY      24.1594   YYYY   -1393.0689   XXXZ      28.9287
      XXYZ       0.3411   XYYZ       8.4756   YYYZ     -47.3581
      XXZZ    -381.2196   XYZZ       6.7181   YYZZ    -293.7456
      XZZZ      -2.5980   YZZZ       1.8198   ZZZZ    -285.5484
 -----------------------------------------------------------------
 Calculating analytic gradient of the SCF energy
 Gradient of SCF Energy
            1           2           3           4           5           6
    1  -0.0002971   0.0005744  -0.0022974  -0.0049043  -0.0001068  -0.0007075
    2   0.0035938  -0.0049635  -0.0067269   0.0008463   0.0021872   0.0007663
    3  -0.0003127   0.0059824  -0.0031680  -0.0067987   0.0026911  -0.0000090
            7           8           9          10          11          12
    1   0.0009679   0.0005215   0.0047682   0.0043242  -0.0006953  -0.0028141
    2  -0.0001505   0.0017331  -0.0015286   0.0048806  -0.0015832   0.0003869
    3   0.0043616   0.0009081   0.0000051  -0.0022187  -0.0023866   0.0000117
           13          14          15          16          17          18
    1  -0.0025008  -0.0021485   0.0018066   0.0007900   0.0001275  -0.0002005
    2  -0.0000454   0.0019852  -0.0007483   0.0002062   0.0011066   0.0001349
    3  -0.0005618  -0.0018536  -0.0002836  -0.0002868   0.0000751   0.0004288
           19          20          21          22          23          24
    1  -0.0006318   0.0000759   0.0001803   0.0010409   0.0001220   0.0013934
    2  -0.0008042   0.0000619   0.0001912  -0.0008523  -0.0003563   0.0005421
    3   0.0008226   0.0014384   0.0004658  -0.0000825   0.0003717   0.0001860
           25          26          27          28          29
    1   0.0008505  -0.0000888  -0.0000015   0.0001661  -0.0003151
    2   0.0000008   0.0001043  -0.0005916  -0.0002567  -0.0001200
    3   0.0002945  -0.0004497   0.0000937   0.0004138  -0.0001387
 Max gradient component =       6.799E-03
 RMS gradient           =       2.053E-03
 Gradient time:  CPU 14.40 s  wall 0.61 s
 Geometry Optimization Parameters
   NAtoms,    NIC,     NZ,  NCons,   NDum,   NFix, NCnnct, MaxDiis
       29     227       0       2       0       0       0       0

 Cartesian Hessian Update
 Hessian Updated using BFGS Update


** CONSTRAINED OPTIMIZATION IN DELOCALIZED INTERNAL COORDINATES **
   Searching for a Minimum

   Optimization Cycle:   3

                       Coordinates (Angstroms)
     ATOM                X               Y               Z
      1  C         0.4220325740   -0.6459760765   -0.6637217099
      2  C         0.6420948130    0.9085273596   -0.5304032658
      3  C        -0.9007955283   -1.1645305076   -0.0078688523
      4  C        -0.5892176783    1.7324856099   -0.0093150756
      5  O        -1.1113773339   -2.4998377802   -0.4560731603
      6  O        -1.6194789085   -0.5727360848    0.8287568096
      7  O        -1.6915273553    1.4789621659   -0.8763840620
      8  O        -0.6077559512    2.5317112873    0.9520744141
      9  C        -2.8884844892    2.1846441782   -0.3851484571
     10  C        -2.3244646287   -3.0632736127    0.1656601813
     11  C         1.6592049367   -1.1876387448    0.1770038935
     12  C         2.9863226352   -0.9148387426   -0.6296314659
     13  C         3.1770355304    0.6315193559   -0.3955517841
     14  C         1.8850648222    0.9721165941    0.4423958717
     15  O         1.7331363632   -0.2278637400    1.3031435452
     16  H         0.4667674231   -0.9861855943   -1.7135458909
     17  H         0.9084426142    1.3339865218   -1.5166915072
     18  H        -2.9848749853    2.1063455297    0.7166603429
     19  H        -2.6054726781   -2.4878317960    1.0708962569
     20  H         1.5389836131   -2.2195393358    0.5621590447
     21  H         3.8199443338   -1.4864920915   -0.1905061221
     22  H         2.8998229240   -1.1880816674   -1.6938451264
     23  H         4.0788174463    0.8271143729    0.2074862565
     24  H         3.2509081862    1.2097173270   -1.3308438583
     25  H         1.9379927188    1.8891382317    1.0612910213
     26  H        -2.8670182283    3.2590340935   -0.6648542700
     27  H        -3.7558604721    1.6990380059   -0.8708651666
     28  H        -2.1070647205   -4.1150243493    0.4352073733
     29  H        -3.1680859123   -3.0402372999   -0.5548262320
   Point Group: c1    Number of degrees of freedom:    81


   Energy is   -755.731285702

              Constraints and their Current Values
                                        Value     Constraint
   Dihedral:        2   1   3   5      167.290      167.300
   Dihedral:        1   2   4   7      -56.602      -56.600
 Hessian Updated using BFGS Update

   Using Lagrange Multiplier Algorithm


 78 Hessian modes will be used to form the next step
  Hessian Eigenvalues:
    -0.977774   -0.976319    0.044456    0.045000    0.045006    0.045047
     0.045230    0.045605    0.048443    0.058758    0.060516    0.065602
     0.067698    0.070867    0.071898    0.074387    0.075931    0.081726
     0.083068    0.084187    0.085122    0.086930    0.088247    0.091090
     0.091464    0.095931    0.098149    0.111869    0.112747    0.113293
     0.116981    0.117184    0.121843    0.122576    0.138065    0.141240
     0.157380    0.160607    0.160985    0.170305    0.174777    0.244660
     0.248560    0.249344    0.249993    0.250168    0.255165    0.266912
     0.268201    0.276098    0.291907    0.299818    0.308724    0.318023
     0.329492    0.338152    0.340123    0.341200    0.341636    0.342278
     0.342347    0.343028    0.343481    0.343876    0.343919    0.344070
     0.344398    0.344878    0.345862    0.367985    0.393266    0.411733
     0.476708    0.516548    0.949684    0.977650    1.022883    1.030395

 Minimum Search - Taking P-RFO Step
 Searching for Lamda that Maximizes Along the Constraint modes Only
 Value Taken    Lamda =   0.00000477
 Searching for Lamda that Minimizes Along All other modes
 Value Taken    Lamda =  -0.00098960
 Step Taken.  Stepsize is  0.098655

                             Maximum     Tolerance    Cnvgd?
         Gradient            0.006820       0.000300      NO
         Displacement        0.031095       0.001200      NO
         Energy change     -0.005610       0.000001      NO


 New Cartesian Coordinates Obtained by Inverse Iteration

 Displacement from previous Coordinates is:  0.236805
 Adding empirical dispersion correction 
 ----------------------------------------------------------------
 Doing -D3(op) with
 s6 =   1.00000
 s8 =   0.78311
 a1 =   0.30000
 a2 =   4.25000
 n  =  10.00000
 -D3 energy without 3body term =     -0.0302008385 hartrees
 ----------------------------------------------------------------
             Standard Nuclear Orientation (Angstroms)
    I     Atom           X                Y                Z
 ----------------------------------------------------------------
    1      C       0.4265747060    -0.6444375443    -0.6718053482
    2      C       0.6524520737     0.9137826163    -0.5269848742
    3      C      -0.8927218390    -1.1580232531     0.0006956706
    4      C      -0.5847808697     1.7339779963    -0.0053730303
    5      O      -1.1265152219    -2.4983134026    -0.4514597579
    6      O      -1.5928238278    -0.5667177089     0.8534043462
    7      O      -1.6903157545     1.4856573248    -0.8854718073
    8      O      -0.6144433707     2.5181395481     0.9671245553
    9      C      -2.9051247670     2.1849394500    -0.4060232317
   10      C      -2.3389772325    -3.0698749028     0.1840144035
   11      C       1.6673647310    -1.1906192658     0.1663527521
   12      C       2.9976844556    -0.9106267205    -0.6389218459
   13      C       3.1898751743     0.6326137102    -0.3864664561
   14      C       1.8950203110     0.9631636143     0.4544761151
   15      O       1.7331894584    -0.2431097028     1.3042315559
   16      H       0.4638007500    -0.9781380881    -1.7236176571
   17      H       0.9199923870     1.3424273114    -1.5109358804
   18      H      -3.0197582868     2.0878995394     0.6918890634
   19      H      -2.5996646150    -2.4893190729     1.0913050950
   20      H       1.5428035789    -2.2278580176     0.5344310301
   21      H       3.8312652010    -1.4920144350    -0.2131845457
   22      H       2.9001517388    -1.1654931759    -1.7064488306
   23      H       4.0937186180     0.8268404673     0.2135890260
   24      H       3.2509710336     1.2191293657    -1.3171256825
   25      H       1.9393118680     1.8762787753     1.0798655430
   26      H      -2.8779134137     3.2643095504    -0.6644060618
   27      H      -3.7628430109     1.7094337976    -0.9176158282
   28      H      -2.1223704501    -4.1238933292     0.4427818648
   29      H      -3.1908313616    -3.0359012379    -0.5256611785
 ----------------------------------------------------------------
 Molecular Point Group                 C1    NOp =  1
 Largest Abelian Subgroup              C1    NOp =  1
 Nuclear Repulsion Energy =  1088.4606813478 hartrees
 There are       57 alpha and       57 beta electrons
 Applying Cartesian multipole field
    Component          Value
    ---------          -----
     (2,0,0)        1.00000E-11
     (0,2,0)        2.00000E-11
     (0,0,2)       -3.00000E-11
 Nucleus-field energy     =     0.0000000327 hartrees
 Requested basis set is STO-3G
 There are 44 shells and 89 basis functions
 A cutoff of  1.0D-12 yielded    863 shell pairs
 There are      3893 function pairs
 Smallest overlap matrix eigenvalue = 2.13E-01
 Guess MOs from SCF MO coefficient file
 Reading MOs from coefficient file
 Reading MOs from coefficient file
 A restricted hybrid HF-DFT SCF calculation will be
 performed using Pulay DIIS extrapolation
 Exchange:     0.2000 Hartree-Fock + 0.0800 Slater + 0.7200 B88
 Correlation:  0.1900 VWN1RPA + 0.8100 LYP
 Using SG-1 standard quadrature grid
 Dispersion:   Grimme D3
 SCF converges when DIIS error is below 1.0E-08
 Geometry optimization detected.  Setting ReadMinima to 0
 Setting SaveMinima to 0
 -------------------------------------------------------
 OpenMP Integral computing Module                
 Release: version 1.0, May 2013, Q-Chem Inc. Pittsburgh 
 -------------------------------------------------------
 -------------------------------------------------------
 OpenMP BLAS3 based DFT computing Module                
 Release: version 1.0, May 2013, Q-Chem Inc. Pittsburgh 
 -------------------------------------------------------
 ---------------------------------------
  Cycle       Energy         DIIS Error
 ---------------------------------------
    1    -755.7161771127      1.56E-03
    2    -755.7315220636      4.30E-04
    3    -755.7307758159      9.20E-04
    4    -755.7317361268      6.08E-05
    5    -755.7317400523      2.38E-05
    6    -755.7317406256      9.30E-06
    7    -755.7317406879      5.81E-06
    8    -755.7317407266      7.70E-07
    9    -755.7317407273      1.75E-07
   10    -755.7317407273      7.64E-08
   11    -755.7317407273      9.38E-09 Convergence criterion met
 ---------------------------------------
 SCF time:  CPU 45.83 s  wall 1.93 s
 SCF   energy in the final basis set = -755.7317407273
 Total energy in the final basis set = -755.7317407273
 
 --------------------------------------------------------------
 
                    Orbital Energies (a.u.)
 --------------------------------------------------------------
 
 Alpha MOs
 -- Occupied --
-18.933 -18.922 -18.885 -18.877 -18.866 -10.100 -10.093 -10.061
-10.060 -10.056 -10.055 -10.038 -10.033 -10.020 -10.018  -1.011
 -0.999  -0.968  -0.936  -0.926  -0.761  -0.721  -0.705  -0.663
 -0.653  -0.593  -0.544  -0.536  -0.509  -0.472  -0.455  -0.451
 -0.430  -0.414  -0.411  -0.405  -0.402  -0.375  -0.360  -0.353
 -0.344  -0.340  -0.330  -0.322  -0.310  -0.303  -0.297  -0.279
 -0.271  -0.250  -0.244  -0.233  -0.178  -0.165  -0.157  -0.146
 -0.142
 -- Virtual --
  0.097   0.114   0.235   0.250   0.268   0.283   0.312   0.332
  0.343   0.346   0.357   0.372   0.384   0.404   0.410   0.419
  0.422   0.425   0.429   0.434   0.437   0.439   0.443   0.444
  0.452   0.467   0.489   0.508   0.543   0.552   0.646   0.652
 --------------------------------------------------------------
 
          Ground-State Mulliken Net Atomic Charges

     Atom                 Charge (a.u.)
  ----------------------------------------
      1 C                    -0.076625
      2 C                    -0.080014
      3 C                     0.215199
      4 C                     0.216023
      5 O                    -0.172162
      6 O                    -0.210887
      7 O                    -0.175385
      8 O                    -0.213736
      9 C                    -0.128105
     10 C                    -0.134294
     11 C                     0.024765
     12 C                    -0.144212
     13 C                    -0.143104
     14 C                     0.023695
     15 O                    -0.189186
     16 H                     0.087550
     17 H                     0.082823
     18 H                     0.096886
     19 H                     0.100590
     20 H                     0.083656
     21 H                     0.077983
     22 H                     0.073786
     23 H                     0.077867
     24 H                     0.073018
     25 H                     0.091022
     26 H                     0.082690
     27 H                     0.087398
     28 H                     0.088067
     29 H                     0.084693
  ----------------------------------------
  Sum of atomic charges =    -0.000000

 -----------------------------------------------------------------
                    Cartesian Multipole Moments
 -----------------------------------------------------------------
    Charge (ESU x 10^10)
                 0.0000
    Dipole Moment (Debye)
         X       0.0130      Y      -1.1553      Z      -2.1734
       Tot       2.4614
    Quadrupole Moments (Debye-Ang)
        XX     -72.5617     XY       1.7431     YY     -77.5915
        XZ      -1.4501     YZ      -3.8150     ZZ     -84.2873
    Octopole Moments (Debye-Ang^2)
       XXX     -31.7335    XXY       2.2556    XYY     -18.0224
       YYY     -10.9868    XXZ      -1.1967    XYZ       3.8389
       YYZ       2.5294    XZZ      -4.7851    YZZ      -0.4603
       ZZZ       5.4097
    Hexadecapole Moments (Debye-Ang^3)
      XXXX   -1889.3623   XXXY      -4.4626   XXYY    -506.4072
      XYYY      24.6786   YYYY   -1388.7500   XXXZ      29.7183
      XXYZ       0.5492   XYYZ       8.1828   YYYZ     -45.3331
      XXZZ    -384.0396   XYZZ       6.8971   YYZZ    -294.9107
      XZZZ      -2.1882   YZZZ       3.8876   ZZZZ    -289.5633
 -----------------------------------------------------------------
 Calculating analytic gradient of the SCF energy
 Gradient of SCF Energy
            1           2           3           4           5           6
    1  -0.0010549   0.0020159   0.0007994   0.0010824   0.0002818  -0.0009001
    2   0.0013312  -0.0020828   0.0001280   0.0019531   0.0000588   0.0008834
    3  -0.0030522   0.0053211  -0.0020828  -0.0046079   0.0015769   0.0007056
            7           8           9          10          11          12
    1  -0.0001554   0.0002790  -0.0020255  -0.0008418   0.0000166  -0.0004530
    2  -0.0014351   0.0010376  -0.0004523  -0.0022430  -0.0007467  -0.0002634
    3   0.0021516   0.0009087  -0.0003359  -0.0002254  -0.0009301  -0.0009915
           13          14          15          16          17          18
    1  -0.0004595   0.0002098   0.0006108   0.0008941  -0.0004579   0.0002298
    2   0.0000926   0.0004603  -0.0004090   0.0004965   0.0007458   0.0003951
    3  -0.0007878  -0.0008073   0.0019435  -0.0001574   0.0002154  -0.0001069
           19          20          21          22          23          24
    1   0.0003327  -0.0004467   0.0001882   0.0004729   0.0001054   0.0005468
    2   0.0001882   0.0002318   0.0001782  -0.0004961  -0.0002324   0.0002852
    3  -0.0003193   0.0007076   0.0003526   0.0000279   0.0002754   0.0001458
           25          26          27          28          29
    1   0.0000295  -0.0002322  -0.0004372  -0.0003607  -0.0002701
    2   0.0001119   0.0001037   0.0000248  -0.0003693   0.0000239
    3   0.0000215  -0.0001207   0.0001260  -0.0000647   0.0001104
 Max gradient component =       5.321E-03
 RMS gradient           =       1.162E-03
 Gradient time:  CPU 14.36 s  wall 0.60 s
 Geometry Optimization Parameters
   NAtoms,    NIC,     NZ,  NCons,   NDum,   NFix, NCnnct, MaxDiis
       29     227       0       2       0       0       0       0

 Cartesian Hessian Update
 Hessian Updated using BFGS Update


** CONSTRAINED OPTIMIZATION IN DELOCALIZED INTERNAL COORDINATES **
   Searching for a Minimum

   Optimization Cycle:   4

                       Coordinates (Angstroms)
     ATOM                X               Y               Z
      1  C         0.4265747060   -0.6444375443   -0.6718053482
      2  C         0.6524520737    0.9137826163   -0.5269848742
      3  C        -0.8927218390   -1.1580232531    0.0006956706
      4  C        -0.5847808697    1.7339779963   -0.0053730303
      5  O        -1.1265152219   -2.4983134026   -0.4514597579
      6  O        -1.5928238278   -0.5667177089    0.8534043462
      7  O        -1.6903157545    1.4856573248   -0.8854718073
      8  O        -0.6144433707    2.5181395481    0.9671245553
      9  C        -2.9051247670    2.1849394500   -0.4060232317
     10  C        -2.3389772325   -3.0698749028    0.1840144035
     11  C         1.6673647310   -1.1906192658    0.1663527521
     12  C         2.9976844556   -0.9106267205   -0.6389218459
     13  C         3.1898751743    0.6326137102   -0.3864664561
     14  C         1.8950203110    0.9631636143    0.4544761151
     15  O         1.7331894584   -0.2431097028    1.3042315559
     16  H         0.4638007500   -0.9781380881   -1.7236176571
     17  H         0.9199923870    1.3424273114   -1.5109358804
     18  H        -3.0197582868    2.0878995394    0.6918890634
     19  H        -2.5996646150   -2.4893190729    1.0913050950
     20  H         1.5428035789   -2.2278580176    0.5344310301
     21  H         3.8312652010   -1.4920144350   -0.2131845457
     22  H         2.9001517388   -1.1654931759   -1.7064488306
     23  H         4.0937186180    0.8268404673    0.2135890260
     24  H         3.2509710336    1.2191293657   -1.3171256825
     25  H         1.9393118680    1.8762787753    1.0798655430
     26  H        -2.8779134137    3.2643095504   -0.6644060618
     27  H        -3.7628430109    1.7094337976   -0.9176158282
     28  H        -2.1223704501   -4.1238933292    0.4427818648
     29  H        -3.1908313616   -3.0359012379   -0.5256611785
   Point Group: c1    Number of degrees of freedom:    81


   Energy is   -755.731740727

              Constraints and their Current Values
                                        Value     Constraint
   Dihedral:        2   1   3   5      167.300      167.300
   Dihedral:        1   2   4   7      -56.600      -56.600
 Hessian Updated using BFGS Update

   Using Lagrange Multiplier Algorithm


 79 Hessian modes will be used to form the next step
  Hessian Eigenvalues:
    -0.977687    0.032961    0.045000    0.045006    0.045014    0.045055
     0.045220    0.045585    0.047781    0.056736    0.059057    0.065593
     0.067457    0.070569    0.071820    0.074384    0.075887    0.081665
     0.082444    0.084212    0.084819    0.086836    0.088224    0.091100
     0.091475    0.096042    0.098172    0.112402    0.112654    0.113695
     0.116982    0.117275    0.122091    0.123057    0.138491    0.141232
     0.158276    0.160058    0.160858    0.162262    0.170330    0.175132
     0.243710    0.248117    0.249035    0.250000    0.250040    0.250313
     0.254590    0.267137    0.268109    0.291831    0.293963    0.301091
     0.309098    0.324305    0.329534    0.338285    0.340405    0.341579
     0.342142    0.342266    0.342975    0.343389    0.343868    0.343899
     0.344053    0.344378    0.344515    0.345596    0.346255    0.385294
     0.410841    0.449589    0.514860    0.561802    0.949389    0.979999
     1.023148

 Minimum Search - Taking P-RFO Step
 Searching for Lamda that Maximizes Along the Constraint modes Only
 Value Taken    Lamda =   0.00000029
 Searching for Lamda that Minimizes Along All other modes
 Value Taken    Lamda =  -0.00026338
 Step Taken.  Stepsize is  0.066571

                             Maximum     Tolerance    Cnvgd?
         Gradient            0.003746       0.000300      NO
         Displacement        0.020346       0.001200      NO
         Energy change     -0.000455       0.000001      NO


 New Cartesian Coordinates Obtained by Inverse Iteration

 Displacement from previous Coordinates is:  0.214091
 Adding empirical dispersion correction 
 ----------------------------------------------------------------
 Doing -D3(op) with
 s6 =   1.00000
 s8 =   0.78311
 a1 =   0.30000
 a2 =   4.25000
 n  =  10.00000
 -D3 energy without 3body term =     -0.0302670249 hartrees
 ----------------------------------------------------------------
             Standard Nuclear Orientation (Angstroms)
    I     Atom           X                Y                Z
 ----------------------------------------------------------------
    1      C       0.4283628612    -0.6476821736    -0.6814469402
    2      C       0.6551559003     0.9101590021    -0.5274819682
    3      C      -0.8878721487    -1.1563590900    -0.0016285725
    4      C      -0.5871619377     1.7213283983    -0.0066560761
    5      O      -1.1340050746    -2.4944418285    -0.4558561162
    6      O      -1.5766620536    -0.5659025690     0.8599457172
    7      O      -1.6860474567     1.4718386114    -0.8970618546
    8      O      -0.6299487990     2.4952022831     0.9725524898
    9      C      -2.9009748597     2.1677416036    -0.4137019151
   10      C      -2.3465156234    -3.0455877073     0.1977099488
   11      C       1.6710267415    -1.1944625480     0.1554405446
   12      C       3.0034715500    -0.9032314935    -0.6435966143
   13      C       3.1911430627     0.6377048499    -0.3767054278
   14      C       1.8920671429     0.9563168423     0.4619219869
   15      O       1.7270882744    -0.2556276295     1.3002464914
   16      H       0.4603049835    -0.9779982910    -1.7343948624
   17      H       0.9262104504     1.3413456578    -1.5092311086
   18      H      -3.0246441385     2.0499887546     0.6813071765
   19      H      -2.5909549698    -2.4558004691     1.1038435649
   20      H       1.5489806387    -2.2360344152     0.5113702148
   21      H       3.8377842205    -1.4885458798    -0.2255429929
   22      H       2.9035502707    -1.1444452103    -1.7139257132
   23      H       4.0937977602     0.8333954460     0.2240879170
   24      H       3.2459601917     1.2302853522    -1.3037256639
   25      H       1.9283725310     1.8656258145     1.0931590704
   26      H      -2.8671918785     3.2512870894    -0.6524315185
   27      H      -3.7548480414     1.7038774715    -0.9413841803
   28      H      -2.1373188443    -4.0996756861     0.4603398686
   29      H      -3.2040386896    -3.0060489763    -0.5044944617
 ----------------------------------------------------------------
 Molecular Point Group                 C1    NOp =  1
 Largest Abelian Subgroup              C1    NOp =  1
 Nuclear Repulsion Energy =  1089.8873109357 hartrees
 There are       57 alpha and       57 beta electrons
 Applying Cartesian multipole field
    Component          Value
    ---------          -----
     (2,0,0)        1.00000E-11
     (0,2,0)        2.00000E-11
     (0,0,2)       -3.00000E-11
 Nucleus-field energy     =     0.0000000324 hartrees
 Requested basis set is STO-3G
 There are 44 shells and 89 basis functions
 A cutoff of  1.0D-12 yielded    863 shell pairs
 There are      3893 function pairs
 Smallest overlap matrix eigenvalue = 2.13E-01
 Guess MOs from SCF MO coefficient file
 Reading MOs from coefficient file
 Reading MOs from coefficient file
 A restricted hybrid HF-DFT SCF calculation will be
 performed using Pulay DIIS extrapolation
 Exchange:     0.2000 Hartree-Fock + 0.0800 Slater + 0.7200 B88
 Correlation:  0.1900 VWN1RPA + 0.8100 LYP
 Using SG-1 standard quadrature grid
 Dispersion:   Grimme D3
 SCF converges when DIIS error is below 1.0E-08
 Geometry optimization detected.  Setting ReadMinima to 0
 Setting SaveMinima to 0
 -------------------------------------------------------
 OpenMP Integral computing Module                
 Release: version 1.0, May 2013, Q-Chem Inc. Pittsburgh 
 -------------------------------------------------------
 -------------------------------------------------------
 OpenMP BLAS3 based DFT computing Module                
 Release: version 1.0, May 2013, Q-Chem Inc. Pittsburgh 
 -------------------------------------------------------
 ---------------------------------------
  Cycle       Energy         DIIS Error
 ---------------------------------------
    1    -755.7315170716      9.89E-04
    2    -755.7318892333      8.87E-05
    3    -755.7318736882      1.59E-04
    4    -755.7319011902      3.37E-05
    5    -755.7319023583      1.14E-05
    6    -755.7319025026      3.14E-06
    7    -755.7319025139      1.12E-06
    8    -755.7319025149      6.71E-07
    9    -755.7319025154      7.47E-08
   10    -755.7319025154      2.58E-08
   11    -755.7319025154      7.54E-09 Convergence criterion met
 ---------------------------------------
 SCF time:  CPU 44.64 s  wall 1.88 s
 SCF   energy in the final basis set = -755.7319025154
 Total energy in the final basis set = -755.7319025154
 
 --------------------------------------------------------------
 
                    Orbital Energies (a.u.)
 --------------------------------------------------------------
 
 Alpha MOs
 -- Occupied --
-18.934 -18.922 -18.886 -18.878 -18.866 -10.100 -10.092 -10.060
-10.060 -10.056 -10.056 -10.038 -10.033 -10.020 -10.018  -1.012
 -0.999  -0.968  -0.937  -0.927  -0.761  -0.722  -0.705  -0.663
 -0.653  -0.593  -0.544  -0.536  -0.509  -0.472  -0.455  -0.451
 -0.430  -0.414  -0.411  -0.405  -0.402  -0.375  -0.360  -0.353
 -0.344  -0.340  -0.331  -0.323  -0.310  -0.303  -0.297  -0.279
 -0.271  -0.251  -0.245  -0.233  -0.178  -0.165  -0.157  -0.146
 -0.143
 -- Virtual --
  0.097   0.114   0.237   0.251   0.269   0.284   0.312   0.331
  0.342   0.345   0.357   0.372   0.384   0.404   0.409   0.420
  0.423   0.425   0.430   0.434   0.437   0.439   0.443   0.445
  0.451   0.467   0.489   0.508   0.543   0.552   0.646   0.653
 --------------------------------------------------------------
 
          Ground-State Mulliken Net Atomic Charges

     Atom                 Charge (a.u.)
  ----------------------------------------
      1 C                    -0.076748
      2 C                    -0.080185
      3 C                     0.215571
      4 C                     0.216041
      5 O                    -0.171385
      6 O                    -0.210870
      7 O                    -0.175502
      8 O                    -0.213598
      9 C                    -0.128523
     10 C                    -0.135057
     11 C                     0.024903
     12 C                    -0.144295
     13 C                    -0.143136
     14 C                     0.023929
     15 O                    -0.189318
     16 H                     0.087639
     17 H                     0.082639
     18 H                     0.096804
     19 H                     0.101215
     20 H                     0.083600
     21 H                     0.078207
     22 H                     0.073856
     23 H                     0.077987
     24 H                     0.073080
     25 H                     0.091075
     26 H                     0.082716
     27 H                     0.087056
     28 H                     0.087773
     29 H                     0.084525
  ----------------------------------------
  Sum of atomic charges =    -0.000000

 -----------------------------------------------------------------
                    Cartesian Multipole Moments
 -----------------------------------------------------------------
    Charge (ESU x 10^10)
                 0.0000
    Dipole Moment (Debye)
         X       0.0444      Y      -1.1239      Z      -2.1678
       Tot       2.4423
    Quadrupole Moments (Debye-Ang)
        XX     -72.5716     XY       1.7523     YY     -77.6995
        XZ      -1.4506     YZ      -3.7870     ZZ     -84.3265
    Octopole Moments (Debye-Ang^2)
       XXX     -31.5570    XXY       2.3286    XYY     -17.3687
       YYY      -9.5085    XXZ      -1.0237    XYZ       4.0564
       YYZ       2.7533    XZZ      -4.6957    YZZ      -0.2227
       ZZZ       5.5690
    Hexadecapole Moments (Debye-Ang^3)
      XXXX   -1890.1639   XXXY      -4.6033   XXYY    -505.5612
      XYYY      23.0577   YYYY   -1374.0491   XXXZ      30.1297
      XXYZ       0.5847   XYYZ       8.0480   YYYZ     -44.1199
      XXZZ    -384.4344   XYZZ       6.9469   YYZZ    -292.7620
      XZZZ      -1.6542   YZZZ       4.7122   ZZZZ    -291.5657
 -----------------------------------------------------------------
 Calculating analytic gradient of the SCF energy
 Gradient of SCF Energy
            1           2           3           4           5           6
    1  -0.0021035   0.0019777  -0.0008424   0.0010643   0.0013551  -0.0004542
    2   0.0000554  -0.0018074   0.0013763   0.0032766  -0.0015050  -0.0001046
    3  -0.0041290   0.0056315  -0.0005734  -0.0029768   0.0000263   0.0000351
            7           8           9          10          11          12
    1  -0.0006813   0.0000336  -0.0013237  -0.0008396   0.0002899   0.0004329
    2  -0.0025821   0.0002001   0.0000804  -0.0004793  -0.0001287  -0.0004495
    3   0.0007612   0.0003236   0.0003466   0.0005889  -0.0001671  -0.0007012
           13          14          15          16          17          18
    1   0.0001248   0.0006441   0.0001826   0.0007626  -0.0004649   0.0002471
    2   0.0000031  -0.0000775   0.0003614   0.0004912   0.0003088   0.0002802
    3  -0.0004171   0.0000710   0.0010807  -0.0001612   0.0000367   0.0000173
           19          20          21          22          23          24
    1   0.0000746  -0.0005444   0.0000992   0.0000936  -0.0000549   0.0000630
    2   0.0001658   0.0002486   0.0002583  -0.0002464  -0.0000866   0.0000939
    3   0.0000068   0.0002008   0.0001975   0.0001051   0.0001314   0.0000817
           25          26          27          28          29
    1  -0.0000798  -0.0000924   0.0000253   0.0000593  -0.0000485
    2   0.0001459   0.0000359  -0.0001288   0.0000470   0.0001670
    3  -0.0001461  -0.0002310   0.0001100  -0.0002364  -0.0000128
 Max gradient component =       5.631E-03
 RMS gradient           =       1.096E-03
 Gradient time:  CPU 13.97 s  wall 0.59 s
 Geometry Optimization Parameters
   NAtoms,    NIC,     NZ,  NCons,   NDum,   NFix, NCnnct, MaxDiis
       29     227       0       2       0       0       0       0

 Cartesian Hessian Update
 Hessian Updated using BFGS Update


** CONSTRAINED OPTIMIZATION IN DELOCALIZED INTERNAL COORDINATES **
   Searching for a Minimum

   Optimization Cycle:   5

                       Coordinates (Angstroms)
     ATOM                X               Y               Z
      1  C         0.4283628612   -0.6476821736   -0.6814469402
      2  C         0.6551559003    0.9101590021   -0.5274819682
      3  C        -0.8878721487   -1.1563590900   -0.0016285725
      4  C        -0.5871619377    1.7213283983   -0.0066560761
      5  O        -1.1340050746   -2.4944418285   -0.4558561162
      6  O        -1.5766620536   -0.5659025690    0.8599457172
      7  O        -1.6860474567    1.4718386114   -0.8970618546
      8  O        -0.6299487990    2.4952022831    0.9725524898
      9  C        -2.9009748597    2.1677416036   -0.4137019151
     10  C        -2.3465156234   -3.0455877073    0.1977099488
     11  C         1.6710267415   -1.1944625480    0.1554405446
     12  C         3.0034715500   -0.9032314935   -0.6435966143
     13  C         3.1911430627    0.6377048499   -0.3767054278
     14  C         1.8920671429    0.9563168423    0.4619219869
     15  O         1.7270882744   -0.2556276295    1.3002464914
     16  H         0.4603049835   -0.9779982910   -1.7343948624
     17  H         0.9262104504    1.3413456578   -1.5092311086
     18  H        -3.0246441385    2.0499887546    0.6813071765
     19  H        -2.5909549698   -2.4558004691    1.1038435649
     20  H         1.5489806387   -2.2360344152    0.5113702148
     21  H         3.8377842205   -1.4885458798   -0.2255429929
     22  H         2.9035502707   -1.1444452103   -1.7139257132
     23  H         4.0937977602    0.8333954460    0.2240879170
     24  H         3.2459601917    1.2302853522   -1.3037256639
     25  H         1.9283725310    1.8656258145    1.0931590704
     26  H        -2.8671918785    3.2512870894   -0.6524315185
     27  H        -3.7548480414    1.7038774715   -0.9413841803
     28  H        -2.1373188443   -4.0996756861    0.4603398686
     29  H        -3.2040386896   -3.0060489763   -0.5044944617
   Point Group: c1    Number of degrees of freedom:    81


   Energy is   -755.731902515

              Constraints and their Current Values
                                        Value     Constraint
   Dihedral:        2   1   3   5      167.300      167.300
   Dihedral:        1   2   4   7      -56.600      -56.600
 Hessian Updated using BFGS Update

 78 Hessian modes will be used to form the next step
  Hessian Eigenvalues:
     0.017683    0.045001    0.045004    0.045029    0.045127    0.045251
     0.045673    0.047813    0.058080    0.059352    0.065616    0.067745
     0.070966    0.071978    0.074387    0.075801    0.081715    0.083577
     0.084176    0.085070    0.086904    0.088210    0.091129    0.091491
     0.096707    0.098158    0.112255    0.112911    0.113426    0.116976
     0.117281    0.121964    0.122470    0.138650    0.141661    0.158470
     0.159964    0.160103    0.160886    0.162820    0.170406    0.175963
     0.245306    0.246858    0.249249    0.249784    0.250068    0.252792
     0.256954    0.267322    0.268929    0.291861    0.299527    0.308779
     0.318327    0.328398    0.338045    0.339510    0.340611    0.341644
     0.342222    0.342316    0.343096    0.343596    0.343849    0.343881
     0.344071    0.344373    0.344961    0.345858    0.363417    0.380597
     0.411531    0.460643    0.512797    0.538090    0.949157    0.978008

 Minimum Search - Taking Simple RFO Step
 Searching for Lamda that Minimizes Along All modes
 Value Taken    Lamda =  -0.00016655
 Step Taken.  Stepsize is  0.086622

                             Maximum     Tolerance    Cnvgd?
         Gradient           0.001593      0.000300      NO
         Displacement       0.031976      0.001200      NO
         Energy change     -0.000162      0.000001      NO


 New Cartesian Coordinates Obtained by Inverse Iteration

 Displacement from previous Coordinates is:  0.216679
 Adding empirical dispersion correction 
 ----------------------------------------------------------------
 Doing -D3(op) with
[...]
 C          0.000  0.000 -0.000   -0.039  0.035  0.032   -0.003  0.002 -0.003
 C         -0.000 -0.000  0.000   -0.052 -0.035  0.022    0.002  0.003  0.003
 C         -0.000  0.000 -0.000    0.000 -0.008 -0.003    0.003 -0.009 -0.008
 O          0.000 -0.000  0.000    0.001  0.000 -0.000   -0.000 -0.003 -0.002
 H          0.000  0.001  0.000   -0.024 -0.002  0.002    0.208  0.071 -0.048
 H         -0.003  0.001 -0.001   -0.052  0.024 -0.000   -0.038 -0.010 -0.002
 H          0.134  0.616  0.279   -0.006  0.002 -0.002   -0.044 -0.004 -0.031
 H         -0.005 -0.012 -0.050    0.000  0.000 -0.001    0.048  0.113  0.008
 H          0.001  0.000  0.000   -0.021  0.016  0.003   -0.005 -0.004  0.009
 H         -0.000 -0.001 -0.000    0.046 -0.195 -0.427   -0.018 -0.006  0.018
 H          0.000 -0.000  0.000    0.374 -0.287  0.054    0.001  0.005 -0.005
 H          0.000 -0.000 -0.001    0.149  0.297 -0.392    0.013 -0.012 -0.010
 H          0.000  0.000  0.000    0.467  0.180  0.156   -0.001 -0.003 -0.001
 H         -0.000 -0.001  0.001   -0.016 -0.015  0.003   -0.001 -0.015 -0.014
 H         -0.218 -0.021  0.609   -0.005  0.000 -0.000   -0.062 -0.007 -0.038
 H          0.215 -0.090 -0.208   -0.006  0.003  0.005   -0.067  0.068  0.045
 H          0.039 -0.012 -0.008    0.000 -0.003 -0.001    0.077  0.088  0.035
 H         -0.029  0.008 -0.002   -0.000 -0.001  0.002    0.153  0.045 -0.105
 TransDip   0.060  0.023  0.063    0.048 -0.001 -0.062   -0.221  0.104  0.093

 Mode:                67                     68                     69
 Frequency:      1804.44                3049.81                3050.30
 Force Cnst:     21.9696                 5.6424                 5.6426
 Red. Mass:      11.4521                 1.0296                 1.0293
 IR Active:          YES                    YES                    YES
 IR Intens:      389.773                 26.979                 43.370
 Raman Active:       YES                    YES                    YES
               X      Y      Z        X      Y      Z        X      Y      Z
 C          0.020 -0.009 -0.030    0.000  0.000  0.001    0.000  0.000 -0.000
 C          0.015 -0.029 -0.036    0.000  0.001 -0.002   -0.001 -0.001  0.004
 C         -0.196  0.134  0.286   -0.000 -0.002 -0.002   -0.000 -0.001 -0.000
 C         -0.029  0.432  0.528    0.001  0.000  0.001   -0.002 -0.001 -0.002
 O          0.011 -0.009 -0.018    0.002  0.002 -0.000    0.001  0.000 -0.000
 O          0.116 -0.097 -0.183   -0.000  0.000  0.001   -0.000  0.000  0.000
 O         -0.004 -0.023 -0.033   -0.001  0.000 -0.000    0.003 -0.001  0.000
 O         -0.003 -0.275 -0.341   -0.000 -0.000 -0.000    0.000  0.001  0.001
 C         -0.018  0.017  0.012   -0.009  0.007  0.006    0.028 -0.024 -0.019
 C         -0.012 -0.004  0.008    0.033  0.009 -0.025    0.010  0.003 -0.008
 C          0.010  0.001  0.010   -0.000  0.000 -0.000   -0.000 -0.000 -0.000
 C         -0.002  0.001 -0.003    0.000 -0.000 -0.000    0.000 -0.000 -0.000
 C         -0.005 -0.003 -0.006   -0.000 -0.000  0.000    0.001  0.001 -0.001
 C          0.004  0.005  0.016   -0.000  0.000  0.000   -0.000  0.000 -0.000
 O         -0.001 -0.002 -0.008    0.000  0.000  0.000    0.000 -0.000  0.000
 H          0.120  0.048 -0.042   -0.000 -0.004 -0.011   -0.000  0.001  0.002
 H          0.113 -0.121 -0.026   -0.005 -0.008  0.023    0.009  0.015 -0.041
 H          0.107 -0.046  0.052    0.056  0.066 -0.160   -0.181 -0.214  0.518
 H          0.025  0.060  0.006   -0.472  0.368 -0.045   -0.146  0.113 -0.014
 H         -0.023 -0.007 -0.013   -0.000 -0.002  0.001    0.000  0.001 -0.000
 H         -0.015 -0.011  0.010   -0.004  0.003 -0.002   -0.001  0.001 -0.001
 H          0.006  0.002 -0.004    0.001  0.002  0.006    0.000  0.000  0.001
 H         -0.022  0.017  0.021    0.001  0.000  0.001   -0.010 -0.002 -0.007
 H          0.006 -0.003 -0.004    0.000  0.002 -0.004   -0.000 -0.008  0.014
 H         -0.056  0.043 -0.003    0.000 -0.000  0.000   -0.000 -0.001 -0.001
 H          0.121  0.009  0.029   -0.035 -0.184 -0.011    0.113  0.597  0.035
 H          0.129 -0.108 -0.084    0.090  0.027  0.097   -0.291 -0.087 -0.314
 H          0.041  0.048  0.021    0.120 -0.134  0.582    0.037 -0.042  0.180
 H          0.083  0.025 -0.058   -0.060 -0.352 -0.228   -0.019 -0.109 -0.070
 TransDip  -0.005  0.421  0.472    0.087  0.135 -0.044    0.201 -0.063 -0.013

 Mode:                70                     71                     72
 Frequency:      3056.81                3061.21                3067.75
 Force Cnst:      5.8639                 5.9351                 5.8937
 Red. Mass:       1.0651                 1.0750                 1.0629
 IR Active:          YES                    YES                    YES
 IR Intens:       14.598                 15.848                 36.115
 Raman Active:       YES                    YES                    YES
               X      Y      Z        X      Y      Z        X      Y      Z
 C         -0.000  0.002  0.007    0.000  0.001  0.005   -0.000  0.002  0.007
 C          0.008  0.013 -0.036    0.014  0.022 -0.061    0.005  0.008 -0.024
 C         -0.000 -0.000  0.000   -0.000 -0.000  0.000   -0.000 -0.000  0.000
 C         -0.000 -0.000 -0.001   -0.000 -0.000 -0.002   -0.000  0.000 -0.001
 O          0.000  0.000 -0.000    0.000  0.000 -0.000    0.000  0.000 -0.000
 O          0.000 -0.000 -0.000    0.000  0.000 -0.000    0.000 -0.000 -0.000
 O          0.000 -0.000  0.000    0.000 -0.000  0.000    0.000 -0.000  0.000
 O          0.000  0.000  0.000    0.000  0.000  0.000    0.000  0.000  0.000
 C          0.001 -0.001 -0.001    0.001 -0.001 -0.001    0.000 -0.000  0.000
 C         -0.000 -0.000  0.000   -0.000 -0.000  0.000   -0.000 -0.000  0.000
 C          0.000  0.002 -0.001    0.000 -0.002  0.001   -0.000  0.003 -0.002
 C          0.019 -0.026 -0.026   -0.019  0.026  0.025    0.015 -0.024 -0.025
 C         -0.028 -0.026  0.020    0.006  0.001  0.002    0.039  0.032 -0.017
 C          0.001  0.001  0.000    0.001 -0.000 -0.001   -0.001 -0.002 -0.002
 O         -0.000  0.000  0.000   -0.000 -0.000  0.000   -0.000 -0.000  0.000
 H          0.003 -0.029 -0.085   -0.001 -0.018 -0.058    0.003 -0.029 -0.084
 H         -0.103 -0.156  0.439   -0.171 -0.259  0.732   -0.067 -0.102  0.289
 H         -0.008 -0.009  0.021   -0.008 -0.009  0.021   -0.000  0.000  0.000
 H          0.005 -0.004  0.000    0.002 -0.001  0.000    0.005 -0.004  0.000
 H         -0.002 -0.028  0.010    0.001  0.025 -0.009   -0.004 -0.048  0.019
 H         -0.277  0.188 -0.149    0.275 -0.187  0.148   -0.232  0.158 -0.127
 H          0.065  0.115  0.453   -0.064 -0.114 -0.445    0.061  0.109  0.422
 H          0.310  0.060  0.205   -0.071 -0.015 -0.043   -0.442 -0.086 -0.286
 H          0.011  0.250 -0.442   -0.001 -0.009  0.020   -0.011 -0.276  0.484
 H         -0.003 -0.012 -0.007   -0.000  0.006  0.003    0.006  0.036  0.022
 H          0.005  0.025  0.001    0.005  0.026  0.001    0.000  0.002  0.000
 H         -0.012 -0.004 -0.013   -0.012 -0.004 -0.013   -0.001 -0.000 -0.001
 H         -0.001  0.002 -0.007   -0.001  0.001 -0.003   -0.001  0.002 -0.008
 H          0.001  0.004  0.002    0.000  0.002  0.001    0.001  0.003  0.002
 TransDip  -0.024 -0.112 -0.042   -0.038  0.121  0.007    0.147  0.050 -0.113

 Mode:                73                     74                     75
 Frequency:      3096.40                3111.43                3117.74
 Force Cnst:      6.2528                 6.2470                 6.2851
 Red. Mass:       1.1069                 1.0952                 1.0974
 IR Active:          YES                    YES                    YES
 IR Intens:        0.774                 10.983                 33.563
 Raman Active:       YES                    YES                    YES
               X      Y      Z        X      Y      Z        X      Y      Z
 C         -0.000  0.003  0.010    0.001 -0.020 -0.059    0.001 -0.018 -0.052
 C         -0.001 -0.002  0.005    0.001  0.002 -0.003    0.002  0.004 -0.008
 C          0.000  0.000  0.000   -0.001 -0.001 -0.001   -0.000 -0.001 -0.001
 C         -0.000  0.000  0.000   -0.000  0.000 -0.000   -0.000  0.000 -0.000
 O         -0.000 -0.000 -0.000    0.000  0.000  0.000    0.000  0.000  0.000
 O         -0.000 -0.000 -0.000   -0.000  0.000  0.000   -0.000  0.000  0.000
 O          0.000  0.000 -0.000    0.000 -0.000  0.000    0.000 -0.000  0.000
 O         -0.000 -0.000 -0.000    0.000 -0.000 -0.000    0.000  0.000  0.000
 C         -0.000  0.000 -0.000    0.000  0.000  0.000   -0.000 -0.000  0.000
 C         -0.000  0.000 -0.000    0.000  0.000  0.000    0.001 -0.000  0.001
 C         -0.001 -0.007  0.003    0.002  0.009 -0.004   -0.001 -0.004  0.000
 C         -0.043  0.018 -0.054    0.021 -0.009  0.024   -0.029  0.010 -0.042
 C          0.032 -0.011  0.051    0.029 -0.008  0.044   -0.025  0.008 -0.040
 C          0.000 -0.002 -0.001    0.000 -0.003 -0.001    0.000  0.001 -0.000
 O          0.000  0.000 -0.000   -0.000  0.000  0.000    0.000  0.000  0.001
 H          0.005 -0.039 -0.111   -0.016  0.238  0.693   -0.011  0.212  0.618
 H          0.015  0.024 -0.069   -0.013 -0.018  0.044   -0.024 -0.041  0.107
 H         -0.000 -0.000  0.000    0.000  0.000 -0.001    0.001  0.001 -0.004
 H          0.000 -0.000  0.000   -0.003  0.003 -0.000   -0.010  0.007 -0.001
 H          0.010  0.087 -0.036   -0.013 -0.107  0.045    0.003  0.034 -0.014
 H          0.462 -0.320  0.228   -0.226  0.159 -0.112    0.303 -0.212  0.150
 H          0.047  0.115  0.413   -0.021 -0.051 -0.175    0.043  0.099  0.356
 H         -0.396 -0.084 -0.241   -0.365 -0.079 -0.223    0.319  0.070  0.195
 H          0.022  0.216 -0.373    0.018  0.180 -0.306   -0.017 -0.167  0.283
 H          0.002  0.020  0.013    0.002  0.029  0.019   -0.001 -0.006 -0.004
 H         -0.000 -0.002 -0.000   -0.000 -0.001 -0.000    0.001  0.005  0.000
 H          0.000  0.000  0.000   -0.000 -0.000 -0.000   -0.001 -0.000 -0.001
 H          0.000 -0.000  0.000    0.000 -0.001  0.003   -0.001  0.000 -0.004
 H         -0.000  0.000  0.000   -0.000 -0.003 -0.002   -0.000 -0.003 -0.002
 TransDip  -0.020 -0.004  0.019    0.089 -0.049  0.031   -0.087 -0.002 -0.164

 Mode:                76                     77                     78
 Frequency:      3122.90                3125.15                3130.43
 Force Cnst:      6.3612                 6.3717                 6.2928
 Red. Mass:       1.1071                 1.1073                 1.0899
 IR Active:          YES                    YES                    YES
 IR Intens:       18.290                 15.357                 22.357
 Raman Active:       YES                    YES                    YES
               X      Y      Z        X      Y      Z        X      Y      Z
 C         -0.000 -0.000 -0.001    0.000  0.000  0.000   -0.000 -0.002 -0.006
 C          0.000  0.000 -0.000   -0.000 -0.000  0.000   -0.000  0.001 -0.001
 C          0.000 -0.000  0.000   -0.000  0.000  0.000   -0.000 -0.001  0.000
 C         -0.000 -0.000 -0.000    0.000  0.000 -0.000   -0.000  0.000 -0.000
 O          0.000 -0.000  0.000    0.000 -0.000 -0.000    0.000  0.000 -0.000
 O          0.000 -0.000  0.000    0.000 -0.000 -0.000    0.000  0.000 -0.000
 O          0.000 -0.000  0.000    0.000  0.000 -0.000    0.000 -0.000  0.000
 O          0.000  0.000  0.000   -0.000  0.000 -0.000    0.000 -0.000  0.000
 C          0.001  0.003 -0.001   -0.031 -0.078  0.045   -0.000 -0.000  0.000
 C         -0.057  0.048 -0.059   -0.002  0.001 -0.002    0.001 -0.001  0.001
 C         -0.000 -0.001  0.001    0.000  0.000 -0.000   -0.009 -0.078  0.034
 C         -0.000 -0.000 -0.000    0.000 -0.000  0.000    0.010 -0.005  0.006
 C         -0.000  0.000 -0.000    0.000 -0.000  0.000    0.003  0.001  0.001
 C         -0.000 -0.000 -0.000   -0.000  0.000  0.000   -0.000 -0.003 -0.003
 O          0.000 -0.000  0.000    0.000  0.000 -0.000   -0.000 -0.000 -0.000
 H          0.000  0.003  0.009    0.000 -0.001 -0.004    0.000  0.020  0.063
 H         -0.001 -0.001  0.002    0.000  0.001 -0.001   -0.004 -0.006  0.016
 H         -0.006 -0.007  0.018    0.207  0.240 -0.624    0.001  0.001 -0.003
 H          0.553 -0.438  0.035    0.017 -0.013  0.001   -0.010  0.008 -0.001
 H          0.002  0.015 -0.006   -0.000 -0.002  0.001    0.105  0.895 -0.387
 H          0.001 -0.001  0.001   -0.001  0.001 -0.000   -0.112  0.075 -0.053
 H          0.000  0.001  0.004   -0.000 -0.000 -0.002   -0.004 -0.009 -0.025
 H          0.003  0.001  0.002   -0.002 -0.000 -0.001   -0.027 -0.006 -0.017
 H         -0.000 -0.002  0.004    0.000  0.002 -0.003    0.000  0.001 -0.001
 H          0.000  0.001  0.001   -0.000 -0.001 -0.001    0.004  0.047  0.032
 H         -0.004 -0.023 -0.002    0.133  0.691  0.056    0.000  0.000  0.000
 H         -0.002 -0.000 -0.003    0.023 -0.006  0.040   -0.001 -0.000 -0.001
 H          0.128 -0.139  0.674    0.004 -0.005  0.022   -0.002  0.002 -0.010
 H         -0.010  0.015 -0.008    0.000  0.002  0.001    0.000 -0.001 -0.001
 TransDip  -0.082  0.068 -0.086   -0.032 -0.109  0.054    0.012 -0.147  0.036

 Mode:                79                     80                     81
 Frequency:      3154.11                3157.08                3162.86
 Force Cnst:      6.4856                 6.4967                 6.4280
 Red. Mass:       1.1065                 1.1063                 1.0906
 IR Active:          YES                    YES                    YES
 IR Intens:       13.970                 14.423                  5.757
 Raman Active:       YES                    YES                    YES
               X      Y      Z        X      Y      Z        X      Y      Z
 C         -0.000 -0.000 -0.000   -0.000  0.000 -0.000    0.001  0.001  0.002
 C          0.000  0.000 -0.000    0.000  0.000 -0.000    0.000 -0.000  0.001
 C         -0.000 -0.000 -0.000    0.001  0.000 -0.001    0.000  0.000 -0.000
 C          0.001 -0.001 -0.001    0.000  0.000 -0.000   -0.000 -0.001 -0.001
 O          0.000  0.000  0.000   -0.000  0.000  0.000   -0.000 -0.000  0.000
 O         -0.000  0.000  0.000   -0.000  0.000  0.000   -0.000 -0.000  0.000
 O          0.000  0.000  0.000   -0.000 -0.000  0.000   -0.000  0.000  0.000
 O         -0.000  0.000  0.000   -0.000 -0.000  0.000    0.000  0.000  0.000
 C         -0.045 -0.027 -0.079   -0.000  0.000 -0.001   -0.001 -0.000 -0.001
 C         -0.000  0.001  0.000    0.004 -0.072 -0.061    0.000  0.000  0.000
 C         -0.000 -0.000  0.000    0.000 -0.000  0.000    0.001  0.005 -0.001
 C          0.000 -0.000 -0.000    0.000 -0.000 -0.000   -0.001  0.001  0.001
 C          0.000  0.000  0.000    0.000  0.000 -0.000   -0.005 -0.000 -0.001
 C          0.000  0.001  0.001   -0.000 -0.000 -0.000   -0.006 -0.071 -0.048
 O         -0.000  0.000  0.000   -0.000  0.000  0.000   -0.000 -0.000  0.000
 H         -0.000  0.001  0.002   -0.000  0.000  0.001   -0.000 -0.006 -0.017
 H         -0.000 -0.000  0.001   -0.000 -0.000  0.000    0.001  0.003 -0.012
 H         -0.114 -0.135  0.296   -0.001 -0.001  0.003   -0.002 -0.002  0.004
 H          0.003 -0.002  0.000   -0.245  0.182 -0.036    0.001 -0.000  0.000
 H          0.000  0.003 -0.001    0.000  0.000 -0.000   -0.005 -0.045  0.020
 H         -0.000  0.000 -0.000   -0.000  0.000 -0.000    0.010 -0.006  0.005
 H          0.000  0.000  0.001    0.000  0.000  0.001   -0.001 -0.001 -0.008
 H         -0.001 -0.000 -0.001   -0.000 -0.000 -0.000    0.052  0.009  0.028
 H         -0.000 -0.000  0.000   -0.000 -0.000  0.000    0.002  0.002 -0.007
 H         -0.001 -0.010 -0.007    0.000  0.003  0.002    0.068  0.817  0.560
 H          0.049  0.284  0.001   -0.000 -0.000 -0.000    0.001  0.005  0.000
 H          0.590  0.175  0.640    0.003  0.001  0.003    0.007  0.002  0.007
 H         -0.000  0.000 -0.000    0.064 -0.080  0.284   -0.000  0.000 -0.001
 H         -0.001 -0.004 -0.003    0.127  0.746  0.483   -0.000 -0.003 -0.002
 TransDip  -0.074 -0.025 -0.090   -0.013 -0.100 -0.067   -0.044 -0.059 -0.021

 STANDARD THERMODYNAMIC QUANTITIES AT   298.15 K  AND     1.00 ATM

   This Molecule has  0 Imaginary Frequencies
   Zero point vibrational energy:      149.107 kcal/mol

   Atom    1 Element C  Has Mass   12.00000
   Atom    2 Element C  Has Mass   12.00000
   Atom    3 Element C  Has Mass   12.00000
   Atom    4 Element C  Has Mass   12.00000
   Atom    5 Element O  Has Mass   15.99491
   Atom    6 Element O  Has Mass   15.99491
   Atom    7 Element O  Has Mass   15.99491
   Atom    8 Element O  Has Mass   15.99491
   Atom    9 Element C  Has Mass   12.00000
   Atom   10 Element C  Has Mass   12.00000
   Atom   11 Element C  Has Mass   12.00000
   Atom   12 Element C  Has Mass   12.00000
   Atom   13 Element C  Has Mass   12.00000
   Atom   14 Element C  Has Mass   12.00000
   Atom   15 Element O  Has Mass   15.99491
   Atom   16 Element H  Has Mass    1.00783
   Atom   17 Element H  Has Mass    1.00783
   Atom   18 Element H  Has Mass    1.00783
   Atom   19 Element H  Has Mass    1.00783
   Atom   20 Element H  Has Mass    1.00783
   Atom   21 Element H  Has Mass    1.00783
   Atom   22 Element H  Has Mass    1.00783
   Atom   23 Element H  Has Mass    1.00783
   Atom   24 Element H  Has Mass    1.00783
   Atom   25 Element H  Has Mass    1.00783
   Atom   26 Element H  Has Mass    1.00783
   Atom   27 Element H  Has Mass    1.00783
   Atom   28 Element H  Has Mass    1.00783
   Atom   29 Element H  Has Mass    1.00783
   Molecular Mass:   214.084170 amu
   Principal axes and moments of inertia in amu*Bohr^2:
                             1           2           3
    Eigenvalues --     2439.18978  2989.85543  4691.11939
          X               0.99992     0.00713    -0.01009
          Y              -0.00720     0.99995    -0.00715
          Z               0.01004     0.00723     0.99992
   Rotational Symmetry Number is   1
   The Molecule is an Asymmetric Top
   Translational Enthalpy:        0.889 kcal/mol
   Rotational Enthalpy:           0.889 kcal/mol
   Vibrational Enthalpy:        156.360 kcal/mol
   gas constant (RT):             0.592 kcal/mol
   Translational Entropy:        41.987  cal/mol.K
   Rotational Entropy:           31.903  cal/mol.K
   Vibrational Entropy:          48.103  cal/mol.K

   Total Enthalpy:              158.730 kcal/mol
   Total Entropy:               121.993  cal/mol.K
Archival summary:
1\1\nid01073\FREQ\ProcedureUnspecified\BasisUnspecified\51014\junteng\WedOct422:10:472017WedOct422:10:472017\0\\#,FREQ,ProcedureUnspecified,BasisUnspecified,\\0,1\O\C,1,1.42741\H,2,1.08814,1,110.13\C,1,1.43876,2,97.1433,3,179.5,0\H,4,1.08574,1,109.785,2,177.67,0\C,4,1.54205,1,102.185,2,-57.5057,0\H,6,1.09088,4,110.211,1,-80.9579,0\H,6,1.09179,4,112.789,1,157.972,0\C,2,1.54695,1,103.332,3,-124.09,0\H,9,1.09081,2,110.212,1,86.476,0\H,9,1.09196,2,112.458,1,-152.862,0\C,4,1.54943,1,103.119,2,55.4517,0\H,12,1.0937,4,110.823,1,-145.869,0\C,12,1.51918,4,113.799,1,95.6476,0\O,14,1.2033,12,125.812,4,5.81628,0\O,14,1.35076,12,109.967,4,-178.73,0\C,16,1.43907,14,115.817,12,176.442,0\H,17,1.08794,16,105.501,14,179.256,0\H,17,1.09091,16,110.58,14,59.5839,0\H,17,1.09098,16,109.778,14,-61.3937,0\C,2,1.56421,1,102.172,3,122.162,0\H,21,1.08887,2,111.264,1,156.646,0\C,21,1.514,2,109.27,1,-83.9753,0\O,23,1.20455,21,126.605,2,85.0504,0\O,23,1.35324,21,109.905,2,-92.0176,0\C,25,1.44019,23,115.851,21,176.7,0\H,26,1.08776,25,105.456,23,179.066,0\H,26,1.09095,25,110.348,23,59.5482,0\H,26,1.09106,25,110.48,23,-61.2906,0\\\@

 Total job time:  7547.48s(wall), 39854.30s(cpu) 
 Wed Oct  4 22:10:47 2017

        *************************************************************
        *                                                           *
        *  Thank you very much for using Q-Chem.  Have a nice day.  *
        *                                                           *
        *************************************************************


