                  Welcome to Q-Chem
     A Quantum Leap Into The Future Of Chemistry


 Q-Chem 4.4, Q-Chem, Inc., Pleasanton, CA (2016)

 Y. Shao,  Z. Gan,  E. Epifanovsky,  A. T. B. Gilbert,  M. Wormit,  
 J. Kussmann,  A. W. Lange,  A. Behn,  J. Deng,  X. Feng,  D. Ghosh,  
 M. Goldey,  P. R. Horn,  L. D. Jacobson,  I. Kaliman,  R. Z. Khaliullin,  
 T. Kus,  A. Landau,  J. Liu,  E. I. Proynov,  Y. M. Rhee,  R. M. Richard,  
 M. A. Rohrdanz,  R. P. Steele,  E. J. Sundstrom,  H. L. Woodcock III,  
 P. M. Zimmerman,  D. Zuev,  B. Albrecht,  E. Alguire,  B. Austin,  
 S. A. Baeppler,  G. J. O. Beran,  Y. A. Bernard,  E. Berquist,  
 K. Brandhorst,  K. B. Bravaya,  S. T. Brown,  D. Casanova,  C.-M. Chang,  
 Y. Chen,  S. H. Chien,  K. D. Closser,  M. P. Coons,  D. L. Crittenden,  
 S. Dasgupta,  M. Diedenhofen,  R. A. DiStasio Jr.,  H. Do,  A. D. Dutoi,  
 R. G. Edgar,  P.-T. Fang,  S. Fatehi,  Q. Feng,  L. Fusti-Molnar,  
 A. Ghysels,  A. Golubeva-Zadorozhnaya,  J. Gomes,  A. Gunina,  
 M. W. D. Hanson-Heine,  P. H. P. Harbach,  A. W. Hauser,  E. G. Hohenstein,  
 Z. C. Holden,  K. Hui,  T.-C. Jagau,  H. Ji,  B. Kaduk,  K. Khistyaev,  
 Jaehoon Kim,  Jihan Kim,  R. A. King,  P. Klunzinger,  D. Kosenkov,  
 T. Kowalczyk,  C. M. Krauter,  A. Kunitsa,  K. U. Lao,  A. Laurent,  
 K. V. Lawler,  D. Lefrancois,  S. Lehtola,  S. V. Levchenko,  C. Y. Lin,  
 Y.-S. Lin,  F. Liu,  E. Livshits,  R. C. Lochan,  A. Luenser,  P. Manohar,  
 S. F. Manzer,  S.-P. Mao,  Y. Mao,  N. Mardirossian,  A. V. Marenich,  
 L. A. Martinez-Martinez,  S. A. Maurer,  N. J. Mayhall,  J.-M. Mewes,  
 A. F. Morrison,  K. Nanda,  C. M. Oana,  R. Olivares-Amaya,  D. P. O'Neill,  
 J. A. Parkhill,  T. M. Perrine,  R. Peverati,  P. A. Pieniazek,  F. Plasser,  
 A. Prociuk,  D. R. Rehn,  E. Rosta,  N. J. Russ,  N. Sergueev,  
 S. M. Sharada,  S. Sharma,  D. W. Small,  A. Sodt,  T. Stauch,  T. Stein,  
 D. Stuck,  Y.-C. Su,  A. J. W. Thom,  T. Tsuchimochi,  L. Vogt,  O. Vydrov,  
 T. Wang,  M. A. Watson,  J. Wenzel,  A. White,  C. F. Williams,  
 V. Vanovschi,  S. Yeganeh,  S. R. Yost,  Z.-Q. You,  I. Y. Zhang,  X. Zhang,  
 Y. Zhao,  B. R. Brooks,  G. K. L. Chan,  D. M. Chipman,  C. J. Cramer,  
 W. A. Goddard III,  M. S. Gordon,  W. J. Hehre,  A. Klamt,  
 H. F. Schaefer III,  M. W. Schmidt,  C. D. Sherrill,  D. G. Truhlar,  
 A. Warshel,  X. Xu,  A. Aspuru-Guzik,  R. Baer,  A. T. Bell,  N. A. Besley,  
 J.-D. Chai,  A. Dreuw,  B. D. Dunietz,  T. R. Furlani,  S. R. Gwaltney,  
 C.-P. Hsu,  Y. Jung,  J. Kong,  D. S. Lambrecht,  W. Liang,  C. Ochsenfeld,  
 V. A. Rassolov,  L. V. Slipchenko,  J. E. Subotnik,  T. Van Voorhis,  
 J. M. Herbert,  A. I. Krylov,  P. M. W. Gill,  M. Head-Gordon

 Contributors to earlier versions of Q-Chem not listed above: 
 R. D. Adamson,  J. Baker,  E. F. C. Byrd,  A. K. Chakraborty,  C.-L. Cheng,  
 H. Dachsel,  R. J. Doerksen,  G. Hawkins,  A. Heyden,  S. Hirata,  
 G. Kedziora,  F. J. Keil,  C. Kelley,  P. P. Korambath,  W. Kurlancheek,  
 A. M. Lee,  M. S. Lee,  D. Liotard,  I. Lotan,  P. E. Maslen,  N. Nair,  
 D. Neuhauser,  R. Olson,  B. Peters,  J. Ritchie,  N. E. Schultz,  
 N. Shenvi,  A. C. Simmonett,  K. S. Thanthiriwatte,  Q. Wu,  W. Zhang

 Please cite Q-Chem as follows:
 Y. Shao et al., Mol. Phys. 113, 184-215 (2015)
 DOI: 10.1080/00268976.2014.952696

 Q-Chem 4.3.0 for Intel X86 EM64T Linux

 Parts of Q-Chem use Armadillo 5.200.1 (Boston Tea Smuggler).
 http://arma.sourceforge.net/

 Q-Chem begins on Mon Oct  2 23:41:21 2017  

Host: nid06079
0

     Scratch files written to /global/cscratch1/sd/junteng/scratch/18/opt_11n11.save//

Checking the input file for inconsistencies... 	...done.

--------------------------------------------------------------
User input:
--------------------------------------------------------------
$molecule
0  1
C    0.304  -2.425   0.241
C   -0.187  -2.670   1.539
C    0.664  -1.037  -0.131
C   -0.223  -1.586   2.547
O    1.892  -1.027  -0.706
O   -0.050  -0.071   0.073
O    1.036  -1.102   2.698
O   -1.208  -1.281   3.197
C    1.131  -0.051   3.659
C    2.346   0.277  -1.069
C    0.337  -3.468  -0.713
C   -0.078  -4.750  -0.324
C   -0.556  -4.992   0.965
C   -0.619  -3.961   1.912
H    0.496   0.792   3.371
H    1.683   0.717  -1.820
H   -0.885  -5.997   1.223
H    0.862  -0.417   4.655
H    2.169   0.291   3.685
H    3.345   0.180  -1.503
H    2.413   0.921  -0.186
H   -0.050  -5.576  -1.034
C   -1.153  -4.262   3.286
C    0.800  -3.263  -2.130
H    0.377  -2.346  -2.553
H    0.472  -4.085  -2.776
H    1.893  -3.221  -2.170
H   -2.134  -3.796   3.422
H   -0.464  -3.904   4.057
H   -1.273  -5.340   3.441
$end


$opt
CONSTRAINT
tors    2    1    3    5    135.2
tors    1    2    4    7    -57.3
ENDCONSTRAINT
$end

$rem
JOBTYPE                   OPT
METHOD                    B3LYP
DFT_D                     EMPIRICAL_GRIMME3
BASIS                     6-31G*
GEOM_OPT_MAX_CYCLES       500
GEOM_OPT_TOL_GRADIENT     5
GEOM_OPT_TOL_DISPLACEMENT 5
GEOM_OPT_TOL_ENERGY       5
SYMMETRY                  False
THRESH                    12
SCF_CONVERGENCE           8
MAX_SUB_FILE_NUM          128
MEM_STATIC                400
MEM_TOTAL                 4000
$end

--------------------------------------------------------------
 ----------------------------------------------------------------
             Standard Nuclear Orientation (Angstroms)
    I     Atom           X                Y                Z
 ----------------------------------------------------------------
    1      C       0.4125011125    -0.6355076896    -0.1241194854
    2      C      -0.9199718424    -0.1775825584    -0.0970935988
    3      C       1.4909203662     0.3367582974    -0.4177838583
    4      C      -1.2227722681     1.2652754643    -0.2345295060
    5      O       2.4794071129     0.2069212582     0.5013164054
    6      O       1.4599007613     1.1281261782    -1.3437118584
    7      O      -0.5671603921     1.9341318938     0.7477851812
    8      O      -2.0192894914     1.7300109239    -1.0316062059
    9      C      -0.7911410252     3.3435492204     0.7249274575
   10      C       3.5538033154     1.1302705963     0.3241165186
   11      C       0.6908325096    -2.0150972909     0.0112251320
   12      C      -0.3765806243    -2.9000235158     0.2224235647
   13      C      -1.6950140119    -2.4427633611     0.2572883515
   14      C      -1.9865449822    -1.0814074782     0.0977300441
   15      H      -0.4624112412     3.7697958433    -0.2274740049
   16      H       4.0453282984     0.9641147078    -0.6391930950
   17      H      -2.4970302573    -3.1634910569     0.4061222542
   18      H      -1.8474376543     3.5666794906     0.9059890877
   19      H      -0.2002982988     3.7931790170     1.5273126011
   20      H       4.2838919982     0.9582831261     1.1198280401
   21      H       3.1925407862     2.1609409489     0.4023597877
   22      H      -0.1906002296    -3.9666582263     0.3443320837
   23      C      -3.4222635693    -0.6326602424     0.1288918324
   24      C       2.0849910947    -2.5767940219    -0.0602005081
   25      H       2.6449814024    -2.1343937269    -0.8905256458
   26      H       2.0671057384    -3.6580417916    -0.2367433488
   27      H       2.6144009167    -2.3996751371     0.8812702249
   28      H      -3.7454857248    -0.3261374563    -0.8709002559
   29      H      -3.5543120453     0.1968300833     0.8302013215
   30      H      -4.0860980650    -1.4390523749     0.4598971058
 ----------------------------------------------------------------
 Molecular Point Group                 C1    NOp =  1
 Largest Abelian Subgroup              C1    NOp =  1
 Nuclear Repulsion Energy =  1141.1769093490 hartrees
 There are       59 alpha and       59 beta electrons
 Requested basis set is 6-31G(d)
 There are 92 shells and 268 basis functions

 Total QAlloc Memory Limit   4000 MB
 Mega-Array Size       392 MB
 MEM_STATIC part       400 MB
 A cutoff of  1.0D-12 yielded   3333 shell pairs
 There are     30973 function pairs
 
 -------------------------------------------------------
 OpenMP Integral Computing Module                       
 Release: version 1.0, May 2013, Q-Chem Inc. Pittsburgh 
 -------------------------------------------------------
 Integral Job Info:
 Integral job number is                      11
 Integral operator is                         1
 short-range coefficients                     0
 long-range coefficients              100000000
 Omega coefficients                           0
 if combine SR and LR in K                    0
 Integral screening is                        0
 Integral computing path is                   2
 max size of driver memory is            800000
 size of driver memory is                593474
 size of scratch memory is              2260544
 max col of scratch BK array               1296
 max len of scratch array in speh3          155
 max len of scratch index in speh4           18
 max int batch size is                      520
 min int batch size is                       52
 fixed nKL is                                52
 max L of basis functions is                  2
 order of int derivative is                   0
 number of shells is                         92
 number of basis is                         268
 number of cartesian basis is               268
 number of contracted shell pairs          3333
 number of primitive shell pairs          11440
 maxK2 (contraction) of shell pair           36
 max number of K2 of shell pair               1
 max number of CS2 of shell pair            409
 max number of PS2 of shell pair           1854
 mem total for path MDJ                   84856
 -------------------------------------------------------
 Smallest overlap matrix eigenvalue = 2.86E-04

 Scale SEOQF with 1.000000e-01/1.000000e-01/1.000000e+00

 Standard Electronic Orientation quadrupole field applied
 Nucleus-field energy     =    -0.0000000013 hartrees
 Guess from superposition of atomic densities
 Warning:  Energy on first SCF cycle will be non-variational
 A restricted hybrid HF-DFT SCF calculation will be
 performed using Pulay DIIS extrapolation
 Exchange:     0.2000 Hartree-Fock + 0.0800 Slater + 0.7200 B88
 Correlation:  0.1900 VWN1RPA + 0.8100 LYP
 Using SG-1 standard quadrature grid
 Dispersion:   Grimme D3
 SCF converges when DIIS error is below 1.0E-08
 using 24 threads for integral computing 
 -------------------------------------------------------
 OpenMP BLAS3 based DFT computing Module                
 Release: version 1.0, May 2013, Q-Chem Inc. Pittsburgh 
 -------------------------------------------------------
 ---------------------------------------
  Cycle       Energy         DIIS Error
 ---------------------------------------
    1    -769.8994457351      4.88E-02
    2    -766.3479447577      6.21E-03
    3    -765.7998149975      1.10E-02
    4    -766.5933558877      2.65E-03
    5    -766.6467025201      6.32E-04
    6    -766.6489372993      2.71E-04
    7    -766.6494612529      5.59E-05
    8    -766.6494810430      2.74E-05
    9    -766.6494879095      6.86E-06
   10    -766.6494882904      2.09E-06
   11    -766.6494883088      1.36E-06
   12    -766.6494883220      1.71E-07
   13    -766.6494883222      6.99E-08
   14    -766.6494883222      1.80E-08
   15    -766.6494883222      1.23E-08
   16    -766.6494883223      2.05E-09 Convergence criterion met
 ---------------------------------------
 SCF time:  CPU 264.59 s  wall 14.11 s
 SCF   energy in the final basis set = -766.6494883223
 Total energy in the final basis set = -766.6494883223
 
 --------------------------------------------------------------
 
                    Orbital Energies (a.u.)
 --------------------------------------------------------------
 
 Alpha MOs
 -- Occupied --
-19.200 -19.195 -19.141 -19.137 -10.319 -10.315 -10.243 -10.238
-10.209 -10.209 -10.208 -10.207 -10.196 -10.195 -10.185 -10.180
 -1.106  -1.100  -1.019  -1.014  -0.871  -0.798  -0.783  -0.739
 -0.723  -0.715  -0.664  -0.637  -0.610  -0.567  -0.559  -0.517
 -0.507  -0.501  -0.481  -0.478  -0.471  -0.463  -0.459  -0.431
 -0.427  -0.419  -0.416  -0.405  -0.399  -0.396  -0.382  -0.376
 -0.368  -0.360  -0.350  -0.345  -0.343  -0.307  -0.300  -0.284
 -0.273  -0.251  -0.239
 -- Virtual --
 -0.040  -0.019   0.025   0.037   0.091   0.103   0.109   0.124
  0.132   0.134   0.139   0.148   0.155   0.156   0.159   0.168
  0.170   0.176   0.186   0.195   0.204   0.220   0.246   0.258
  0.269   0.293   0.310   0.332   0.342   0.373   0.395   0.400
  0.424   0.498   0.505   0.505   0.510   0.512   0.527   0.531
  0.535   0.547   0.553   0.556   0.560   0.572   0.580   0.590
  0.604   0.606   0.617   0.636   0.643   0.658   0.685   0.695
  0.703   0.711   0.733   0.735   0.745   0.746   0.761   0.768
  0.790   0.818   0.825   0.832   0.847   0.854   0.855   0.866
  0.871   0.876   0.893   0.899   0.912   0.920   0.923   0.929
  0.939   0.960   0.965   0.973   0.975   0.987   1.005   1.010
  1.013   1.070   1.079   1.094   1.121   1.140   1.155   1.180
  1.192   1.202   1.208   1.230   1.248   1.261   1.278   1.306
  1.369   1.395   1.400   1.407   1.411   1.425   1.451   1.468
  1.477   1.491   1.537   1.557   1.590   1.612   1.650   1.668
  1.678   1.710   1.727   1.743   1.784   1.786   1.795   1.818
  1.823   1.842   1.853   1.873   1.882   1.892   1.910   1.941
  1.949   1.958   1.973   1.991   1.996   2.011   2.022   2.036
  2.041   2.054   2.087   2.095   2.108   2.124   2.156   2.185
  2.194   2.203   2.215   2.259   2.262   2.282   2.291   2.312
  2.322   2.325   2.344   2.360   2.363   2.378   2.391   2.427
  2.457   2.495   2.506   2.577   2.597   2.631   2.642   2.657
  2.683   2.698   2.726   2.747   2.815   2.837   2.843   2.866
  2.929   2.950   2.963   2.994   3.069   3.140   3.169   3.257
  3.434   3.983   4.053   4.095   4.105   4.124   4.197   4.249
  4.255   4.272   4.294   4.307   4.395   4.401   4.499   4.563
  4.829
 --------------------------------------------------------------
 
          Ground-State Mulliken Net Atomic Charges

     Atom                 Charge (a.u.)
  ----------------------------------------
      1 C                     0.053820
      2 C                     0.043646
      3 C                     0.520921
      4 C                     0.532103
      5 O                    -0.437518
      6 O                    -0.482945
      7 O                    -0.439671
      8 O                    -0.480918
      9 C                    -0.224862
     10 C                    -0.222015
     11 C                     0.134408
     12 C                    -0.176141
     13 C                    -0.176918
     14 C                     0.129314
     15 H                     0.179372
     16 H                     0.169585
     17 H                     0.132211
     18 H                     0.167299
     19 H                     0.161120
     20 H                     0.164939
     21 H                     0.170137
     22 H                     0.130663
     23 C                    -0.520943
     24 C                    -0.518426
     25 H                     0.159851
     26 H                     0.152500
     27 H                     0.177823
     28 H                     0.191338
     29 H                     0.160939
     30 H                     0.148368
  ----------------------------------------
  Sum of atomic charges =    -0.000000

 -----------------------------------------------------------------
                    Cartesian Multipole Moments
 -----------------------------------------------------------------
    Charge (ESU x 10^10)
                 0.0000
    Dipole Moment (Debye)
         X       1.6677      Y      -0.9654      Z       2.7099
       Tot       3.3252
    Quadrupole Moments (Debye-Ang)
        XX     -82.4349     XY       4.1666     YY     -80.6680
        XZ      -2.0260     YZ       6.4488     ZZ     -98.8740
    Octopole Moments (Debye-Ang^2)
       XXX      42.2334    XXY       3.7066    XYY       4.0107
       YYY      32.7625    XXZ      12.4900    XYZ      -1.0393
       YYZ      17.9390    XZZ       5.0866    YZZ       6.3497
       ZZZ       2.5522
    Hexadecapole Moments (Debye-Ang^3)
      XXXX   -2068.9975   XXXY      77.8730   XXYY    -688.5365
      XYYY      -5.4478   YYYY   -1802.7574   XXXZ       1.5542
      XXYZ      26.0515   XYYZ     -13.9702   YYYZ      26.5397
      XXZZ    -424.8054   XYZZ      -6.4541   YYZZ    -394.6398
      XZZZ      10.3797   YZZZ      10.0156   ZZZZ    -282.8672
 -----------------------------------------------------------------
 Calculating analytic gradient of the SCF energy
 Gradient of SCF Energy
            1           2           3           4           5           6
    1   0.0117837  -0.0014487   0.0042111   0.0100796  -0.0002694  -0.0082518
    2   0.0141872   0.0175843   0.0001810   0.0035426  -0.0081966   0.0030203
    3   0.0019636   0.0009687   0.0005976   0.0026815   0.0074418  -0.0120178
            7           8           9          10          11          12
    1   0.0045657  -0.0123501  -0.0018987  -0.0109504   0.0046921   0.0046372
    2  -0.0068682  -0.0033017  -0.0122708  -0.0045423   0.0025349  -0.0056725
    3   0.0078965  -0.0134453  -0.0034646  -0.0021559  -0.0031365   0.0021617
           13          14          15          16          17          18
    1  -0.0084646  -0.0007215   0.0033156   0.0018564   0.0006778   0.0002019
    2  -0.0022951   0.0053368   0.0008665  -0.0031039  -0.0025429   0.0000117
    3  -0.0003209   0.0011948   0.0012524   0.0014215  -0.0002532   0.0037478
           19          20          21          22          23          24
    1  -0.0013451   0.0037977   0.0004642  -0.0020940   0.0029517  -0.0018434
    2   0.0051196   0.0039235   0.0007539  -0.0020883   0.0008779   0.0025147
    3  -0.0010301  -0.0012714   0.0037754   0.0010177  -0.0008513   0.0023277
           25          26          27          28          29          30
    1  -0.0032025   0.0018833  -0.0036016   0.0009299   0.0023584  -0.0019644
    2  -0.0013517  -0.0002630  -0.0015761  -0.0043617  -0.0031117   0.0010915
    3  -0.0031830  -0.0010629   0.0023034  -0.0019930   0.0032984   0.0001352
 Max gradient component =       1.758E-02
 RMS gradient           =       5.156E-03
 Gradient time:  CPU 77.68 s  wall 4.68 s
 Geometry Optimization Parameters
   NAtoms,    NIC,     NZ,  NCons,   NDum,   NFix, NCnnct, MaxDiis
       30     194       0       2       0       0       0       0


** CONSTRAINED OPTIMIZATION IN DELOCALIZED INTERNAL COORDINATES **
   Searching for a Minimum

   Optimization Cycle:   1

                       Coordinates (Angstroms)
     ATOM                X               Y               Z
      1  C         0.4125011125   -0.6355076896   -0.1241194854
      2  C        -0.9199718424   -0.1775825584   -0.0970935988
      3  C         1.4909203662    0.3367582974   -0.4177838583
      4  C        -1.2227722681    1.2652754643   -0.2345295060
      5  O         2.4794071129    0.2069212582    0.5013164054
      6  O         1.4599007613    1.1281261782   -1.3437118584
      7  O        -0.5671603921    1.9341318938    0.7477851812
      8  O        -2.0192894914    1.7300109239   -1.0316062059
      9  C        -0.7911410252    3.3435492204    0.7249274575
     10  C         3.5538033154    1.1302705963    0.3241165186
     11  C         0.6908325096   -2.0150972909    0.0112251320
     12  C        -0.3765806243   -2.9000235158    0.2224235647
     13  C        -1.6950140119   -2.4427633611    0.2572883515
     14  C        -1.9865449822   -1.0814074782    0.0977300441
     15  H        -0.4624112412    3.7697958433   -0.2274740049
     16  H         4.0453282984    0.9641147078   -0.6391930950
     17  H        -2.4970302573   -3.1634910569    0.4061222542
     18  H        -1.8474376543    3.5666794906    0.9059890877
     19  H        -0.2002982988    3.7931790170    1.5273126011
     20  H         4.2838919982    0.9582831261    1.1198280401
     21  H         3.1925407862    2.1609409489    0.4023597877
     22  H        -0.1906002296   -3.9666582263    0.3443320837
     23  C        -3.4222635693   -0.6326602424    0.1288918324
     24  C         2.0849910947   -2.5767940219   -0.0602005081
     25  H         2.6449814024   -2.1343937269   -0.8905256458
     26  H         2.0671057384   -3.6580417916   -0.2367433488
     27  H         2.6144009167   -2.3996751371    0.8812702249
     28  H        -3.7454857248   -0.3261374563   -0.8709002559
     29  H        -3.5543120453    0.1968300833    0.8302013215
     30  H        -4.0860980650   -1.4390523749    0.4598971058
   Point Group: c1    Number of degrees of freedom:    84


   Energy is   -766.649488322

              Constraints and their Current Values
                                        Value     Constraint
   Dihedral:        2   1   3   5      131.435      135.200
   Dihedral:        1   2   4   7      -57.239      -57.300

 Attempting to Generate Delocalized Internal Coordinates

   Using Lagrange Multiplier Algorithm


 86 Hessian modes will be used to form the next step
  Hessian Eigenvalues:
    -0.977753   -0.977753    0.045000    0.045000    0.045000    0.045000
     0.045000    0.045000    0.045000    0.045000    0.045000    0.045001
     0.045002    0.045003    0.045005    0.045012    0.045013    0.045137
     0.045284    0.093755    0.094007    0.094234    0.094419    0.113828
     0.113875    0.116854    0.116890    0.159975    0.159998    0.160000
     0.160000    0.160000    0.160000    0.160000    0.160000    0.160000
     0.160000    0.160000    0.160000    0.160000    0.160000    0.224723
     0.244737    0.248923    0.249138    0.249624    0.249908    0.249990
     0.249993    0.250000    0.250000    0.250000    0.250000    0.250000
     0.318837    0.319059    0.341608    0.341647    0.342469    0.342555
     0.342769    0.342935    0.342935    0.343290    0.343371    0.343554
     0.344100    0.344105    0.344456    0.344917    0.348625    0.349867
     0.408089    0.409183    0.413229    0.413817    0.437594    0.446154
     0.449565    0.458786    0.535065    0.537664    0.958663    0.960829
     1.022753    1.022753

 Minimum Search - Taking P-RFO Step
 Searching for Lamda that Maximizes Along the Constraint modes Only
 Value Taken    Lamda =   0.00222108
 Searching for Lamda that Minimizes Along All other modes
 Value Taken    Lamda =  -0.01213714
 Step Taken.  Stepsize is  0.230610

                             Maximum     Tolerance    Cnvgd?
         Gradient            0.065716       0.000005      NO
         Displacement        0.065259       0.000005      NO
         Energy change     *********       0.000000      NO


 New Cartesian Coordinates Obtained by Inverse Iteration

 Displacement from previous Coordinates is:  0.684466
 ----------------------------------------------------------------
             Standard Nuclear Orientation (Angstroms)
    I     Atom           X                Y                Z
 ----------------------------------------------------------------
    1      C       0.3992532036    -0.6669066874    -0.0695351772
    2      C      -0.9336991104    -0.2118183534    -0.0412997562
    3      C       1.4772564238     0.3402819724    -0.3316435562
    4      C      -1.2356304548     1.2510352300    -0.1763018244
    5      O       2.5311750487     0.2007678582     0.5044398161
    6      O       1.4451344290     1.1759299867    -1.2093035602
    7      O      -0.6117907979     1.9822565563     0.7792858160
    8      O      -1.9928591063     1.7389831895    -0.9847567552
    9      C      -0.8105869842     3.4002238072     0.6832298038
   10      C       3.6018662648     1.1329462511     0.2957291206
   11      C       0.6892544666    -2.0417228832     0.0243291998
   12      C      -0.3834420380    -2.9200499750     0.1964811590
   13      C      -1.6996036248    -2.4653605121     0.2401357413
   14      C      -2.0048104204    -1.1083851816     0.1137770350
   15      H      -0.4522566971     3.7736244995    -0.2802125246
   16      H       4.0333925247     1.0179588753    -0.7030676243
   17      H      -2.5070070680    -3.1825140903     0.3624811404
   18      H      -1.8681279141     3.6526272055     0.8049930740
   19      H      -0.2268667656     3.8396877626     1.4951398762
   20      H       4.3515787543     0.8992674847     1.0545703000
   21      H       3.2478821865     2.1598426360     0.4237443839
   22      H      -0.1873569132    -3.9856908932     0.2823423289
   23      C      -3.4453773355    -0.6440898869     0.1332182126
   24      C       2.0975706266    -2.5925865014    -0.0568056660
   25      H       2.6770585582    -2.1226955997    -0.8576714021
   26      H       2.0732911562    -3.6679967897    -0.2621820925
   27      H       2.6397627870    -2.4401133671     0.8817275339
   28      H      -3.7592375084    -0.2932505974    -0.8543691545
   29      H      -3.6023351388     0.1774698612     0.8399575748
   30      H      -4.1072948626    -1.4641407367     0.4307025998
 ----------------------------------------------------------------
 Molecular Point Group                 C1    NOp =  1
 Largest Abelian Subgroup              C1    NOp =  1
 Nuclear Repulsion Energy =  1137.7626184731 hartrees
 There are       59 alpha and       59 beta electrons
 Applying Cartesian multipole field
    Component          Value
    ---------          -----
     (2,0,0)        1.00000E-11
     (0,2,0)        2.00000E-11
     (0,0,2)       -3.00000E-10
 Nucleus-field energy     =     0.0000000047 hartrees
 Requested basis set is 6-31G(d)
 There are 92 shells and 268 basis functions
 A cutoff of  1.0D-12 yielded   3314 shell pairs
 There are     30764 function pairs
 Smallest overlap matrix eigenvalue = 2.78E-04
 Guess MOs from SCF MO coefficient file
 Reading MOs from coefficient file
 Reading MOs from coefficient file
 A restricted hybrid HF-DFT SCF calculation will be
 performed using Pulay DIIS extrapolation
 Exchange:     0.2000 Hartree-Fock + 0.0800 Slater + 0.7200 B88
 Correlation:  0.1900 VWN1RPA + 0.8100 LYP
 Using SG-1 standard quadrature grid
 Dispersion:   Grimme D3
 SCF converges when DIIS error is below 1.0E-08
 Geometry optimization detected.  Setting ReadMinima to 0
 Setting SaveMinima to 0
 using 24 threads for integral computing 
 -------------------------------------------------------
 OpenMP BLAS3 based DFT computing Module                
 Release: version 1.0, May 2013, Q-Chem Inc. Pittsburgh 
 -------------------------------------------------------
 ---------------------------------------
  Cycle       Energy         DIIS Error
 ---------------------------------------
    1    -766.6511359758      1.80E-03
    2    -766.6538598819      2.36E-04
    3    -766.6535110232      3.37E-04
    4    -766.6544239959      3.87E-05
    5    -766.6544293717      2.82E-05
    6    -766.6544354511      1.11E-05
    7    -766.6544362880      3.43E-06
    8    -766.6544363659      1.01E-06
    9    -766.6544363740      2.92E-07
   10    -766.6544363748      9.72E-08
   11    -766.6544363749      2.96E-08
   12    -766.6544363749      2.02E-08
   13    -766.6544363749      4.14E-09 Convergence criterion met
 ---------------------------------------
 SCF time:  CPU 211.45 s  wall 11.41 s
 SCF   energy in the final basis set = -766.6544363749
 Total energy in the final basis set = -766.6544363749
 
 --------------------------------------------------------------
 
                    Orbital Energies (a.u.)
 --------------------------------------------------------------
 
 Alpha MOs
 -- Occupied --
-19.195 -19.188 -19.137 -19.132 -10.318 -10.313 -10.243 -10.235
-10.213 -10.211 -10.211 -10.209 -10.197 -10.197 -10.187 -10.182
 -1.105  -1.097  -1.015  -1.009  -0.874  -0.799  -0.781  -0.736
 -0.724  -0.715  -0.666  -0.638  -0.610  -0.565  -0.556  -0.517
 -0.508  -0.500  -0.478  -0.474  -0.466  -0.463  -0.457  -0.430
 -0.426  -0.418  -0.416  -0.406  -0.402  -0.395  -0.382  -0.379
 -0.369  -0.360  -0.348  -0.347  -0.345  -0.304  -0.295  -0.282
 -0.271  -0.253  -0.243
 -- Virtual --
 -0.040  -0.019   0.029   0.039   0.092   0.103   0.111   0.123
  0.130   0.133   0.138   0.148   0.153   0.157   0.158   0.170
  0.171   0.177   0.185   0.195   0.204   0.217   0.242   0.261
  0.271   0.302   0.313   0.331   0.341   0.367   0.395   0.399
  0.420   0.498   0.501   0.506   0.511   0.513   0.526   0.529
  0.534   0.547   0.551   0.555   0.560   0.576   0.586   0.590
  0.605   0.607   0.617   0.636   0.644   0.660   0.680   0.697
  0.705   0.708   0.728   0.732   0.744   0.747   0.761   0.764
  0.791   0.819   0.825   0.833   0.848   0.853   0.857   0.868
  0.874   0.876   0.892   0.896   0.913   0.920   0.923   0.929
  0.937   0.960   0.967   0.973   0.977   0.987   1.006   1.012
  1.018   1.065   1.077   1.094   1.120   1.146   1.153   1.179
  1.185   1.209   1.211   1.238   1.245   1.264   1.268   1.307
  1.367   1.387   1.389   1.409   1.412   1.427   1.459   1.469
  1.485   1.495   1.538   1.560   1.610   1.625   1.654   1.662
  1.684   1.711   1.718   1.722   1.780   1.786   1.792   1.801
  1.821   1.843   1.852   1.870   1.879   1.897   1.901   1.935
  1.950   1.958   1.979   1.987   2.006   2.014   2.024   2.035
  2.044   2.053   2.091   2.101   2.104   2.126   2.147   2.180
  2.196   2.204   2.213   2.254   2.261   2.283   2.295   2.308
  2.316   2.321   2.338   2.353   2.360   2.378   2.398   2.432
  2.469   2.489   2.496   2.562   2.582   2.627   2.643   2.654
  2.677   2.694   2.721   2.746   2.816   2.836   2.841   2.865
  2.944   2.950   2.969   2.992   3.065   3.136   3.167   3.246
  3.439   3.987   4.046   4.094   4.100   4.117   4.198   4.248
  4.256   4.260   4.289   4.303   4.375   4.390   4.500   4.548
  4.832
 --------------------------------------------------------------
 
          Ground-State Mulliken Net Atomic Charges

     Atom                 Charge (a.u.)
  ----------------------------------------
      1 C                     0.043678
      2 C                     0.036450
      3 C                     0.522880
      4 C                     0.528532
      5 O                    -0.445359
      6 O                    -0.479894
      7 O                    -0.447350
      8 O                    -0.476388
      9 C                    -0.218579
     10 C                    -0.217480
     11 C                     0.138012
     12 C                    -0.177499
     13 C                    -0.178693
     14 C                     0.138574
     15 H                     0.180027
     16 H                     0.170050
     17 H                     0.132092
     18 H                     0.166911
     19 H                     0.159855
     20 H                     0.164147
     21 H                     0.171491
     22 H                     0.130865
     23 C                    -0.523828
     24 C                    -0.517259
     25 H                     0.162503
     26 H                     0.151964
     27 H                     0.178621
     28 H                     0.193207
     29 H                     0.163785
     30 H                     0.148682
  ----------------------------------------
  Sum of atomic charges =     0.000000

 -----------------------------------------------------------------
                    Cartesian Multipole Moments
 -----------------------------------------------------------------
    Charge (ESU x 10^10)
                 0.0000
    Dipole Moment (Debye)
         X       1.5767      Y      -1.1978      Z       2.4216
       Tot       3.1281
    Quadrupole Moments (Debye-Ang)
        XX     -81.7552     XY       4.0664     YY     -80.6595
        XZ      -2.1974     YZ       6.0377     ZZ     -98.5903
    Octopole Moments (Debye-Ang^2)
       XXX      41.8927    XXY       4.5914    XYY       3.7831
       YYY      33.3085    XXZ       9.1649    XYZ      -1.2476
       YYZ      14.4737    XZZ       6.1008    YZZ       6.9651
       ZZZ      -4.5787
    Hexadecapole Moments (Debye-Ang^3)
      XXXX   -2087.5996   XXXY      75.7568   XXYY    -697.3557
      XYYY      -9.1032   YYYY   -1838.8359   XXXZ      -0.7108
      XXYZ      21.8786   XYYZ     -12.7016   YYYZ      23.7367
      XXZZ    -426.5667   XYZZ      -5.5870   YYZZ    -399.7093
      XZZZ       7.9087   YZZZ       4.2409   ZZZZ    -260.7552
 -----------------------------------------------------------------
 Calculating analytic gradient of the SCF energy
 Gradient of SCF Energy
            1           2           3           4           5           6
    1   0.0016199  -0.0024190  -0.0058533   0.0008378   0.0026844   0.0033426
    2  -0.0008831  -0.0006972   0.0018298  -0.0055002   0.0017016  -0.0025614
    3   0.0012612  -0.0000826  -0.0002598  -0.0031034  -0.0013908   0.0008262
            7           8           9          10          11          12
    1  -0.0019092   0.0024023  -0.0014424  -0.0031669  -0.0026617   0.0022436
    2   0.0039639   0.0025915  -0.0024492  -0.0004735  -0.0004192  -0.0004448
    3   0.0002593   0.0020180  -0.0012163  -0.0015238  -0.0023935   0.0011569
           13          14          15          16          17          18
    1  -0.0020522   0.0019613   0.0009825   0.0014882   0.0003466   0.0001002
    2   0.0007553  -0.0012488   0.0008337  -0.0005349   0.0000290   0.0004750
    3  -0.0003428   0.0011513   0.0005377   0.0004823  -0.0004300   0.0013715
           19          20          21          22          23          24
    1   0.0000815   0.0011641   0.0005467  -0.0002599   0.0000878   0.0015668
    2   0.0015137   0.0007860   0.0002190   0.0002127   0.0026431   0.0017915
    3   0.0001053   0.0000763   0.0013026   0.0003694  -0.0009536   0.0012299
           25          26          27          28          29          30
    1  -0.0002080   0.0005838  -0.0006882  -0.0006691  -0.0003564  -0.0003537
    2  -0.0009404   0.0000864  -0.0011885  -0.0014344  -0.0009196   0.0002632
    3  -0.0011113  -0.0006635   0.0003986  -0.0002127   0.0009350   0.0002025
 Max gradient component =       5.853E-03
 RMS gradient           =       1.659E-03
 Gradient time:  CPU 77.29 s  wall 4.53 s
 Geometry Optimization Parameters
   NAtoms,    NIC,     NZ,  NCons,   NDum,   NFix, NCnnct, MaxDiis
       30     194       0       2       0       0       0       0

 Cartesian Hessian Update
 Hessian Updated using BFGS Update


** CONSTRAINED OPTIMIZATION IN DELOCALIZED INTERNAL COORDINATES **
   Searching for a Minimum

   Optimization Cycle:   2

                       Coordinates (Angstroms)
     ATOM                X               Y               Z
      1  C         0.3992532036   -0.6669066874   -0.0695351772
      2  C        -0.9336991104   -0.2118183534   -0.0412997562
      3  C         1.4772564238    0.3402819724   -0.3316435562
      4  C        -1.2356304548    1.2510352300   -0.1763018244
      5  O         2.5311750487    0.2007678582    0.5044398161
      6  O         1.4451344290    1.1759299867   -1.2093035602
      7  O        -0.6117907979    1.9822565563    0.7792858160
      8  O        -1.9928591063    1.7389831895   -0.9847567552
      9  C        -0.8105869842    3.4002238072    0.6832298038
     10  C         3.6018662648    1.1329462511    0.2957291206
     11  C         0.6892544666   -2.0417228832    0.0243291998
     12  C        -0.3834420380   -2.9200499750    0.1964811590
     13  C        -1.6996036248   -2.4653605121    0.2401357413
     14  C        -2.0048104204   -1.1083851816    0.1137770350
     15  H        -0.4522566971    3.7736244995   -0.2802125246
     16  H         4.0333925247    1.0179588753   -0.7030676243
     17  H        -2.5070070680   -3.1825140903    0.3624811404
     18  H        -1.8681279141    3.6526272055    0.8049930740
     19  H        -0.2268667656    3.8396877626    1.4951398762
     20  H         4.3515787543    0.8992674847    1.0545703000
     21  H         3.2478821865    2.1598426360    0.4237443839
     22  H        -0.1873569132   -3.9856908932    0.2823423289
     23  C        -3.4453773355   -0.6440898869    0.1332182126
     24  C         2.0975706266   -2.5925865014   -0.0568056660
     25  H         2.6770585582   -2.1226955997   -0.8576714021
     26  H         2.0732911562   -3.6679967897   -0.2621820925
     27  H         2.6397627870   -2.4401133671    0.8817275339
     28  H        -3.7592375084   -0.2932505974   -0.8543691545
     29  H        -3.6023351388    0.1774698612    0.8399575748
     30  H        -4.1072948626   -1.4641407367    0.4307025998
   Point Group: c1    Number of degrees of freedom:    84


   Energy is   -766.654436375

              Constraints and their Current Values
                                        Value     Constraint
   Dihedral:        2   1   3   5      135.174      135.200
   Dihedral:        1   2   4   7      -57.301      -57.300
 Hessian Updated using BFGS Update

   Using Lagrange Multiplier Algorithm


 70 Hessian modes will be used to form the next step
  Hessian Eigenvalues:
    -0.978137   -0.977548    0.042553    0.045000    0.045000    0.045000
     0.045000    0.045001    0.045001    0.045005    0.045008    0.045013
     0.045075    0.045129    0.045773    0.091728    0.093876    0.094226
     0.094415    0.111894    0.113854    0.116862    0.116888    0.152455
     0.159975    0.159999    0.161258    0.224724    0.242562    0.248619
     0.249017    0.249619    0.249757    0.249925    0.249993    0.249999
     0.250000    0.299282    0.318940    0.325310    0.341605    0.341640
     0.342391    0.342522    0.342748    0.342921    0.342935    0.343281
     0.343342    0.343533    0.343749    0.344315    0.344465    0.348551
     0.349759    0.360069    0.407963    0.409071    0.413231    0.414741
     0.438363    0.446216    0.448828    0.459909    0.535011    0.537121
     0.959210    0.970118    1.022511    1.023233

 Minimum Search - Taking P-RFO Step
 Searching for Lamda that Maximizes Along the Constraint modes Only
 Value Taken    Lamda =   0.00000250
 Searching for Lamda that Minimizes Along All other modes
 Value Taken    Lamda =  -0.00088338
 Step Taken.  Stepsize is  0.107382

                             Maximum     Tolerance    Cnvgd?
         Gradient            0.003850       0.000005      NO
         Displacement        0.034509       0.000005      NO
         Energy change     -0.004948       0.000000      NO


 New Cartesian Coordinates Obtained by Inverse Iteration

 Displacement from previous Coordinates is:  0.317224
 ----------------------------------------------------------------
             Standard Nuclear Orientation (Angstroms)
    I     Atom           X                Y                Z
 ----------------------------------------------------------------
    1      C       0.3934235839    -0.6657814788    -0.0702567227
    2      C      -0.9387485343    -0.2144194067    -0.0278183980
    3      C       1.4674307806     0.3486432837    -0.3207483261
    4      C      -1.2472891522     1.2461806534    -0.1693184283
    5      O       2.5216892751     0.1919555822     0.5094306827
    6      O       1.4104672406     1.2171260937    -1.1657969639
    7      O      -0.6099868584     1.9763534336     0.7751223491
    8      O      -2.0147335754     1.7176948055    -0.9783482989
    9      C      -0.7795930752     3.3962829640     0.6530430291
   10      C       3.5895641169     1.1318352713     0.3174349175
   11      C       0.6900892218    -2.0388233298     0.0169547838
   12      C      -0.3813715351    -2.9202625647     0.1830627308
   13      C      -1.6968866629    -2.4697050141     0.2397423400
   14      C      -2.0078229924    -1.1128064270     0.1243734500
   15      H      -0.4129005178     3.7377629201    -0.3188188624
   16      H       4.0068844884     1.0417748975    -0.6896029435
   17      H      -2.5031272927    -3.1885449973     0.3628651461
   18      H      -1.8338318509     3.6688425102     0.7558971230
   19      H      -0.1896208675     3.8289300841     1.4625538878
   20      H       4.3380229256     0.8765464790     1.0689050455
   21      H       3.2288396596     2.1537219976     0.4625100411
   22      H      -0.1801022278    -3.9859171356     0.2575846214
   23      C      -3.4469217730    -0.6491294109     0.1496119293
   24      C       2.0991504095    -2.5835356702    -0.0692416807
   25      H       2.6766522598    -2.1038328475    -0.8650687799
   26      H       2.0767635908    -3.6590347100    -0.2739100391
   27      H       2.6462752573    -2.4247381953     0.8656617748
   28      H      -3.7560658212    -0.2816000145    -0.8334553844
   29      H      -3.6009281493     0.1717652818     0.8579535026
   30      H      -4.1091282342    -1.4717039342     0.4388130963
 ----------------------------------------------------------------
 Molecular Point Group                 C1    NOp =  1
 Largest Abelian Subgroup              C1    NOp =  1
 Nuclear Repulsion Energy =  1139.7332462398 hartrees
 There are       59 alpha and       59 beta electrons
 Applying Cartesian multipole field
    Component          Value
    ---------          -----
     (2,0,0)        1.00000E-11
     (0,2,0)        2.00000E-11
     (0,0,2)       -3.00000E-10
 Nucleus-field energy     =     0.0000000059 hartrees
 Requested basis set is 6-31G(d)
 There are 92 shells and 268 basis functions
 A cutoff of  1.0D-12 yielded   3318 shell pairs
 There are     30791 function pairs
 Smallest overlap matrix eigenvalue = 2.75E-04
 Guess MOs from SCF MO coefficient file
 Reading MOs from coefficient file
 Reading MOs from coefficient file
 A restricted hybrid HF-DFT SCF calculation will be
 performed using Pulay DIIS extrapolation
 Exchange:     0.2000 Hartree-Fock + 0.0800 Slater + 0.7200 B88
 Correlation:  0.1900 VWN1RPA + 0.8100 LYP
 Using SG-1 standard quadrature grid
 Dispersion:   Grimme D3
 SCF converges when DIIS error is below 1.0E-08
 Geometry optimization detected.  Setting ReadMinima to 0
 Setting SaveMinima to 0
 using 24 threads for integral computing 
 -------------------------------------------------------
 OpenMP BLAS3 based DFT computing Module                
 Release: version 1.0, May 2013, Q-Chem Inc. Pittsburgh 
 -------------------------------------------------------
 ---------------------------------------
  Cycle       Energy         DIIS Error
 ---------------------------------------
    1    -766.6571330156      7.88E-04
    2    -766.6549433793      5.54E-05
    3    -766.6549402889      7.47E-05
    4    -766.6549850836      2.20E-05
    5    -766.6549886224      7.84E-06
    6    -766.6549889685      4.49E-06
    7    -766.6549891094      1.17E-06
    8    -766.6549891202      2.83E-07
    9    -766.6549891209      8.20E-08
   10    -766.6549891209      2.96E-08
   11    -766.6549891210      1.08E-08
   12    -766.6549891210      4.62E-09 Convergence criterion met
 ---------------------------------------
 SCF time:  CPU 191.49 s  wall 10.25 s
 SCF   energy in the final basis set = -766.6549891210
 Total energy in the final basis set = -766.6549891210
 
 --------------------------------------------------------------
 
                    Orbital Energies (a.u.)
 --------------------------------------------------------------
 
 Alpha MOs
 -- Occupied --
-19.196 -19.188 -19.137 -19.132 -10.318 -10.312 -10.243 -10.235
-10.212 -10.210 -10.210 -10.208 -10.197 -10.196 -10.187 -10.181
 -1.106  -1.097  -1.016  -1.010  -0.874  -0.799  -0.781  -0.737
 -0.724  -0.715  -0.665  -0.638  -0.609  -0.566  -0.556  -0.517
 -0.508  -0.500  -0.478  -0.474  -0.466  -0.463  -0.456  -0.430
 -0.426  -0.417  -0.415  -0.406  -0.402  -0.394  -0.381  -0.380
 -0.369  -0.361  -0.347  -0.347  -0.346  -0.305  -0.294  -0.282
 -0.271  -0.253  -0.242
 -- Virtual --
 -0.040  -0.019   0.030   0.041   0.092   0.103   0.112   0.124
  0.131   0.134   0.138   0.148   0.153   0.158   0.159   0.169
  0.171   0.178   0.186   0.196   0.204   0.219   0.242   0.262
  0.272   0.301   0.314   0.332   0.342   0.367   0.395   0.400
  0.422   0.498   0.502   0.506   0.512   0.514   0.527   0.530
  0.534   0.548   0.551   0.555   0.561   0.576   0.587   0.591
  0.606   0.607   0.617   0.637   0.644   0.660   0.680   0.696
  0.704   0.709   0.728   0.733   0.744   0.747   0.760   0.763
  0.788   0.820   0.825   0.833   0.849   0.853   0.858   0.868
  0.875   0.877   0.894   0.896   0.915   0.919   0.925   0.929
  0.940   0.961   0.968   0.974   0.978   0.989   1.007   1.014
  1.019   1.065   1.077   1.097   1.121   1.149   1.156   1.180
  1.187   1.209   1.216   1.238   1.249   1.266   1.272   1.310
  1.369   1.386   1.391   1.410   1.416   1.429   1.460   1.470
  1.485   1.493   1.538   1.564   1.613   1.626   1.655   1.661
  1.684   1.714   1.716   1.723   1.780   1.789   1.794   1.803
  1.820   1.847   1.853   1.869   1.882   1.900   1.904   1.935
  1.951   1.954   1.979   1.987   2.008   2.015   2.024   2.037
  2.047   2.057   2.093   2.103   2.108   2.130   2.147   2.184
  2.198   2.206   2.215   2.255   2.262   2.283   2.295   2.309
  2.314   2.321   2.339   2.353   2.361   2.379   2.400   2.437
  2.470   2.493   2.499   2.563   2.584   2.630   2.644   2.655
  2.679   2.694   2.723   2.748   2.818   2.839   2.842   2.868
  2.946   2.950   2.969   2.995   3.069   3.137   3.168   3.250
  3.442   3.991   4.048   4.095   4.101   4.115   4.202   4.242
  4.257   4.266   4.289   4.304   4.383   4.395   4.503   4.553
  4.834
 --------------------------------------------------------------
 
          Ground-State Mulliken Net Atomic Charges

     Atom                 Charge (a.u.)
  ----------------------------------------
      1 C                     0.043219
      2 C                     0.034609
      3 C                     0.526613
      4 C                     0.530085
      5 O                    -0.444151
      6 O                    -0.483975
      7 O                    -0.446802
      8 O                    -0.477223
      9 C                    -0.219347
     10 C                    -0.217828
     11 C                     0.138763
     12 C                    -0.178362
     13 C                    -0.179015
     14 C                     0.139628
     15 H                     0.180911
     16 H                     0.170348
     17 H                     0.131488
     18 H                     0.167416
     19 H                     0.159929
     20 H                     0.164928
     21 H                     0.172151
     22 H                     0.130158
     23 C                    -0.524318
     24 C                    -0.516899
     25 H                     0.161775
     26 H                     0.151754
     27 H                     0.178351
     28 H                     0.193993
     29 H                     0.163527
     30 H                     0.148276
  ----------------------------------------
  Sum of atomic charges =    -0.000000

 -----------------------------------------------------------------
                    Cartesian Multipole Moments
 -----------------------------------------------------------------
    Charge (ESU x 10^10)
                -0.0000
    Dipole Moment (Debye)
         X       1.7018      Y      -1.1564      Z       2.3595
       Tot       3.1307
    Quadrupole Moments (Debye-Ang)
        XX     -81.8669     XY       4.1386     YY     -80.9030
        XZ      -2.2006     YZ       5.9237     ZZ     -98.3762
    Octopole Moments (Debye-Ang^2)
       XXX      43.6008    XXY       4.5785    XYY       4.0199
       YYY      33.2070    XXZ       9.0679    XYZ      -1.0065
       YYZ      13.5491    XZZ       7.0410    YZZ       7.2506
       ZZZ      -5.8757
    Hexadecapole Moments (Debye-Ang^3)
      XXXX   -2084.5239   XXXY      72.5179   XXYY    -696.6749
      XYYY     -11.6242   YYYY   -1839.2848   XXXZ      -2.3906
      XXYZ      21.1079   XYYZ     -12.3672   YYYZ      23.0998
      XXZZ    -423.8013   XYZZ      -5.8073   YYZZ    -398.8062
      XZZZ       5.0008   YZZZ       3.8571   ZZZZ    -254.7670
 -----------------------------------------------------------------
 Calculating analytic gradient of the SCF energy
 Gradient of SCF Energy
            1           2           3           4           5           6
    1  -0.0002955  -0.0008676  -0.0009264  -0.0001138   0.0015555   0.0001267
    2  -0.0008388  -0.0008529   0.0006583  -0.0013153   0.0008966  -0.0010382
    3   0.0008263   0.0016150  -0.0016612  -0.0029429   0.0005394   0.0006643
            7           8           9          10          11          12
    1   0.0002519   0.0011865  -0.0007336  -0.0013184  -0.0012800   0.0003969
    2   0.0019509   0.0001425  -0.0010625  -0.0000724  -0.0003202   0.0004372
    3   0.0013412   0.0004239  -0.0005034  -0.0005654  -0.0019708   0.0006176
           13          14          15          16          17          18
    1   0.0000075   0.0007446  -0.0000880   0.0001978   0.0000514   0.0000549
    2   0.0004544  -0.0004902   0.0001581  -0.0001535   0.0001737   0.0000312
    3  -0.0002831   0.0007629   0.0000902   0.0001290  -0.0002485   0.0002288
           19          20          21          22          23          24
    1   0.0003150   0.0000051   0.0000862   0.0000792   0.0001402   0.0010633
    2  -0.0002229  -0.0002257  -0.0000563   0.0002551   0.0016500   0.0012861
    3   0.0002701   0.0003294   0.0001581   0.0002237  -0.0004789   0.0005226
           25          26          27          28          29          30
    1  -0.0000394  -0.0000447  -0.0000785  -0.0002758  -0.0001692  -0.0000318
    2  -0.0001845  -0.0000755  -0.0004824  -0.0003906  -0.0001899  -0.0001225
    3  -0.0000826  -0.0003563   0.0000295   0.0000101   0.0001137   0.0001972
 Max gradient component =       2.943E-03
 RMS gradient           =       7.598E-04
 Gradient time:  CPU 77.17 s  wall 4.56 s
 Geometry Optimization Parameters
   NAtoms,    NIC,     NZ,  NCons,   NDum,   NFix, NCnnct, MaxDiis
       30     194       0       2       0       0       0       0

 Cartesian Hessian Update
 Hessian Updated using BFGS Update


** CONSTRAINED OPTIMIZATION IN DELOCALIZED INTERNAL COORDINATES **
   Searching for a Minimum

   Optimization Cycle:   3

                       Coordinates (Angstroms)
     ATOM                X               Y               Z
      1  C         0.3934235839   -0.6657814788   -0.0702567227
      2  C        -0.9387485343   -0.2144194067   -0.0278183980
      3  C         1.4674307806    0.3486432837   -0.3207483261
      4  C        -1.2472891522    1.2461806534   -0.1693184283
      5  O         2.5216892751    0.1919555822    0.5094306827
      6  O         1.4104672406    1.2171260937   -1.1657969639
      7  O        -0.6099868584    1.9763534336    0.7751223491
      8  O        -2.0147335754    1.7176948055   -0.9783482989
      9  C        -0.7795930752    3.3962829640    0.6530430291
     10  C         3.5895641169    1.1318352713    0.3174349175
     11  C         0.6900892218   -2.0388233298    0.0169547838
     12  C        -0.3813715351   -2.9202625647    0.1830627308
     13  C        -1.6968866629   -2.4697050141    0.2397423400
     14  C        -2.0078229924   -1.1128064270    0.1243734500
     15  H        -0.4129005178    3.7377629201   -0.3188188624
     16  H         4.0068844884    1.0417748975   -0.6896029435
     17  H        -2.5031272927   -3.1885449973    0.3628651461
     18  H        -1.8338318509    3.6688425102    0.7558971230
     19  H        -0.1896208675    3.8289300841    1.4625538878
     20  H         4.3380229256    0.8765464790    1.0689050455
     21  H         3.2288396596    2.1537219976    0.4625100411
     22  H        -0.1801022278   -3.9859171356    0.2575846214
     23  C        -3.4469217730   -0.6491294109    0.1496119293
     24  C         2.0991504095   -2.5835356702   -0.0692416807
     25  H         2.6766522598   -2.1038328475   -0.8650687799
     26  H         2.0767635908   -3.6590347100   -0.2739100391
     27  H         2.6462752573   -2.4247381953    0.8656617748
     28  H        -3.7560658212   -0.2816000145   -0.8334553844
     29  H        -3.6009281493    0.1717652818    0.8579535026
     30  H        -4.1091282342   -1.4717039342    0.4388130963
   Point Group: c1    Number of degrees of freedom:    84


   Energy is   -766.654989121

              Constraints and their Current Values
                                        Value     Constraint
   Dihedral:        2   1   3   5      135.200      135.200
   Dihedral:        1   2   4   7      -57.300      -57.300
 Hessian Updated using BFGS Update

 66 Hessian modes will be used to form the next step
  Hessian Eigenvalues:
     0.030245    0.045000    0.045001    0.045001    0.045004    0.045008
     0.045011    0.045063    0.045098    0.045640    0.048483    0.088710
     0.093874    0.094226    0.094421    0.110434    0.113851    0.116858
     0.116887    0.158609    0.159976    0.159999    0.160878    0.162754
     0.224721    0.244336    0.247557    0.249106    0.249621    0.249774
     0.249978    0.249994    0.250000    0.250000    0.253131    0.303735
     0.318925    0.319516    0.341615    0.341643    0.342397    0.342514
     0.342743    0.342911    0.342935    0.343271    0.343336    0.343521
     0.343665    0.344314    0.344401    0.348642    0.349835    0.360044
     0.408347    0.410714    0.413483    0.434338    0.438626    0.446231
     0.454460    0.464584    0.529808    0.537020    0.959196    0.961881

 Minimum Search - Taking Simple RFO Step
 Searching for Lamda that Minimizes Along All modes
 Value Taken    Lamda =  -0.00022291
 Step Taken.  Stepsize is  0.072751

                             Maximum     Tolerance    Cnvgd?
         Gradient           0.001902      0.000005      NO
         Displacement       0.026424      0.000005      NO
         Energy change     -0.000553      0.000000      NO


 New Cartesian Coordinates Obtained by Inverse Iteration

 Displacement from previous Coordinates is:  0.182954
 ----------------------------------------------------------------
             Standard Nuclear Orientation (Angstroms)
    I     Atom           X                Y                Z
 ----------------------------------------------------------------
    1      C       0.3913433471    -0.6587942898    -0.0749774004
    2      C      -0.9425012135    -0.2098267696    -0.0220769599
    3      C       1.4676927836     0.3566263366    -0.3143850626
    4      C      -1.2621096275     1.2499818532    -0.1579165903
    5      O       2.5215682026     0.1843638878     0.5111393625
    6      O       1.4098504439     1.2395486677    -1.1455519544
    7      O      -0.6235548872     1.9813040664     0.7817424630
    8      O      -2.0403208051     1.7135865345    -0.9620826265
    9      C      -0.7735296826     3.4033795077     0.6393574861
   10      C       3.5961815877     1.1206833391     0.3245630990
   11      C       0.6905945295    -2.0328307364     0.0134523448
   12      C      -0.3791133405    -2.9184639302     0.1732159948
   13      C      -1.6945623480    -2.4718147244     0.2348880089
   14      C      -2.0089001532    -1.1146532626     0.1265510070
   15      H      -0.3898362632     3.7222959084    -0.3336953579
   16      H       4.0026098161     1.0407417592    -0.6877838805
   17      H      -2.4988934009    -3.1932960261     0.3583499684
   18      H      -1.8264163564     3.6886836600     0.7184961635
   19      H      -0.1910917154     3.8420444658     1.4500366819
   20      H       4.3481561752     0.8538243415     1.0673109456
   21      H       3.2398520695     2.1427047102     0.4793816481
   22      H      -0.1750814261    -3.9844456552     0.2409002700
   23      C      -3.4493920492    -0.6602088164     0.1576745659
   24      C       2.0975419254    -2.5793250333    -0.0719045297
   25      H       2.6760817060    -2.0997047992    -0.8669962590
   26      H       2.0756637808    -3.6557253225    -0.2702054635
   27      H       2.6449170827    -2.4128496367     0.8617635729
   28      H      -3.7572576159    -0.2817876486    -0.8217802614
   29      H      -3.6045218378     0.1567779066     0.8704747754
   30      H      -4.1087770380    -1.4872391726     0.4391936111
 ----------------------------------------------------------------
 Molecular Point Group                 C1    NOp =  1
 Largest Abelian Subgroup              C1    NOp =  1
 Nuclear Repulsion Energy =  1139.3559826075 hartrees
 There are       59 alpha and       59 beta electrons
 Applying Cartesian multipole field
    Component          Value
    ---------          -----
     (2,0,0)        1.00000E-11
     (0,2,0)        2.00000E-11
     (0,0,2)       -3.00000E-10
 Nucleus-field energy     =     0.0000000068 hartrees
 Requested basis set is 6-31G(d)
 There are 92 shells and 268 basis functions
 A cutoff of  1.0D-12 yielded   3319 shell pairs
 There are     30792 function pairs
 Smallest overlap matrix eigenvalue = 2.75E-04
 Guess MOs from SCF MO coefficient file
 Reading MOs from coefficient file
 Reading MOs from coefficient file
 A restricted hybrid HF-DFT SCF calculation will be
 performed using Pulay DIIS extrapolation
 Exchange:     0.2000 Hartree-Fock + 0.0800 Slater + 0.7200 B88
 Correlation:  0.1900 VWN1RPA + 0.8100 LYP
 Using SG-1 standard quadrature grid
 Dispersion:   Grimme D3
 SCF converges when DIIS error is below 1.0E-08
 Geometry optimization detected.  Setting ReadMinima to 0
 Setting SaveMinima to 0
 using 24 threads for integral computing 
 -------------------------------------------------------
 OpenMP BLAS3 based DFT computing Module                
 Release: version 1.0, May 2013, Q-Chem Inc. Pittsburgh 
 -------------------------------------------------------
 ---------------------------------------
  Cycle       Energy         DIIS Error
 ---------------------------------------
    1    -766.6509989244      4.26E-04
    2    -766.6550728862      4.78E-05
    3    -766.6550538766      7.18E-05
    4    -766.6550973197      1.57E-05
    5    -766.6550991326      5.27E-06
    6    -766.6550992932      3.11E-06
    7    -766.6550993615      9.21E-07
    8    -766.6550993683      2.18E-07
    9    -766.6550993687      7.36E-08
   10    -766.6550993688      3.94E-08
   11    -766.6550993688      1.03E-08
   12    -766.6550993687      3.72E-09 Convergence criterion met
 ---------------------------------------
 SCF time:  CPU 188.91 s  wall 10.15 s
 SCF   energy in the final basis set = -766.6550993687
 Total energy in the final basis set = -766.6550993687
 
 --------------------------------------------------------------
 
                    Orbital Energies (a.u.)
 --------------------------------------------------------------
 
 Alpha MOs
 -- Occupied --
-19.196 -19.188 -19.137 -19.132 -10.318 -10.312 -10.243 -10.235
-10.212 -10.210 -10.210 -10.208 -10.196 -10.196 -10.186 -10.181
 -1.106  -1.097  -1.016  -1.010  -0.873  -0.799  -0.780  -0.737
 -0.723  -0.715  -0.665  -0.638  -0.609  -0.566  -0.556  -0.517
 -0.508  -0.500  -0.479  -0.474  -0.466  -0.463  -0.456  -0.430
 -0.426  -0.418  -0.414  -0.406  -0.402  -0.394  -0.381  -0.380
 -0.370  -0.361  -0.347  -0.346  -0.346  -0.306  -0.294  -0.282
 -0.271  -0.253  -0.242
 -- Virtual --
 -0.040  -0.019   0.030   0.041   0.092   0.103   0.112   0.124
  0.131   0.134   0.138   0.148   0.153   0.158   0.159   0.169
  0.171   0.178   0.186   0.196   0.204   0.219   0.243   0.262
  0.272   0.301   0.314   0.332   0.341   0.367   0.394   0.400
  0.422   0.498   0.502   0.506   0.512   0.514   0.527   0.530
  0.533   0.548   0.551   0.555   0.562   0.575   0.587   0.591
  0.606   0.607   0.617   0.638   0.643   0.659   0.680   0.695
  0.704   0.710   0.729   0.734   0.744   0.746   0.759   0.763
  0.786   0.820   0.825   0.833   0.849   0.852   0.858   0.867
  0.875   0.877   0.894   0.896   0.916   0.919   0.926   0.929
  0.941   0.962   0.968   0.975   0.979   0.989   1.008   1.016
  1.020   1.066   1.077   1.098   1.121   1.149   1.157   1.181
  1.188   1.209   1.218   1.238   1.252   1.264   1.272   1.311
  1.368   1.385   1.391   1.409   1.414   1.429   1.459   1.470
  1.484   1.492   1.536   1.565   1.617   1.625   1.655   1.660
  1.684   1.713   1.715   1.724   1.780   1.787   1.795   1.804
  1.819   1.848   1.853   1.869   1.884   1.900   1.904   1.934
  1.950   1.952   1.980   1.987   2.007   2.013   2.023   2.036
  2.048   2.058   2.093   2.103   2.107   2.130   2.145   2.183
  2.197   2.207   2.215   2.255   2.262   2.283   2.295   2.308
  2.312   2.321   2.340   2.354   2.362   2.380   2.399   2.439
  2.471   2.496   2.499   2.563   2.584   2.631   2.643   2.654
  2.677   2.692   2.723   2.748   2.818   2.838   2.841   2.869
  2.945   2.950   2.969   2.994   3.068   3.136   3.167   3.250
  3.441   3.991   4.048   4.095   4.101   4.109   4.202   4.241
  4.258   4.265   4.289   4.303   4.380   4.394   4.504   4.554
  4.833
 --------------------------------------------------------------
 
          Ground-State Mulliken Net Atomic Charges

     Atom                 Charge (a.u.)
  ----------------------------------------
      1 C                     0.041839
      2 C                     0.033228
      3 C                     0.528555
      4 C                     0.530487
      5 O                    -0.443743
      6 O                    -0.485897
      7 O                    -0.446116
      8 O                    -0.477548
      9 C                    -0.220263
     10 C                    -0.218250
     11 C                     0.138828
     12 C                    -0.178419
     13 C                    -0.178451
     14 C                     0.139551
     15 H                     0.181426
     16 H                     0.170748
     17 H                     0.131463
     18 H                     0.168415
     19 H                     0.160334
     20 H                     0.165443
     21 H                     0.172597
     22 H                     0.130137
     23 C                    -0.524598
     24 C                    -0.517083
     25 H                     0.161324
     26 H                     0.151809
     27 H                     0.178218
     28 H                     0.194241
     29 H                     0.163410
     30 H                     0.148315
  ----------------------------------------
  Sum of atomic charges =     0.000000

 -----------------------------------------------------------------
                    Cartesian Multipole Moments
 -----------------------------------------------------------------
    Charge (ESU x 10^10)
                 0.0000
    Dipole Moment (Debye)
         X       1.7694      Y      -1.1464      Z       2.3215
       Tot       3.1360
    Quadrupole Moments (Debye-Ang)
        XX     -81.9543     XY       4.2019     YY     -80.9266
        XZ      -2.1665     YZ       5.8579     ZZ     -98.2835
    Octopole Moments (Debye-Ang^2)
       XXX      45.3918    XXY       4.1963    XYY       4.0093
       YYY      33.0877    XXZ       9.0787    XYZ      -0.8642
       YYZ      13.1308    XZZ       7.4050    YZZ       7.2737
       ZZZ      -6.7378
    Hexadecapole Moments (Debye-Ang^3)
      XXXX   -2090.7350   XXXY      73.8321   XXYY    -698.9312
      XYYY     -11.5690   YYYY   -1839.2363   XXXZ      -2.3303
      XXYZ      20.7096   XYYZ     -11.9832   YYYZ      22.6747
      XXZZ    -424.3215   XYZZ      -5.5537   YYZZ    -398.7151
      XZZZ       4.5026   YZZZ       2.6709   ZZZZ    -251.2519
 -----------------------------------------------------------------
 Calculating analytic gradient of the SCF energy
 Gradient of SCF Energy
            1           2           3           4           5           6
    1  -0.0001924  -0.0001159   0.0009773   0.0002161  -0.0002337  -0.0000396
    2  -0.0001657   0.0003203  -0.0000660   0.0006223   0.0000824  -0.0001791
    3  -0.0007707   0.0023154  -0.0008971  -0.0021783   0.0003807   0.0000108
            7           8           9          10          11          12
    1  -0.0005780   0.0002453   0.0003591   0.0001997   0.0001047  -0.0004640
    2   0.0001387  -0.0003561  -0.0001796  -0.0001431  -0.0003393   0.0002850
    3   0.0011591   0.0000794   0.0003977   0.0004297  -0.0008923   0.0003301
           13          14          15          16          17          18
    1   0.0005956  -0.0003763  -0.0004126  -0.0001854  -0.0000770  -0.0000633
    2  -0.0001113  -0.0000065  -0.0000364   0.0000847  -0.0000482  -0.0000322
    3  -0.0002208   0.0003783  -0.0001293  -0.0000589  -0.0000311  -0.0001823
           19          20          21          22          23          24
    1   0.0000418  -0.0001172  -0.0000902   0.0000518   0.0001138  -0.0000140
    2  -0.0001346  -0.0000208  -0.0000162  -0.0000456   0.0000452   0.0002126
    3  -0.0000522   0.0000171  -0.0002905   0.0000892  -0.0000265   0.0000376
           25          26          27          28          29          30
    1  -0.0000362  -0.0001135  -0.0000051   0.0000859   0.0001203   0.0000029
    2   0.0002290  -0.0000854  -0.0000663   0.0000154   0.0001083  -0.0001118
    3   0.0002872  -0.0001512   0.0000028   0.0000236  -0.0001858   0.0001282
 Max gradient component =       2.315E-03
 RMS gradient           =       4.542E-04
 Gradient time:  CPU 77.08 s  wall 4.60 s
 Geometry Optimization Parameters
   NAtoms,    NIC,     NZ,  NCons,   NDum,   NFix, NCnnct, MaxDiis
       30     194       0       2       0       0       0       0

 Cartesian Hessian Update
 Hessian Updated using BFGS Update


** CONSTRAINED OPTIMIZATION IN DELOCALIZED INTERNAL COORDINATES **
   Searching for a Minimum

   Optimization Cycle:   4

                       Coordinates (Angstroms)
     ATOM                X               Y               Z
      1  C         0.3913433471   -0.6587942898   -0.0749774004
      2  C        -0.9425012135   -0.2098267696   -0.0220769599
      3  C         1.4676927836    0.3566263366   -0.3143850626
      4  C        -1.2621096275    1.2499818532   -0.1579165903
      5  O         2.5215682026    0.1843638878    0.5111393625
      6  O         1.4098504439    1.2395486677   -1.1455519544
      7  O        -0.6235548872    1.9813040664    0.7817424630
      8  O        -2.0403208051    1.7135865345   -0.9620826265
      9  C        -0.7735296826    3.4033795077    0.6393574861
     10  C         3.5961815877    1.1206833391    0.3245630990
     11  C         0.6905945295   -2.0328307364    0.0134523448
     12  C        -0.3791133405   -2.9184639302    0.1732159948
     13  C        -1.6945623480   -2.4718147244    0.2348880089
     14  C        -2.0089001532   -1.1146532626    0.1265510070
     15  H        -0.3898362632    3.7222959084   -0.3336953579
     16  H         4.0026098161    1.0407417592   -0.6877838805
     17  H        -2.4988934009   -3.1932960261    0.3583499684
     18  H        -1.8264163564    3.6886836600    0.7184961635
     19  H        -0.1910917154    3.8420444658    1.4500366819
     20  H         4.3481561752    0.8538243415    1.0673109456
     21  H         3.2398520695    2.1427047102    0.4793816481
     22  H        -0.1750814261   -3.9844456552    0.2409002700
     23  C        -3.4493920492   -0.6602088164    0.1576745659
     24  C         2.0975419254   -2.5793250333   -0.0719045297
     25  H         2.6760817060   -2.0997047992   -0.8669962590
     26  H         2.0756637808   -3.6557253225   -0.2702054635
     27  H         2.6449170827   -2.4128496367    0.8617635729
     28  H        -3.7572576159   -0.2817876486   -0.8217802614
     29  H        -3.6045218378    0.1567779066    0.8704747754
     30  H        -4.1087770380   -1.4872391726    0.4391936111
   Point Group: c1    Number of degrees of freedom:    84


   Energy is   -766.655099369

              Constraints and their Current Values
                                        Value     Constraint
   Dihedral:        2   1   3   5      135.200      135.200
   Dihedral:        1   2   4   7      -57.300      -57.300
 Hessian Updated using BFGS Update

 68 Hessian modes will be used to form the next step
  Hessian Eigenvalues:
     0.020467    0.045000    0.045000    0.045001    0.045004    0.045008
     0.045010    0.045053    0.045095    0.045347    0.045962    0.047661
     0.092182    0.093886    0.094230    0.094418    0.113778    0.114726
     0.116851    0.116913    0.158609    0.159813    0.159977    0.159999
     0.161101    0.161521    0.224707    0.242838    0.244596    0.249068
     0.249498    0.249623    0.249902    0.249991    0.249996    0.250000
     0.285779    0.306928    0.318946    0.334662    0.341450    0.341627
     0.342434    0.342651    0.342721    0.342923    0.342950    0.343246
     0.343369    0.343541    0.344215    0.344316    0.345047    0.349035
     0.350610    0.362795    0.408332    0.412250    0.414837    0.436148
     0.437509    0.446253    0.461624    0.465864    0.526693    0.537708
     0.957901    0.960919

 Minimum Search - Taking Simple RFO Step
 Searching for Lamda that Minimizes Along All modes
 Value Taken    Lamda =  -0.00005390
 Step Taken.  Stepsize is  0.040943

                             Maximum     Tolerance    Cnvgd?
         Gradient           0.001477      0.000005      NO
         Displacement       0.013492      0.000005      NO
         Energy change     -0.000110      0.000000      NO


 New Cartesian Coordinates Obtained by Inverse Iteration

 Displacement from previous Coordinates is:  0.155779
 ----------------------------------------------------------------
             Standard Nuclear Orientation (Angstroms)
    I     Atom           X                Y                Z
 ----------------------------------------------------------------
    1      C       0.3876561384    -0.6590452108    -0.0766075340
    2      C      -0.9460921500    -0.2118574336    -0.0189987463
    3      C       1.4595958509     0.3620858434    -0.3091526974
    4      C      -1.2636991942     1.2485327255    -0.1524641845
    5      O       2.5160541331     0.1890946125     0.5123814390
    6      O       1.3956414757     1.2521314749    -1.1327236532
    7      O      -0.6223287659     1.9784050161     0.7849283728
    8      O      -2.0420353069     1.7138380121    -0.9560946561
    9      C      -0.7521516574     3.4021952916     0.6307938447
   10      C       3.5875717876     1.1305780556     0.3279831320
   11      C       0.6895245178    -2.0328990811     0.0126456569
   12      C      -0.3794642917    -2.9203950534     0.1689977081
   13      C      -1.6957855762    -2.4755038898     0.2321589274
   14      C      -2.0118743225    -1.1184087120     0.1268845160
   15      H      -0.3501339981     3.7079327486    -0.3391847404
   16      H       3.9897423886     1.0597719611    -0.6867798774
   17      H      -2.4990151603    -3.1982236627     0.3551604255
   18      H      -1.8018902698     3.7022629178     0.6943582126
   19      H      -0.1744451312     3.8393468802     1.4455202178
   20      H       4.3438433031     0.8600883850     1.0648527431
   21      H       3.2291795000     2.1503256028     0.4929402914
   22      H      -0.1743644909    -3.9863790624     0.2332168790
   23      C      -3.4538031165    -0.6682148681     0.1609212406
   24      C       2.0961291250    -2.5805333652    -0.0733013460
   25      H       2.6742718407    -2.1047119302    -0.8712258258
   26      H       2.0742881046    -3.6576633322    -0.2660813427
   27      H       2.6450043666    -2.4093014966     0.8587171747
   28      H      -3.7626297313    -0.2842940400    -0.8161902669
   29      H      -3.6113421856     0.1445656146     0.8782043257
   30      H      -4.1112534939    -1.4981428827     0.4372753862
 ----------------------------------------------------------------
 Molecular Point Group                 C1    NOp =  1
 Largest Abelian Subgroup              C1    NOp =  1
 Nuclear Repulsion Energy =  1139.7271872841 hartrees
 There are       59 alpha and       59 beta electrons
 Applying Cartesian multipole field
    Component          Value
    ---------          -----
     (2,0,0)        1.00000E-11
     (0,2,0)        2.00000E-11
     (0,0,2)       -3.00000E-10
 Nucleus-field energy     =     0.0000000072 hartrees
 Requested basis set is 6-31G(d)
 There are 92 shells and 268 basis functions
 A cutoff of  1.0D-12 yielded   3320 shell pairs
 There are     30794 function pairs
 Smallest overlap matrix eigenvalue = 2.75E-04
 Guess MOs from SCF MO coefficient file
 Reading MOs from coefficient file
 Reading MOs from coefficient file
 A restricted hybrid HF-DFT SCF calculation will be
 performed using Pulay DIIS extrapolation
 Exchange:     0.2000 Hartree-Fock + 0.0800 Slater + 0.7200 B88
 Correlation:  0.1900 VWN1RPA + 0.8100 LYP
 Using SG-1 standard quadrature grid
 Dispersion:   Grimme D3
 SCF converges when DIIS error is below 1.0E-08
 Geometry optimization detected.  Setting ReadMinima to 0
 Setting SaveMinima to 0
 using 24 threads for integral computing 
 -------------------------------------------------------
 OpenMP BLAS3 based DFT computing Module                
 Release: version 1.0, May 2013, Q-Chem Inc. Pittsburgh 
 -------------------------------------------------------
 ---------------------------------------
  Cycle       Energy         DIIS Error
 ---------------------------------------
    1    -766.6537949399      2.46E-04
    2    -766.6551341513      2.05E-05
    3    -766.6551319214      3.33E-05
    4    -766.6551391796      7.82E-06
    5    -766.6551395716      2.61E-06
    6    -766.6551396226      9.47E-07
    7    -766.6551396293      2.98E-07
    8    -766.6551396299      1.04E-07
    9    -766.6551396301      3.60E-08
   10    -766.6551396300      1.56E-08
   11    -766.6551396300      5.30E-09 Convergence criterion met
 ---------------------------------------
 SCF time:  CPU 173.49 s  wall 9.31 s
 SCF   energy in the final basis set = -766.6551396300
 Total energy in the final basis set = -766.6551396300
 
 --------------------------------------------------------------
 
                    Orbital Energies (a.u.)
 --------------------------------------------------------------
 
 Alpha MOs
 -- Occupied --
-19.197 -19.188 -19.137 -19.132 -10.318 -10.312 -10.244 -10.234
-10.212 -10.210 -10.210 -10.208 -10.196 -10.196 -10.187 -10.181
 -1.106  -1.097  -1.015  -1.009  -0.873  -0.798  -0.780  -0.737
 -0.723  -0.715  -0.665  -0.637  -0.609  -0.566  -0.556  -0.517
 -0.508  -0.500  -0.479  -0.474  -0.466  -0.463  -0.456  -0.430
 -0.425  -0.418  -0.414  -0.406  -0.402  -0.394  -0.381  -0.380
 -0.370  -0.360  -0.347  -0.346  -0.346  -0.306  -0.294  -0.282
 -0.271  -0.253  -0.242
 -- Virtual --
 -0.041  -0.019   0.030   0.042   0.092   0.103   0.113   0.124
  0.131   0.134   0.138   0.148   0.152   0.158   0.159   0.169
  0.171   0.178   0.186   0.196   0.204   0.220   0.243   0.262
  0.272   0.301   0.314   0.333   0.341   0.367   0.395   0.400
  0.422   0.498   0.502   0.506   0.512   0.514   0.527   0.530
  0.533   0.548   0.551   0.555   0.563   0.575   0.587   0.591
  0.606   0.607   0.616   0.638   0.643   0.658   0.680   0.695
  0.704   0.711   0.730   0.734   0.744   0.746   0.758   0.762
  0.787   0.819   0.825   0.832   0.849   0.852   0.858   0.867
  0.875   0.879   0.893   0.896   0.916   0.919   0.926   0.929
  0.942   0.961   0.968   0.975   0.978   0.989   1.007   1.016
  1.020   1.067   1.077   1.099   1.122   1.149   1.157   1.180
  1.189   1.209   1.220   1.238   1.253   1.265   1.274   1.312
  1.367   1.385   1.391   1.409   1.416   1.430   1.459   1.469
  1.484   1.492   1.535   1.567   1.616   1.624   1.655   1.659
  1.685   1.712   1.716   1.724   1.780   1.787   1.795   1.804
  1.819   1.848   1.853   1.869   1.884   1.900   1.905   1.934
  1.948   1.953   1.980   1.987   2.008   2.012   2.023   2.036
  2.048   2.059   2.093   2.102   2.106   2.130   2.145   2.183
  2.197   2.206   2.215   2.255   2.262   2.283   2.295   2.308
  2.312   2.321   2.341   2.353   2.362   2.379   2.398   2.439
  2.472   2.497   2.500   2.562   2.584   2.631   2.643   2.653
  2.676   2.692   2.723   2.748   2.818   2.837   2.841   2.870
  2.945   2.950   2.969   2.995   3.069   3.135   3.166   3.250
  3.441   3.992   4.048   4.095   4.101   4.110   4.203   4.239
  4.258   4.266   4.289   4.304   4.381   4.395   4.505   4.553
  4.833
 --------------------------------------------------------------
 
          Ground-State Mulliken Net Atomic Charges

     Atom                 Charge (a.u.)
  ----------------------------------------
      1 C                     0.041469
      2 C                     0.033037
      3 C                     0.530086
      4 C                     0.530385
      5 O                    -0.444010
      6 O                    -0.486857
      7 O                    -0.446245
      8 O                    -0.477955
      9 C                    -0.220559
     10 C                    -0.218294
     11 C                     0.139233
     12 C                    -0.178753
     13 C                    -0.178399
     14 C                     0.140052
     15 H                     0.181736
     16 H                     0.170953
     17 H                     0.131513
     18 H                     0.168923
     19 H                     0.160122
     20 H                     0.165542
     21 H                     0.172585
     22 H                     0.130184
     23 C                    -0.524870
     24 C                    -0.517558
     25 H                     0.161290
     26 H                     0.152031
     27 H                     0.178175
     28 H                     0.194170
     29 H                     0.163525
     30 H                     0.148489
  ----------------------------------------
  Sum of atomic charges =     0.000000

 -----------------------------------------------------------------
                    Cartesian Multipole Moments
 -----------------------------------------------------------------
    Charge (ESU x 10^10)
                -0.0000
    Dipole Moment (Debye)
         X       1.8071      Y      -1.1600      Z       2.2990
       Tot       3.1459
    Quadrupole Moments (Debye-Ang)
        XX     -81.9722     XY       4.3379     YY     -80.9378
        XZ      -2.1835     YZ       5.8331     ZZ     -98.2428
    Octopole Moments (Debye-Ang^2)
       XXX      45.7688    XXY       4.0950    XYY       4.4725
       YYY      32.8416    XXZ       8.8766    XYZ      -0.8067
       YYZ      12.9180    XZZ       7.6889    YZZ       7.2866
       ZZZ      -7.2126
    Hexadecapole Moments (Debye-Ang^3)
      XXXX   -2086.1685   XXXY      70.8647   XXYY    -698.5799
      XYYY     -14.4390   YYYY   -1842.3110   XXXZ      -3.1809
      XXYZ      20.3838   XYYZ     -11.9554   YYYZ      22.4964
      XXZZ    -423.0162   XYZZ      -6.5871   YYZZ    -399.2598
      XZZZ       3.4873   YZZZ       2.2218   ZZZZ    -249.3705
 -----------------------------------------------------------------
 Calculating analytic gradient of the SCF energy
 Gradient of SCF Energy
            1           2           3           4           5           6
    1  -0.0006505   0.0005216   0.0006619   0.0012288  -0.0006831  -0.0002737
    2   0.0001666   0.0004343  -0.0003451   0.0004681   0.0001974   0.0001357
    3  -0.0017684   0.0025745  -0.0003464  -0.0014447   0.0004218   0.0000608
            7           8           9          10          11          12
    1  -0.0008557   0.0000409   0.0004480   0.0004772   0.0004001  -0.0003116
    2  -0.0006684  -0.0000520   0.0001886  -0.0000061  -0.0000236  -0.0000233
    3   0.0005558  -0.0000928   0.0003682   0.0003898  -0.0002266   0.0002142
           13          14          15          16          17          18
    1   0.0002381  -0.0003642  -0.0003005  -0.0000829  -0.0000600  -0.0000711
    2  -0.0002160   0.0001712   0.0000702   0.0000939  -0.0000297   0.0000577
    3  -0.0001365   0.0001098  -0.0001288  -0.0000762   0.0000489  -0.0001154
           19          20          21          22          23          24
[...]
  0.606   0.608   0.615   0.638   0.644   0.657   0.680   0.694
  0.705   0.714   0.728   0.735   0.742   0.745   0.754   0.763
  0.791   0.819   0.826   0.832   0.848   0.851   0.859   0.867
  0.877   0.877   0.893   0.895   0.916   0.921   0.926   0.930
  0.943   0.960   0.969   0.974   0.978   0.992   1.012   1.018
  1.025   1.064   1.075   1.102   1.124   1.152   1.159   1.178
  1.189   1.212   1.221   1.241   1.252   1.266   1.275   1.310
  1.359   1.387   1.391   1.408   1.413   1.430   1.458   1.471
  1.482   1.491   1.532   1.573   1.617   1.621   1.656   1.658
  1.683   1.712   1.720   1.724   1.778   1.788   1.794   1.804
  1.816   1.844   1.854   1.871   1.884   1.897   1.903   1.933
  1.948   1.951   1.979   1.987   2.005   2.015   2.025   2.038
  2.049   2.061   2.099   2.104   2.109   2.124   2.149   2.176
  2.198   2.209   2.214   2.256   2.260   2.285   2.293   2.309
  2.313   2.323   2.341   2.353   2.362   2.380   2.397   2.435
  2.475   2.490   2.500   2.559   2.583   2.631   2.642   2.656
  2.673   2.693   2.721   2.749   2.816   2.835   2.837   2.867
  2.945   2.953   2.969   2.997   3.070   3.136   3.162   3.255
  3.440   3.991   4.050   4.095   4.100   4.106   4.206   4.245
  4.257   4.260   4.290   4.303   4.387   4.403   4.503   4.546
  4.830
 --------------------------------------------------------------
 
          Ground-State Mulliken Net Atomic Charges

     Atom                 Charge (a.u.)
  ----------------------------------------
      1 C                     0.037758
      2 C                     0.032633
      3 C                     0.532673
      4 C                     0.536578
      5 O                    -0.444670
      6 O                    -0.487330
      7 O                    -0.448636
      8 O                    -0.479627
      9 C                    -0.221151
     10 C                    -0.217933
     11 C                     0.138706
     12 C                    -0.178334
     13 C                    -0.178308
     14 C                     0.138522
     15 H                     0.180126
     16 H                     0.170996
     17 H                     0.131794
     18 H                     0.171270
     19 H                     0.159900
     20 H                     0.165138
     21 H                     0.172022
     22 H                     0.130600
     23 C                    -0.523399
     24 C                    -0.518340
     25 H                     0.161802
     26 H                     0.151544
     27 H                     0.179316
     28 H                     0.195283
     29 H                     0.163687
     30 H                     0.147378
  ----------------------------------------
  Sum of atomic charges =    -0.000000

 -----------------------------------------------------------------
                    Cartesian Multipole Moments
 -----------------------------------------------------------------
    Charge (ESU x 10^10)
                -0.0000
    Dipole Moment (Debye)
         X       1.8181      Y      -1.2853      Z       2.2158
       Tot       3.1412
    Quadrupole Moments (Debye-Ang)
        XX     -81.7921     XY       4.6901     YY     -81.4879
        XZ      -1.9133     YZ       5.7820     ZZ     -98.1660
    Octopole Moments (Debye-Ang^2)
       XXX      46.4699    XXY       1.2867    XYY       6.5462
       YYY      31.6620    XXZ       9.3674    XYZ      -0.9106
       YYZ      14.6499    XZZ       6.6460    YZZ       7.0584
       ZZZ      -0.9842
    Hexadecapole Moments (Debye-Ang^3)
      XXXX   -2085.4719   XXXY      66.8340   XXYY    -710.3814
      XYYY       0.3721   YYYY   -1835.2752   XXXZ      -0.2302
      XXYZ      19.4503   XYYZ     -11.2218   YYYZ      25.4680
      XXZZ    -425.5779   XYZZ      -8.3694   YYZZ    -396.3627
      XZZZ       6.9008   YZZZ       4.7230   ZZZZ    -242.8495
 -----------------------------------------------------------------
 Calculating analytic gradient of the SCF energy
 Gradient of SCF Energy
            1           2           3           4           5           6
    1  -0.0000028   0.0000027   0.0000010   0.0000010   0.0000001  -0.0000006
    2   0.0000028  -0.0000002  -0.0000032   0.0000054  -0.0000039  -0.0000036
    3   0.0000005   0.0000015  -0.0000030  -0.0000004  -0.0000042  -0.0000044
            7           8           9          10          11          12
    1   0.0000027   0.0000023   0.0000045   0.0000016  -0.0000051   0.0000007
    2  -0.0000002  -0.0000001   0.0000033  -0.0000033  -0.0000048   0.0000019
    3  -0.0000048   0.0000007  -0.0000051  -0.0000072   0.0000030   0.0000056
           13          14          15          16          17          18
    1  -0.0000051  -0.0000021   0.0000045  -0.0000003  -0.0000032   0.0000057
    2   0.0000059  -0.0000030  -0.0000010  -0.0000068   0.0000036   0.0000025
    3   0.0000068   0.0000057  -0.0000066  -0.0000077   0.0000097  -0.0000048
           19          20          21          22          23          24
    1   0.0000067   0.0000020   0.0000029  -0.0000047  -0.0000002  -0.0000025
    2   0.0000022  -0.0000039  -0.0000037   0.0000008   0.0000063  -0.0000012
    3  -0.0000070  -0.0000079  -0.0000089   0.0000073   0.0000049   0.0000025
           25          26          27          28          29          30
    1  -0.0000044  -0.0000048  -0.0000018  -0.0000014   0.0000017  -0.0000015
    2  -0.0000047  -0.0000027  -0.0000018   0.0000025   0.0000053   0.0000055
    3  -0.0000005   0.0000036   0.0000003   0.0000059   0.0000058   0.0000086
 Max gradient component =       9.682E-06
 RMS gradient           =       4.265E-06
 Gradient time:  CPU 90.55 s  wall 4.76 s
 Geometry Optimization Parameters
   NAtoms,    NIC,     NZ,  NCons,   NDum,   NFix, NCnnct, MaxDiis
       30     194       0       0       0       0       0       0

 Cartesian Hessian Update
 Hessian Updated using BFGS Update
**WARNING** Hereditary positive definiteness endangered
**WARNING** Small Scalar Product
 Hessian Update Skipped this cycle


** GEOMETRY OPTIMIZATION IN DELOCALIZED INTERNAL COORDINATES **
   Searching for a Minimum

   Optimization Cycle:  15

                       Coordinates (Angstroms)
     ATOM                X               Y               Z
      1  C         0.3495165043   -0.6730392695   -0.0747700061
      2  C        -0.9614094426   -0.1560952885   -0.0418463576
      3  C         1.4757832262    0.2800496902   -0.3405480922
      4  C        -1.1995698817    1.3209185573   -0.1438760918
      5  O         2.5369691567    0.0594701100    0.4634113585
      6  O         1.4544931999    1.1480809282   -1.1893832159
      7  O        -0.4580606470    2.0027860941    0.7565323321
      8  O        -1.9924739230    1.8436399686   -0.8971283069
      9  C        -0.4998064093    3.4322840232    0.6150091037
     10  C         3.6646309400    0.9194138523    0.2287582677
     11  C         0.5777134220   -2.0602376869    0.0232898901
     12  C        -0.5385970974   -2.8900490747    0.1651217628
     13  C        -1.8309177702   -2.3773097845    0.2014920214
     14  C        -2.0750381294   -1.0060571066    0.0888613334
     15  H        -0.0591883279    3.7194825157   -0.3441319702
     16  H         4.0322442760    0.8006876504   -0.7944945629
     17  H        -2.6722344417   -3.0574157043    0.3107297468
     18  H        -1.5296470347    3.7952789853    0.6640948775
     19  H         0.0900448454    3.8261898856    1.4434393866
     20  H         4.4219255941    0.6107313644    0.9499088174
     21  H         3.3842225522    1.9648587073    0.3835068248
     22  H        -0.3910497254   -3.9648685336    0.2369454492
     23  C        -3.4931450080   -0.4842128154    0.1088312783
     24  C         1.9545644771   -2.6821784624   -0.0508338001
     25  H         2.5345276068   -2.2886226201   -0.8918869671
     26  H         1.8751568379   -3.7667013044   -0.1738263706
     27  H         2.5331367452   -2.4797322798    0.8557703269
     28  H        -3.7584644532   -0.0407907659   -0.8551332997
     29  H        -3.6278922256    0.3008841518    0.8609142561
     30  H        -4.1965817008   -1.2924099608    0.3316286497
   Point Group: c1    Number of degrees of freedom:    84


   Energy is   -766.655307468

 Hessian Updated using BFGS Update
**WARNING** Hereditary positive definiteness endangered
**WARNING** Small Scalar Product
 Hessian Update Skipped this cycle

 84 Hessian modes will be used to form the next step
  Hessian Eigenvalues:
     0.001738    0.004067    0.008021    0.008627    0.010684    0.010778
     0.016171    0.016302    0.018685    0.019892    0.021994    0.022126
     0.022245    0.022970    0.023056    0.023211    0.039112    0.064663
     0.070674    0.071623    0.071940    0.072504    0.072710    0.101465
     0.101809    0.105507    0.105943    0.159068    0.159606    0.159827
     0.159980    0.159991    0.159999    0.159999    0.160010    0.160029
     0.160095    0.160211    0.160485    0.160515    0.161090    0.225393
     0.245028    0.247055    0.247845    0.249734    0.249889    0.249919
     0.250141    0.250755    0.259596    0.282684    0.305809    0.311519
     0.313202    0.331917    0.340964    0.341568    0.341928    0.342923
     0.343239    0.343569    0.343872    0.344152    0.344176    0.344473
     0.347466    0.347781    0.351176    0.351289    0.361541    0.387869
     0.398931    0.403706    0.442892    0.448393    0.459905    0.464605
     0.533749    0.548308    0.554185    0.649855    0.979398    0.995162

 Minimum Search - Taking Simple RFO Step
 Searching for Lamda that Minimizes Along All modes
 Value Taken    Lamda =   0.00000000
 Step Taken.  Stepsize is  0.000207

                             Maximum     Tolerance    Cnvgd?
         Gradient           0.000004      0.000005     YES
         Displacement       0.000095      0.000005      NO
         Energy change      0.000000      0.000000     YES

 Final energy is   -766.655307467818     


 ******************************
 **  OPTIMIZATION CONVERGED  **
 ******************************

                       Coordinates (Angstroms)
     ATOM                X               Y               Z
      1  C         0.3495165043   -0.6730392695   -0.0747700061
      2  C        -0.9614094426   -0.1560952885   -0.0418463576
      3  C         1.4757832262    0.2800496902   -0.3405480922
      4  C        -1.1995698817    1.3209185573   -0.1438760918
      5  O         2.5369691567    0.0594701100    0.4634113585
      6  O         1.4544931999    1.1480809282   -1.1893832159
      7  O        -0.4580606470    2.0027860941    0.7565323321
      8  O        -1.9924739230    1.8436399686   -0.8971283069
      9  C        -0.4998064093    3.4322840232    0.6150091037
     10  C         3.6646309400    0.9194138523    0.2287582677
     11  C         0.5777134220   -2.0602376869    0.0232898901
     12  C        -0.5385970974   -2.8900490747    0.1651217628
     13  C        -1.8309177702   -2.3773097845    0.2014920214
     14  C        -2.0750381294   -1.0060571066    0.0888613334
     15  H        -0.0591883279    3.7194825157   -0.3441319702
     16  H         4.0322442760    0.8006876504   -0.7944945629
     17  H        -2.6722344417   -3.0574157043    0.3107297468
     18  H        -1.5296470347    3.7952789853    0.6640948775
     19  H         0.0900448454    3.8261898856    1.4434393866
     20  H         4.4219255941    0.6107313644    0.9499088174
     21  H         3.3842225522    1.9648587073    0.3835068248
     22  H        -0.3910497254   -3.9648685336    0.2369454492
     23  C        -3.4931450080   -0.4842128154    0.1088312783
     24  C         1.9545644771   -2.6821784624   -0.0508338001
     25  H         2.5345276068   -2.2886226201   -0.8918869671
     26  H         1.8751568379   -3.7667013044   -0.1738263706
     27  H         2.5331367452   -2.4797322798    0.8557703269
     28  H        -3.7584644532   -0.0407907659   -0.8551332997
     29  H        -3.6278922256    0.3008841518    0.8609142561
     30  H        -4.1965817008   -1.2924099608    0.3316286497

Z-matrix Print:
$molecule
0 1
O 
C  1 1.351116
O  2 1.212157 1 123.744133
C  1 1.437093 2 114.861883 3 10.133223 0
H  4 1.090588 1 105.590508 2 -176.527272 0
H  4 1.093045 1 110.688484 2 -56.532931 0
H  4 1.093882 1 109.621784 2 64.200865 0
C  2 1.499567 1 111.381427 3 177.292954 0
C  8 1.407014 2 118.399821 1 -127.968116 0
C  9 1.397360 8 117.517365 2 179.115004 0
H  10 1.087332 9 119.125166 8 -179.577182 0
C  10 1.390797 9 121.466595 8 0.993036 0
H  12 1.087274 10 119.262420 9 178.840382 0
C  12 1.398160 10 121.717415 9 -0.427345 0
C  14 1.409258 12 117.515318 10 -0.365120 0
C  15 1.499164 14 121.096521 12 174.967809 0
O  16 1.214270 15 124.418077 14 -130.976965 0
O  16 1.349489 15 112.409980 14 48.303422 0
C  18 1.437424 16 114.952148 15 -178.298253 0
H  19 1.090339 18 105.517662 16 179.888083 0
H  19 1.093403 18 110.347917 16 -60.366488 0
H  19 1.093747 18 110.576551 16 60.064787 0
C  9 1.511207 8 122.367579 2 -0.927973 0
H  23 1.093730 9 110.854104 8 -65.655613 0
H  23 1.094369 9 110.539395 8 173.565085 0
H  23 1.095519 9 111.836637 8 53.084099 0
C  14 1.512621 12 119.188974 10 178.190382 0
H  27 1.094359 14 110.299731 12 -10.946327 0
H  27 1.094377 14 111.380981 12 109.402704 0
H  27 1.094812 14 111.840910 12 -131.108087 0
$end

 
 --------------------------------------------------------------
 
                    Orbital Energies (a.u.)
 --------------------------------------------------------------
 
 Alpha MOs
 -- Occupied --
-19.196 -19.188 -19.137 -19.132 -10.318 -10.312 -10.244 -10.234
-10.212 -10.211 -10.210 -10.208 -10.197 -10.196 -10.186 -10.180
 -1.106  -1.097  -1.015  -1.009  -0.873  -0.798  -0.780  -0.737
 -0.723  -0.715  -0.665  -0.638  -0.609  -0.566  -0.556  -0.517
 -0.508  -0.500  -0.479  -0.474  -0.466  -0.463  -0.455  -0.430
 -0.426  -0.417  -0.414  -0.406  -0.402  -0.394  -0.382  -0.380
 -0.370  -0.360  -0.347  -0.346  -0.345  -0.306  -0.293  -0.282
 -0.270  -0.253  -0.242
 -- Virtual --
 -0.043  -0.020   0.031   0.044   0.092   0.103   0.113   0.124
  0.131   0.134   0.139   0.148   0.153   0.157   0.160   0.169
  0.171   0.179   0.187   0.195   0.204   0.219   0.244   0.262
  0.272   0.302   0.314   0.330   0.339   0.369   0.394   0.404
  0.422   0.498   0.502   0.506   0.511   0.514   0.525   0.531
  0.534   0.547   0.552   0.554   0.566   0.575   0.588   0.590
  0.606   0.608   0.615   0.638   0.644   0.657   0.680   0.694
  0.705   0.714   0.728   0.735   0.742   0.745   0.754   0.763
  0.791   0.819   0.826   0.832   0.848   0.851   0.859   0.867
  0.877   0.877   0.893   0.895   0.916   0.921   0.926   0.930
  0.943   0.960   0.969   0.974   0.978   0.992   1.012   1.018
  1.025   1.064   1.075   1.102   1.124   1.152   1.159   1.178
  1.189   1.212   1.221   1.241   1.252   1.266   1.275   1.310
  1.359   1.387   1.391   1.408   1.413   1.430   1.458   1.471
  1.482   1.491   1.532   1.573   1.617   1.621   1.656   1.658
  1.683   1.712   1.720   1.724   1.778   1.788   1.794   1.804
  1.816   1.844   1.854   1.871   1.884   1.897   1.903   1.933
  1.948   1.951   1.979   1.987   2.005   2.015   2.025   2.038
  2.049   2.061   2.099   2.104   2.109   2.124   2.149   2.176
  2.198   2.209   2.214   2.256   2.260   2.285   2.293   2.309
  2.313   2.323   2.341   2.353   2.362   2.380   2.397   2.435
  2.475   2.490   2.500   2.559   2.583   2.631   2.642   2.656
  2.673   2.693   2.721   2.749   2.816   2.835   2.837   2.867
  2.945   2.953   2.969   2.997   3.070   3.136   3.162   3.255
  3.440   3.991   4.050   4.095   4.100   4.106   4.206   4.245
  4.257   4.260   4.290   4.303   4.387   4.403   4.503   4.546
  4.830
 --------------------------------------------------------------
 
          Ground-State Mulliken Net Atomic Charges

     Atom                 Charge (a.u.)
  ----------------------------------------
      1 C                     0.037758
      2 C                     0.032633
      3 C                     0.532673
      4 C                     0.536578
      5 O                    -0.444670
      6 O                    -0.487330
      7 O                    -0.448636
      8 O                    -0.479627
      9 C                    -0.221151
     10 C                    -0.217933
     11 C                     0.138706
     12 C                    -0.178334
     13 C                    -0.178308
     14 C                     0.138522
     15 H                     0.180126
     16 H                     0.170996
     17 H                     0.131794
     18 H                     0.171270
     19 H                     0.159900
     20 H                     0.165138
     21 H                     0.172022
     22 H                     0.130600
     23 C                    -0.523399
     24 C                    -0.518340
     25 H                     0.161802
     26 H                     0.151544
     27 H                     0.179316
     28 H                     0.195283
     29 H                     0.163687
     30 H                     0.147378
  ----------------------------------------
  Sum of atomic charges =    -0.000000

 -----------------------------------------------------------------
                    Cartesian Multipole Moments
 -----------------------------------------------------------------
    Charge (ESU x 10^10)
                -0.0000
    Dipole Moment (Debye)
         X       1.8181      Y      -1.2853      Z       2.2158
       Tot       3.1412
    Quadrupole Moments (Debye-Ang)
        XX     -81.7921     XY       4.6901     YY     -81.4879
        XZ      -1.9133     YZ       5.7820     ZZ     -98.1660
    Octopole Moments (Debye-Ang^2)
       XXX      46.4699    XXY       1.2867    XYY       6.5462
       YYY      31.6620    XXZ       9.3674    XYZ      -0.9106
       YYZ      14.6499    XZZ       6.6460    YZZ       7.0584
       ZZZ      -0.9842
    Hexadecapole Moments (Debye-Ang^3)
      XXXX   -2085.4719   XXXY      66.8340   XXYY    -710.3814
      XYYY       0.3721   YYYY   -1835.2752   XXXZ      -0.2302
      XXYZ      19.4503   XYYZ     -11.2218   YYYZ      25.4680
      XXZZ    -425.5779   XYZZ      -8.3694   YYZZ    -396.3627
      XZZZ       6.9008   YZZZ       4.7230   ZZZZ    -242.8495
 -----------------------------------------------------------------
Archival summary:
1\1\nid06079\OPT\ProcedureUnspecified\6-31G*\41214\junteng\MonOct223:50:092017MonOct223:50:092017\0\\#,OPT,ProcedureUnspecified,6-31G*,\\0,1\O\C,1,1.35112\O,2,1.21216,1,123.744\C,1,1.43709,2,114.862,3,10.1332,0\H,4,1.09059,1,105.591,2,-176.527,0\H,4,1.09304,1,110.688,2,-56.5329,0\H,4,1.09388,1,109.622,2,64.2009,0\C,2,1.49957,1,111.381,3,177.293,0\C,8,1.40701,2,118.4,1,-127.968,0\C,9,1.39736,8,117.517,2,179.115,0\H,10,1.08733,9,119.125,8,-179.577,0\C,10,1.3908,9,121.467,8,0.993036,0\H,12,1.08727,10,119.262,9,178.84,0\C,12,1.39816,10,121.717,9,-0.427345,0\C,14,1.40926,12,117.515,10,-0.36512,0\C,15,1.49916,14,121.097,12,174.968,0\O,16,1.21427,15,124.418,14,-130.977,0\O,16,1.34949,15,112.41,14,48.3034,0\C,18,1.43742,16,114.952,15,-178.298,0\H,19,1.09034,18,105.518,16,179.888,0\H,19,1.0934,18,110.348,16,-60.3665,0\H,19,1.09375,18,110.577,16,60.0648,0\C,9,1.51121,8,122.368,2,-0.927973,0\H,23,1.09373,9,110.854,8,-65.6556,0\H,23,1.09437,9,110.539,8,173.565,0\H,23,1.09552,9,111.837,8,53.0841,0\C,14,1.51262,12,119.189,10,178.19,0\H,27,1.09436,14,110.3,12,-10.9463,0\H,27,1.09438,14,111.381,12,109.403,0\H,27,1.09481,14,111.841,12,-131.108,0\\\@

 Total job time:  219.67s(wall), 4850.25s(cpu) 
 Mon Oct  2 23:50:09 2017

        *************************************************************
        *                                                           *
        *  Thank you very much for using Q-Chem.  Have a nice day.  *
        *                                                           *
        *************************************************************


