nid00667 10.128.2
Q-Chem Developer Version! Running on 10.128.2.*
                  Welcome to Q-Chem
     A Quantum Leap Into The Future Of Chemistry


 Q-Chem 5.0, Q-Chem, Inc., Pleasanton, CA (2017)

 Yihan Shao,  Zhengting Gan,  E. Epifanovsky,  A. T. B. Gilbert,  M. Wormit,  
 J. Kussmann,  A. W. Lange,  A. Behn,  Jia Deng,  Xintian Feng,  D. Ghosh,  
 M. Goldey,  P. R. Horn,  L. D. Jacobson,  I. Kaliman,  T. Kus,  A. Landau,  
 Jie Liu,  E. I. Proynov,  R. M. Richard,  R. P. Steele,  E. J. Sundstrom,  
 H. L. Woodcock III,  P. M. Zimmerman,  D. Zuev,  B. Albrecht,  E. Alguire,  
 S. A. Baeppler,  Z. Benda,  Y. A. Bernard,  E. J. Berquist,  K. B. Bravaya,  
 D. Casanova,  Chun-Min Chang,  Yunqing Chen,  A. Chien,  K. D. Closser,  
 M. P. Coons,  S. Dasgupta,  M. Diedenhofen,  Hainam Do,  R. G. Edgar,  
 Po-Tung Fang,  S. Fatehi,  Qingguo Feng,  Qinghui Ge,  A. Ghysels,  
 J. Gomes,  J. Gonthier,  A. Gunina,  M. W. D. Hanson-Heine,  
 P. H. P. Harbach,  A. W. Hauser,  J. E. Herr,  E. G. Hohenstein,  
 Z. C. Holden,  Kerwin Hui,  T.-C. Jagau,  Hyunjun Ji,  B. Kaduk,  
 K. Khistyaev,  Jaehoon Kim,  P. Klunzinger,  K. Koh,  D. Kosenkov,  
 T. Kowalczyk,  C. M. Krauter,  A. Kunitsa,  Ka Un Lao,  A. Laurent,  
 K. V. Lawler,  Joonho Lee,  D. Lefrancois,  S. Lehtola,  D. S. Levine,  
 Yi-Pei Li,  You-Sheng Lin,  Fenglai Liu,  E. Livshits,  A. Luenser,  
 P. Manohar,  E. Mansoor,  S. F. Manzer,  Shan-Ping Mao,  Yuezhi Mao,  
 N. Mardirossian,  A. V. Marenich,  L. A. Martinez-Martinez,  S. A. Maurer,  
 N. J. Mayhall,  S. C. McKenzie,  J.-M. Mewes,  A. F. Morrison,  K. Nanda,  
 T. S. Nguyen-Beck,  R. Olivares-Amaya,  J. A. Parkhill,  T. M. Perrine,  
 F. Plasser,  S. Prager,  A. Prociuk,  D. R. Rehn,  F. Rob,  M. Schneider,  
 N. Sergueev,  S. M. Sharada,  S. Sharma,  D. W. Small,  T. Stauch,  
 T. Stein,  Yu-Chuan Su,  A. J. W. Thom,  T. Tsuchimochi,  L. Vogt,  
 O. Vydrov,  M. A. Watson,  J. Wenzel,  M. de Wergifosse,  T. A. Wesolowski,  
 A. White,  J. Witte,  A. Yamada,  Jun Yang,  K. Yao,  S. Yeganeh,  
 S. R. Yost,  Zhi-Qiang You,  A. Zech,  Igor Ying Zhang,  Xing Zhang,  
 Yan Zhao,  Ying Zhu,  B. R. Brooks,  G. K. L. Chan,  C. J. Cramer,  
 M. S. Gordon,  W. J. Hehre,  A. Klamt,  M. W. Schmidt,  C. D. Sherrill,  
 D. G. Truhlar,  A. Aspuru-Guzik,  R. Baer,  A. T. Bell,  N. A. Besley,  
 Jeng-Da Chai,  A. Dreuw,  B. D. Dunietz,  T. R. Furlani,  Chao-Ping Hsu,  
 Yousung Jung,  Jing Kong,  D. S. Lambrecht,  WanZhen Liang,  C. Ochsenfeld,  
 V. A. Rassolov,  L. V. Slipchenko,  J. E. Subotnik,  T. Van Voorhis,  
 J. M. Herbert,  A. I. Krylov,  P. M. W. Gill,  M. Head-Gordon

 Contributors to earlier versions of Q-Chem not listed above: 
 R. D. Adamson,  B. Austin,  J. Baker,  G. J. O. Beran,  K. Brandhorst,  
 S. T. Brown,  E. F. C. Byrd,  A. K. Chakraborty,  C.-L. Cheng,  
 Siu Hung Chien,  D. M. Chipman,  D. L. Crittenden,  H. Dachsel,  
 R. A. DiStasio Jr.,  R. J. Doerksen,  A. D. Dutoi,  L. Fusti-Molnar,  
 W. A. Goddard III,  A. Golubeva-Zadorozhnaya,  S. R. Gwaltney,  G. Hawkins,  
 A. Heyden,  S. Hirata,  G. Kedziora,  F. J. Keil,  C. Kelley,  Jihan Kim,  
 R. A. King,  R. Z. Khaliullin,  P. P. Korambath,  W. Kurlancheek,  
 A. M. Lee,  M. S. Lee,  S. V. Levchenko,  Ching Yeh Lin,  D. Liotard,  
 R. C. Lochan,  I. Lotan,  P. E. Maslen,  N. Nair,  D. P. O'Neill,  
 D. Neuhauser,  E. Neuscamman,  C. M. Oana,  R. Olson,  B. Peters,  
 R. Peverati,  P. A. Pieniazek,  Y. M. Rhee,  J. Ritchie,  M. A. Rohrdanz,  
 E. Rosta,  N. J. Russ,  H. F. Schaefer III,  N. E. Schultz,  N. Shenvi,  
 A. C. Simmonett,  A. Sodt,  D. Stuck,  K. S. Thanthiriwatte,  V. Vanovschi,  
 Tao Wang,  A. Warshel,  C. F. Williams,  Q. Wu,  X. Xu,  W. Zhang

 Please cite Q-Chem as follows:
 Y. Shao et al., Mol. Phys. 113, 184-215 (2015)
 DOI: 10.1080/00268976.2014.952696

 Q-Chem 5.0.0 for Intel X86 EM64T Linux

 Parts of Q-Chem use Armadillo 5.200.1 (Boston Tea Smuggler).
 http://arma.sourceforge.net/

 Q-Chem begins on Wed Oct  4 17:37:16 2017  

Host: nid00667
0

     Scratch files written to /global/cscratch1/sd/junteng/scratch/14/opt_1101-+.save//

Checking the input file for inconsistencies... 	...done.

--------------------------------------------------------------
User input:
--------------------------------------------------------------
$molecule
0  1
C    0.711  -1.958   0.589
C   -0.299  -1.995   1.756
C    1.089  -0.603   0.022
C   -0.528  -0.668   2.454
O    2.255  -0.726  -0.682
O    0.458   0.435   0.138
O    0.672  -0.221   2.944
O   -1.603  -0.140   2.687
C    0.580   1.027   3.634
C    2.698   0.490  -1.286
C   -0.031  -2.720  -0.508
C   -0.144  -4.202  -0.153
C   -1.210  -4.188   0.944
C   -1.515  -2.680   1.086
O   -1.391  -2.278  -0.299
H    1.639  -2.461   0.888
H    0.068  -2.659   2.552
H   -0.050   0.928   4.523
H    1.951   0.864  -1.993
H   -0.511  -4.776  -1.011
H    0.804  -4.638   0.173
H   -2.087  -4.746   0.595
H   -0.869  -4.649   1.876
H    1.587   1.311   3.953
H    0.196   1.807   2.969
H    3.619   0.278  -1.837
H    2.918   1.240  -0.519
H    0.300  -2.531  -1.532
C   -2.908  -2.427   1.624
H   -3.642  -3.061   1.114
H   -2.968  -2.632   2.696
H   -3.235  -1.402   1.426
$end


$opt
CONSTRAINT
tors    2    1    3    5    157.3
tors    1    2    4    7    -55.0
ENDCONSTRAINT
$end

$rem
JOBTYPE                   OPT
METHOD                    B3LYP
DFT_D                     D3_OP
BASIS                     STO-3G
GEOM_OPT_MAX_CYCLES       500
SYMMETRY                  False
THRESH                    12
SCF_CONVERGENCE           8
MAX_SUB_FILE_NUM          128
MEM_STATIC                400
MEM_TOTAL                 4000
$end

--------------------------------------------------------------
 Adding empirical dispersion correction 
 ----------------------------------------------------------------
 Doing -D3(op) with
 s6 =   1.00000
 s8 =   0.78311
 a1 =   0.30000
 a2 =   4.25000
 n  =  10.00000
 -D3 energy without 3body term =     -0.0354339443 hartrees
 ----------------------------------------------------------------
             Standard Nuclear Orientation (Angstroms)
    I     Atom           X                Y                Z
 ----------------------------------------------------------------
    1      C      -0.1011848019     0.8054220658     0.6072204492
    2      C       0.6620154878    -0.5364971559     0.5955533906
    3      C      -1.4015644380     0.8875516009    -0.1690949129
    4      C      -0.1410572282    -1.7318799813     0.1194146361
    5      O      -2.1190916287     1.9620046977     0.2792423188
    6      O      -1.7586593461     0.1451011244    -1.0692679610
    7      O      -1.2361871469    -1.8724092621     0.9323420513
    8      O       0.1839039632    -2.5367797787    -0.7380435496
    9      C      -2.0705618232    -2.9788079980     0.5833882767
   10      C      -3.3601324547     2.1543130106    -0.4008725103
   11      C       0.8921947687     1.7507805700    -0.0666573788
   12      C       2.1006898551     1.9956119456     0.8359583888
   13      C       2.8581814059     0.6714609442     0.7228580976
   14      C       1.9353848860    -0.1568246325    -0.1989024928
   15      O       1.4677351984     0.8937269451    -1.0780214566
   16      H      -0.3158357451     1.0989107000     1.6422969653
   17      H       0.9675145382    -0.8059543627     1.6169564177
   18      H      -1.5277085504    -3.9211288805     0.7032368423
   19      H      -3.1925366947     2.3218430413    -1.4693196780
   20      H       2.7207990583     2.8058706669     0.4368664437
   21      H       1.8242280680     2.2474343817     1.8632024401
   22      H       3.8327460722     0.8578355890     0.2561866896
   23      H       3.0366664167     0.1979666648     1.6931015044
   24      H      -2.9267737949    -2.9833521908     1.2640838105
   25      H      -2.4439876414    -2.8714877839    -0.4398988433
   26      H      -3.8403685125     3.0440784321     0.0168317195
   27      H      -4.0212059080     1.2961810682    -0.2403095674
   28      H       0.4702491978     2.6594561976    -0.5026946926
   29      C       2.6945415386    -1.2278384490    -0.9542253256
   30      H       3.6222933193    -0.8229488311    -1.3739312116
   31      H       2.9531506788    -2.0694657777    -0.3064647586
   32      H       2.1281180017    -1.5881402477    -1.8179990175
 ----------------------------------------------------------------
 Molecular Point Group                 C1    NOp =  1
 Largest Abelian Subgroup              C1    NOp =  1
 Nuclear Repulsion Energy =  1248.6091517482 hartrees
 There are       61 alpha and       61 beta electrons
 Requested basis set is STO-3G
 There are 48 shells and 96 basis functions

 Total QAlloc Memory Limit   4000 MB
 Mega-Array Size       392 MB
 MEM_STATIC part       400 MB
 A cutoff of  1.0D-12 yielded   1028 shell pairs
 There are      4526 function pairs
 
 -------------------------------------------------------
 OpenMP Integral Computing Module                       
 Release: version 1.0, May 2013, Q-Chem Inc. Pittsburgh 
 -------------------------------------------------------
 Integral Job Info:
 Integral job number is                      11
 Integral operator is                         1
 short-range coefficients                     0
 long-range coefficients              100000000
 Omega coefficients                           0
 if combine SR and LR in K                    0
 Integral screening is                        0
 Integral computing path is                   2
 max size of driver memory is            800000
 size of driver memory is                 45569
 size of scratch memory is               945100
 max col of scratch BK array                289
 max len of scratch array in speh3           22
 max len of scratch index in speh4            8
 max int batch size is                      520
 min int batch size is                       52
 fixed nKL is                                52
 max L of basis functions is                  1
 order of int derivative is                   0
 number of shells is                         48
 number of basis is                          96
 number of cartesian basis is                96
 number of contracted shell pairs          1028
 number of primitive shell pairs           5665
 maxK2 (contraction) of shell pair            9
 max number of K2 of shell pair               1
 max number of CS2 of shell pair            150
 max number of PS2 of shell pair            666
 mem total for path MDJ                   31466
 -------------------------------------------------------
 Smallest overlap matrix eigenvalue = 1.94E-01

 Scale SEOQF with 1.000000e-01/1.000000e-01/1.000000e-01

 Standard Electronic Orientation quadrupole field applied
 Nucleus-field energy     =     0.0000000345 hartrees
 Guess from superposition of atomic densities
 Warning:  Energy on first SCF cycle will be non-variational
 A restricted hybrid HF-DFT SCF calculation will be
 performed using Pulay DIIS extrapolation
 Exchange:     0.2000 Hartree-Fock + 0.0800 Slater + 0.7200 B88
 Correlation:  0.1900 VWN1RPA + 0.8100 LYP
 Using SG-1 standard quadrature grid
 Dispersion:   Grimme D3
 SCF converges when DIIS error is below 1.0E-08
 -------------------------------------------------------
 OpenMP Integral computing Module                
 Release: version 1.0, May 2013, Q-Chem Inc. Pittsburgh 
 -------------------------------------------------------
 -------------------------------------------------------
 OpenMP BLAS3 based DFT computing Module                
 Release: version 1.0, May 2013, Q-Chem Inc. Pittsburgh 
 -------------------------------------------------------
 ---------------------------------------
  Cycle       Energy         DIIS Error
 ---------------------------------------
    1    -793.7951598601      1.10E-01
    2    -794.2843676763      1.34E-02
    3    -793.3333321269      3.22E-02
    4    -794.5216836078      4.73E-03
    5    -794.5484650511      1.51E-03
    6    -794.5513969032      2.61E-04
    7    -794.5514890854      3.74E-05
    8    -794.5514903283      2.22E-05
    9    -794.5514908913      7.66E-06
   10    -794.5514909686      1.53E-06
   11    -794.5514909718      3.16E-07
   12    -794.5514909719      9.25E-08
   13    -794.5514909719      1.78E-08
   14    -794.5514909720      6.56E-09 Convergence criterion met
 ---------------------------------------
 SCF time:  CPU 62.57 s  wall 2.64 s
 SCF   energy in the final basis set = -794.5514909720
 Total energy in the final basis set = -794.5514909720
 
 --------------------------------------------------------------
 
                    Orbital Energies (a.u.)
 --------------------------------------------------------------
 
 Alpha MOs
 -- Occupied --
-18.943 -18.932 -18.868 -18.867 -18.860 -10.109 -10.103 -10.074
-10.066 -10.062 -10.059 -10.033 -10.031 -10.012 -10.008 -10.003
 -1.043  -1.032  -0.988  -0.952  -0.944  -0.774  -0.743  -0.732
 -0.691  -0.670  -0.644  -0.600  -0.547  -0.535  -0.503  -0.481
 -0.469  -0.452  -0.439  -0.430  -0.426  -0.421  -0.414  -0.389
 -0.380  -0.373  -0.369  -0.361  -0.345  -0.338  -0.319  -0.311
 -0.307  -0.306  -0.290  -0.285  -0.273  -0.248  -0.240  -0.217
 -0.183  -0.173  -0.152  -0.141  -0.132
 -- Virtual --
  0.113   0.128   0.246   0.275   0.297   0.311   0.337   0.354
  0.375   0.382   0.400   0.402   0.409   0.414   0.433   0.434
  0.439   0.446   0.447   0.456   0.457   0.463   0.467   0.476
  0.483   0.487   0.501   0.503   0.508   0.531   0.544   0.578
  0.585   0.705   0.710
 --------------------------------------------------------------
 
          Ground-State Mulliken Net Atomic Charges

     Atom                 Charge (a.u.)
  ----------------------------------------
      1 C                    -0.083253
      2 C                    -0.085483
      3 C                     0.238543
      4 C                     0.240385
      5 O                    -0.189915
      6 O                    -0.229133
      7 O                    -0.193361
      8 O                    -0.227914
      9 C                    -0.126235
     10 C                    -0.125671
     11 C                     0.027112
     12 C                    -0.148912
     13 C                    -0.146349
     14 C                     0.112176
     15 O                    -0.212592
     16 H                     0.088932
     17 H                     0.086216
     18 H                     0.090756
     19 H                     0.094062
     20 H                     0.077409
     21 H                     0.072391
     22 H                     0.076456
     23 H                     0.069266
     24 H                     0.092224
     25 H                     0.097060
     26 H                     0.095371
     27 H                     0.092912
     28 H                     0.086999
     29 C                    -0.230002
     30 H                     0.079447
     31 H                     0.082736
     32 H                     0.098367
  ----------------------------------------
  Sum of atomic charges =     0.000000

 -----------------------------------------------------------------
                    Cartesian Multipole Moments
 -----------------------------------------------------------------
    Charge (ESU x 10^10)
                 0.0000
    Dipole Moment (Debye)
         X      -0.9000      Y       1.0167      Z       2.2398
       Tot       2.6192
    Quadrupole Moments (Debye-Ang)
        XX     -78.1689     XY      -0.4924     YY     -83.5528
        XZ       1.8518     YZ      -3.7325     ZZ     -89.8619
    Octopole Moments (Debye-Ang^2)
       XXX     -39.6060    XXY       2.0281    XYY     -24.2189
       YYY      -4.1508    XXZ      -2.1840    XYZ       5.6095
       YYZ       2.6959    XZZ      -4.9119    YZZ      -1.2831
       ZZZ      -3.9507
    Hexadecapole Moments (Debye-Ang^3)
      XXXX   -1973.1049   XXXY     -37.3837   XXYY    -550.3213
      XYYY      13.0527   YYYY   -1542.9943   XXXZ     -20.5358
      XXYZ     -15.3485   XYYZ       3.7340   YYYZ     -48.0150
      XXZZ    -415.8538   XYZZ      -7.7171   YYZZ    -326.9796
      XZZZ      -2.4473   YZZZ       1.8990   ZZZZ    -354.7750
 -----------------------------------------------------------------
 Calculating analytic gradient of the SCF energy
 Gradient of SCF Energy
            1           2           3           4           5           6
    1   0.0105824  -0.0047585  -0.0132229  -0.0145618  -0.0080439   0.0193486
    2  -0.0094286   0.0006148   0.0177705  -0.0098726  -0.0439694   0.0387808
    3  -0.0409748  -0.0271339  -0.0065933   0.0069328  -0.0438092   0.0463905
            7           8           9          10          11          12
    1   0.0251284  -0.0101926   0.0105892   0.0172321  -0.0122285  -0.0111337
    2  -0.0315334   0.0398761   0.0145324  -0.0014748  -0.0114503  -0.0268783
    3  -0.0462533   0.0454110   0.0056542   0.0108542   0.0065478  -0.0228126
           13          14          15          16          17          18
    1  -0.0225272  -0.0132804   0.0045446   0.0009547   0.0009502  -0.0038117
    2   0.0054772  -0.0016595  -0.0046165  -0.0044751  -0.0029562   0.0135603
    3  -0.0246370   0.0052221   0.0629161  -0.0049379  -0.0071049   0.0038572
           19          20          21          22          23          24
    1   0.0029927   0.0007724   0.0019036  -0.0026177  -0.0008809   0.0067039
    2   0.0017931  -0.0059840  -0.0021286   0.0055801   0.0031867  -0.0023497
    3   0.0137962   0.0006951  -0.0064503   0.0039902  -0.0052610  -0.0078703
           25          26          27          28          29          30
    1   0.0031110   0.0020007   0.0092035   0.0069460  -0.0095853  -0.0048298
    2   0.0045157  -0.0084361   0.0092190  -0.0070614   0.0139670  -0.0048305
    3   0.0126380  -0.0059197   0.0042661   0.0054435   0.0229604  -0.0035494
           31          32
    1   0.0008812   0.0078296
    2   0.0043954   0.0058359
    3  -0.0032957  -0.0009721
 Max gradient component =       6.292E-02
 RMS gradient           =       1.745E-02
 Gradient time:  CPU 16.70 s  wall 0.71 s
 Geometry Optimization Parameters
   NAtoms,    NIC,     NZ,  NCons,   NDum,   NFix, NCnnct, MaxDiis
       32     251       0       2       0       0       0       0


** CONSTRAINED OPTIMIZATION IN DELOCALIZED INTERNAL COORDINATES **
   Searching for a Minimum

   Optimization Cycle:   1

                       Coordinates (Angstroms)
     ATOM                X               Y               Z
      1  C        -0.1011848019    0.8054220658    0.6072204492
      2  C         0.6620154878   -0.5364971559    0.5955533906
      3  C        -1.4015644380    0.8875516009   -0.1690949129
      4  C        -0.1410572282   -1.7318799813    0.1194146361
      5  O        -2.1190916287    1.9620046977    0.2792423188
      6  O        -1.7586593461    0.1451011244   -1.0692679610
      7  O        -1.2361871469   -1.8724092621    0.9323420513
      8  O         0.1839039632   -2.5367797787   -0.7380435496
      9  C        -2.0705618232   -2.9788079980    0.5833882767
     10  C        -3.3601324547    2.1543130106   -0.4008725103
     11  C         0.8921947687    1.7507805700   -0.0666573788
     12  C         2.1006898551    1.9956119456    0.8359583888
     13  C         2.8581814059    0.6714609442    0.7228580976
     14  C         1.9353848860   -0.1568246325   -0.1989024928
     15  O         1.4677351984    0.8937269451   -1.0780214566
     16  H        -0.3158357451    1.0989107000    1.6422969653
     17  H         0.9675145382   -0.8059543627    1.6169564177
     18  H        -1.5277085504   -3.9211288805    0.7032368423
     19  H        -3.1925366947    2.3218430413   -1.4693196780
     20  H         2.7207990583    2.8058706669    0.4368664437
     21  H         1.8242280680    2.2474343817    1.8632024401
     22  H         3.8327460722    0.8578355890    0.2561866896
     23  H         3.0366664167    0.1979666648    1.6931015044
     24  H        -2.9267737949   -2.9833521908    1.2640838105
     25  H        -2.4439876414   -2.8714877839   -0.4398988433
     26  H        -3.8403685125    3.0440784321    0.0168317195
     27  H        -4.0212059080    1.2961810682   -0.2403095674
     28  H         0.4702491978    2.6594561976   -0.5026946926
     29  C         2.6945415386   -1.2278384490   -0.9542253256
     30  H         3.6222933193   -0.8229488311   -1.3739312116
     31  H         2.9531506788   -2.0694657777   -0.3064647586
     32  H         2.1281180017   -1.5881402477   -1.8179990175
   Point Group: c1    Number of degrees of freedom:    90


   Energy is   -794.551490972

              Constraints and their Current Values
                                        Value     Constraint
   Dihedral:        2   1   3   5      161.506      157.300
   Dihedral:        1   2   4   7      -58.727      -55.000

 Attempting to Generate Delocalized Internal Coordinates

   Using Lagrange Multiplier Algorithm


 92 Hessian modes will be used to form the next step
  Hessian Eigenvalues:
    -0.977753   -0.977753    0.045000    0.045000    0.045000    0.045000
     0.045000    0.045010    0.045298    0.045515    0.048619    0.059359
     0.061550    0.067521    0.068252    0.070602    0.073231    0.073438
     0.076637    0.079785    0.081436    0.082111    0.083599    0.083601
     0.084460    0.085259    0.090062    0.091363    0.091986    0.097105
     0.108323    0.112588    0.113785    0.113804    0.116926    0.116971
     0.122385    0.127205    0.139525    0.143598    0.160000    0.160000
     0.160000    0.160000    0.160000    0.160000    0.160000    0.160000
     0.160000    0.167195    0.181257    0.244222    0.248535    0.249951
     0.250000    0.250000    0.250000    0.250000    0.252783    0.262190
     0.267687    0.287879    0.290216    0.306804    0.306860    0.308963
     0.329030    0.337223    0.340066    0.340731    0.341491    0.341652
     0.341740    0.342327    0.342899    0.343079    0.343239    0.343448
     0.343570    0.343585    0.343737    0.344460    0.344599    0.345095
     0.411320    0.412508    0.507662    0.514426    0.952633    0.953292
     1.022753    1.022753

 Minimum Search - Taking P-RFO Step
 Searching for Lamda that Maximizes Along the Constraint modes Only
 Value Taken    Lamda =   0.00486727
 Searching for Lamda that Minimizes Along All other modes
 Value Taken    Lamda =  -0.07039332
 Calculated Step too Large.  Step scaled by  0.701707
 Step Taken.  Stepsize is  0.300000

                             Maximum     Tolerance    Cnvgd?
         Gradient            0.077184       0.000300      NO
         Displacement        0.091991       0.001200      NO
         Energy change     *********       0.000001      NO


 New Cartesian Coordinates Obtained by Inverse Iteration

 Displacement from previous Coordinates is:  1.185361
 Adding empirical dispersion correction 
 ----------------------------------------------------------------
 Doing -D3(op) with
 s6 =   1.00000
 s8 =   0.78311
 a1 =   0.30000
 a2 =   4.25000
 n  =  10.00000
 -D3 energy without 3body term =     -0.0353148476 hartrees
 ----------------------------------------------------------------
             Standard Nuclear Orientation (Angstroms)
    I     Atom           X                Y                Z
 ----------------------------------------------------------------
    1      C      -0.0609045751     0.8424697116     0.6118978531
    2      C       0.6995464294    -0.5156803332     0.6045228551
    3      C      -1.4002178787     0.8627933701    -0.1690183094
    4      C      -0.1476687634    -1.7249758010     0.1195097762
    5      O      -2.1809954575     1.9228078561     0.3103168751
    6      O      -1.7534661464     0.0729467198    -1.0618716208
    7      O      -1.2926411475    -1.7968054480     0.9299331049
    8      O       0.1412471797    -2.5589136667    -0.7546728039
    9      C      -2.1784648651    -2.8879779299     0.5450723545
   10      C      -3.4650959374     2.0234577669    -0.3718163029
   11      C       0.9686535597     1.7942355172    -0.0856019917
   12      C       2.1867539620     2.0436239026     0.8593581718
   13      C       2.9409582968     0.6824368179     0.7517529777
   14      C       2.0028419940    -0.1464301750    -0.2102936436
   15      O       1.5431052203     0.9191775638    -1.1262773623
   16      H      -0.2768287161     1.1483763793     1.6489189448
   17      H       0.9971511991    -0.7740336503     1.6365871091
   18      H      -1.6907266362    -3.8722407030     0.6728669157
   19      H      -3.3384359980     2.1896368103    -1.4577484636
   20      H       2.8131607053     2.8585041433     0.4690828582
   21      H       1.8938698460     2.3002138800     1.8875846464
   22      H       3.9268240038     0.8392916361     0.2914652600
   23      H       3.0980667144     0.1999905876     1.7275399565
   24      H      -3.0564673626    -2.8411944827     1.2109221285
   25      H      -2.5225779516    -2.7805550906    -0.5002397622
   26      H      -3.9921688999     2.8918362334     0.0578208260
   27      H      -4.0820744101     1.1201478882    -0.2085669256
   28      H       0.5447473892     2.7066675804    -0.5358047288
   29      C       2.7469260270    -1.2545301761    -0.9747304254
   30      H       3.6868629558    -0.8602038496    -1.3879827868
   31      H       2.9837346401    -2.1009076751    -0.3171358854
   32      H       2.1578413629    -1.6121310693    -1.8303545153
 ----------------------------------------------------------------
 Molecular Point Group                 C1    NOp =  1
 Largest Abelian Subgroup              C1    NOp =  1
 Nuclear Repulsion Energy =  1231.0046457536 hartrees
 There are       61 alpha and       61 beta electrons
 Applying Cartesian multipole field
    Component          Value
    ---------          -----
     (2,0,0)        1.00000E-11
     (0,2,0)        2.00000E-11
     (0,0,2)       -3.00000E-11
 Nucleus-field energy     =     0.0000000346 hartrees
 Requested basis set is STO-3G
 There are 48 shells and 96 basis functions
 A cutoff of  1.0D-12 yielded   1024 shell pairs
 There are      4516 function pairs
 Smallest overlap matrix eigenvalue = 2.07E-01
 Guess MOs from SCF MO coefficient file
 Reading MOs from coefficient file
 Reading MOs from coefficient file
 A restricted hybrid HF-DFT SCF calculation will be
 performed using Pulay DIIS extrapolation
 Exchange:     0.2000 Hartree-Fock + 0.0800 Slater + 0.7200 B88
 Correlation:  0.1900 VWN1RPA + 0.8100 LYP
 Using SG-1 standard quadrature grid
 Dispersion:   Grimme D3
 SCF converges when DIIS error is below 1.0E-08
 Geometry optimization detected.  Setting ReadMinima to 0
 Setting SaveMinima to 0
 -------------------------------------------------------
 OpenMP Integral computing Module                
 Release: version 1.0, May 2013, Q-Chem Inc. Pittsburgh 
 -------------------------------------------------------
 -------------------------------------------------------
 OpenMP BLAS3 based DFT computing Module                
 Release: version 1.0, May 2013, Q-Chem Inc. Pittsburgh 
 -------------------------------------------------------
 ---------------------------------------
  Cycle       Energy         DIIS Error
 ---------------------------------------
    1    -794.4190239611      5.65E-03
    2    -794.5770457008      1.88E-03
    3    -794.5708938889      2.91E-03
    4    -794.5813016382      6.19E-04
    5    -794.5818209259      1.08E-04
    6    -794.5818375225      2.58E-05
    7    -794.5818379499      2.15E-05
    8    -794.5818385475      4.91E-06
    9    -794.5818385852      8.04E-07
   10    -794.5818385863      3.76E-07
   11    -794.5818385866      8.04E-08
   12    -794.5818385866      3.33E-08
   13    -794.5818385866      4.66E-09 Convergence criterion met
 ---------------------------------------
 SCF time:  CPU 58.45 s  wall 2.46 s
 SCF   energy in the final basis set = -794.5818385866
 Total energy in the final basis set = -794.5818385866
 
 --------------------------------------------------------------
 
                    Orbital Energies (a.u.)
 --------------------------------------------------------------
 
 Alpha MOs
 -- Occupied --
-18.940 -18.927 -18.873 -18.870 -18.861 -10.102 -10.096 -10.070
-10.062 -10.060 -10.057 -10.035 -10.031 -10.015 -10.010 -10.006
 -1.023  -1.012  -0.968  -0.941  -0.932  -0.764  -0.730  -0.722
 -0.680  -0.661  -0.638  -0.593  -0.542  -0.529  -0.496  -0.474
 -0.457  -0.443  -0.431  -0.420  -0.416  -0.411  -0.406  -0.382
 -0.378  -0.367  -0.364  -0.352  -0.342  -0.336  -0.312  -0.307
 -0.304  -0.300  -0.289  -0.281  -0.269  -0.250  -0.242  -0.222
 -0.181  -0.169  -0.152  -0.141  -0.135
 -- Virtual --
  0.103   0.121   0.237   0.260   0.278   0.294   0.319   0.338
  0.356   0.359   0.374   0.383   0.394   0.400   0.413   0.424
  0.426   0.432   0.434   0.438   0.439   0.443   0.449   0.452
  0.457   0.472   0.484   0.486   0.492   0.515   0.521   0.557
  0.562   0.668   0.673
 --------------------------------------------------------------
 
          Ground-State Mulliken Net Atomic Charges

     Atom                 Charge (a.u.)
  ----------------------------------------
      1 C                    -0.079260
      2 C                    -0.082337
      3 C                     0.222953
      4 C                     0.224575
      5 O                    -0.178246
      6 O                    -0.218319
      7 O                    -0.184292
      8 O                    -0.218366
      9 C                    -0.124937
     10 C                    -0.124915
     11 C                     0.024289
     12 C                    -0.146137
     13 C                    -0.144788
     14 C                     0.107062
     15 O                    -0.199620
     16 H                     0.087361
     17 H                     0.083374
     18 H                     0.087373
     19 H                     0.090960
     20 H                     0.076709
     21 H                     0.072409
     22 H                     0.075155
     23 H                     0.069208
     24 H                     0.088647
     25 H                     0.094303
     26 H                     0.092228
     27 H                     0.090071
     28 H                     0.083741
     29 C                    -0.227296
     30 H                     0.078961
     31 H                     0.081890
     32 H                     0.097244
  ----------------------------------------
  Sum of atomic charges =    -0.000000

 -----------------------------------------------------------------
                    Cartesian Multipole Moments
 -----------------------------------------------------------------
    Charge (ESU x 10^10)
                 0.0000
    Dipole Moment (Debye)
         X      -0.8090      Y       1.0386      Z       2.1835
       Tot       2.5496
    Quadrupole Moments (Debye-Ang)
        XX     -77.4526     XY      -0.2617     YY     -84.1832
        XZ       2.2441     YZ      -3.3568     ZZ     -89.6947
    Octopole Moments (Debye-Ang^2)
       XXX     -43.4530    XXY       0.9231    XYY     -22.5306
       YYY      -4.3887    XXZ      -2.3654    XYZ       6.0599
       YYZ       2.8011    XZZ      -5.6124    YZZ      -1.1943
       ZZZ      -3.6779
    Hexadecapole Moments (Debye-Ang^3)
      XXXX   -2079.7064   XXXY     -57.9401   XXYY    -566.6551
      XYYY      -2.0403   YYYY   -1511.8834   XXXZ     -16.6360
      XXYZ     -18.2229   XYYZ       4.3467   YYYZ     -55.9401
      XXZZ    -437.2437   XYZZ     -15.3080   YYZZ    -322.1040
      XZZZ       0.6454   YZZZ      -9.3961   ZZZZ    -361.2442
 -----------------------------------------------------------------
 Calculating analytic gradient of the SCF energy
 Gradient of SCF Energy
            1           2           3           4           5           6
    1   0.0082800  -0.0055148  -0.0052621  -0.0114934  -0.0031578   0.0051581
    2  -0.0115414   0.0066783   0.0162155   0.0009002  -0.0202619   0.0085673
    3  -0.0173103  -0.0130600   0.0029088   0.0144174  -0.0181935   0.0129724
            7           8           9          10          11          12
    1   0.0110993  -0.0009247   0.0052096   0.0097092  -0.0091398  -0.0041537
    2  -0.0132278   0.0095860   0.0081859   0.0002895   0.0009949  -0.0068707
    3  -0.0222399   0.0112507   0.0039364   0.0066834   0.0059010  -0.0067540
           13          14          15          16          17          18
    1  -0.0057986  -0.0067399   0.0040863  -0.0000008   0.0005859  -0.0012551
    2   0.0014309  -0.0066951  -0.0017307  -0.0038352  -0.0015852   0.0032961
    3  -0.0107586   0.0033487   0.0171207  -0.0006904  -0.0021123   0.0020181
           19          20          21          22          23          24
    1   0.0005678   0.0006760   0.0019636  -0.0009990   0.0012683   0.0010815
    2   0.0017229  -0.0023331   0.0006529   0.0029375   0.0015762  -0.0018492
    3   0.0035184   0.0007759  -0.0017487   0.0025971  -0.0013630  -0.0027278
           25          26          27          28          29          30
    1  -0.0004166  -0.0005556   0.0014917   0.0035676  -0.0036673  -0.0017549
    2   0.0013387  -0.0023459   0.0030934  -0.0020188   0.0045223  -0.0020322
    3   0.0036550  -0.0024584   0.0018937   0.0014609   0.0119835  -0.0027752
           31          32
    1   0.0011163   0.0049725
    2   0.0014092   0.0029298
    3  -0.0015466  -0.0027035
 Max gradient component =       2.224E-02
 RMS gradient           =       7.119E-03
 Gradient time:  CPU 16.00 s  wall 0.67 s
 Geometry Optimization Parameters
   NAtoms,    NIC,     NZ,  NCons,   NDum,   NFix, NCnnct, MaxDiis
       32     251       0       2       0       0       0       0

 Cartesian Hessian Update
 Hessian Updated using BFGS Update


** CONSTRAINED OPTIMIZATION IN DELOCALIZED INTERNAL COORDINATES **
   Searching for a Minimum

   Optimization Cycle:   2

                       Coordinates (Angstroms)
     ATOM                X               Y               Z
      1  C        -0.0609045751    0.8424697116    0.6118978531
      2  C         0.6995464294   -0.5156803332    0.6045228551
      3  C        -1.4002178787    0.8627933701   -0.1690183094
      4  C        -0.1476687634   -1.7249758010    0.1195097762
      5  O        -2.1809954575    1.9228078561    0.3103168751
      6  O        -1.7534661464    0.0729467198   -1.0618716208
      7  O        -1.2926411475   -1.7968054480    0.9299331049
      8  O         0.1412471797   -2.5589136667   -0.7546728039
      9  C        -2.1784648651   -2.8879779299    0.5450723545
     10  C        -3.4650959374    2.0234577669   -0.3718163029
     11  C         0.9686535597    1.7942355172   -0.0856019917
     12  C         2.1867539620    2.0436239026    0.8593581718
     13  C         2.9409582968    0.6824368179    0.7517529777
     14  C         2.0028419940   -0.1464301750   -0.2102936436
     15  O         1.5431052203    0.9191775638   -1.1262773623
     16  H        -0.2768287161    1.1483763793    1.6489189448
     17  H         0.9971511991   -0.7740336503    1.6365871091
     18  H        -1.6907266362   -3.8722407030    0.6728669157
     19  H        -3.3384359980    2.1896368103   -1.4577484636
     20  H         2.8131607053    2.8585041433    0.4690828582
     21  H         1.8938698460    2.3002138800    1.8875846464
     22  H         3.9268240038    0.8392916361    0.2914652600
     23  H         3.0980667144    0.1999905876    1.7275399565
     24  H        -3.0564673626   -2.8411944827    1.2109221285
     25  H        -2.5225779516   -2.7805550906   -0.5002397622
     26  H        -3.9921688999    2.8918362334    0.0578208260
     27  H        -4.0820744101    1.1201478882   -0.2085669256
     28  H         0.5447473892    2.7066675804   -0.5358047288
     29  C         2.7469260270   -1.2545301761   -0.9747304254
     30  H         3.6868629558   -0.8602038496   -1.3879827868
     31  H         2.9837346401   -2.1009076751   -0.3171358854
     32  H         2.1578413629   -1.6121310693   -1.8303545153
   Point Group: c1    Number of degrees of freedom:    90


   Energy is   -794.581838587

              Constraints and their Current Values
                                        Value     Constraint
   Dihedral:        2   1   3   5      158.651      157.300
   Dihedral:        1   2   4   7      -56.209      -55.000
 Hessian Updated using BFGS Update

   Using Lagrange Multiplier Algorithm


 80 Hessian modes will be used to form the next step
  Hessian Eigenvalues:
    -0.977798   -0.975866    0.044958    0.045000    0.045017    0.045402
     0.045534    0.048619    0.059368    0.061360    0.067484    0.068285
     0.070614    0.073206    0.073395    0.076764    0.079771    0.081313
     0.082145    0.083359    0.083601    0.084441    0.085372    0.090062
     0.091281    0.091961    0.096931    0.107761    0.112246    0.113737
     0.113796    0.116926    0.116970    0.122438    0.127800    0.140183
     0.143431    0.158954    0.161388    0.168840    0.181251    0.241461
     0.244641    0.248693    0.249957    0.250159    0.252407    0.262520
     0.268969    0.289470    0.295862    0.306833    0.308509    0.317435
     0.328954    0.337253    0.340077    0.340678    0.341491    0.341720
     0.342278    0.342798    0.343011    0.343226    0.343361    0.343542
     0.343581    0.343709    0.344437    0.344579    0.345020    0.376891
     0.411846    0.415262    0.495627    0.512385    0.952758    0.967053
     1.022737    1.030517

 Minimum Search - Taking P-RFO Step
 Searching for Lamda that Maximizes Along the Constraint modes Only
 Value Taken    Lamda =   0.00072399
 Searching for Lamda that Minimizes Along All other modes
 Value Taken    Lamda =  -0.01171567
 Step Taken.  Stepsize is  0.254701

                             Maximum     Tolerance    Cnvgd?
         Gradient            0.026175       0.000300      NO
         Displacement        0.070053       0.001200      NO
         Energy change     -0.030348       0.000001      NO


 New Cartesian Coordinates Obtained by Inverse Iteration

 Displacement from previous Coordinates is:  0.784471
 Adding empirical dispersion correction 
 ----------------------------------------------------------------
 Doing -D3(op) with
 s6 =   1.00000
 s8 =   0.78311
 a1 =   0.30000
 a2 =   4.25000
 n  =  10.00000
 -D3 energy without 3body term =     -0.0354457535 hartrees
 ----------------------------------------------------------------
             Standard Nuclear Orientation (Angstroms)
    I     Atom           X                Y                Z
 ----------------------------------------------------------------
    1      C      -0.0396762417     0.8893357689     0.6492502650
    2      C       0.7245911342    -0.4907578308     0.6421287165
    3      C      -1.3953672978     0.8644517699    -0.1352989533
    4      C      -0.1368454241    -1.7062050223     0.1423703467
    5      O      -2.2170832617     1.9178539319     0.3577267283
    6      O      -1.7420798946     0.0610593262    -1.0308948508
    7      O      -1.3148109738    -1.7426082879     0.9511973242
    8      O       0.1290301881    -2.5431349108    -0.7469625861
    9      C      -2.1961157944    -2.8310917540     0.4921919173
   10      C      -3.5015810856     1.9290919353    -0.3700541742
   11      C       1.0069056265     1.8193592569    -0.0896363012
   12      C       2.2370427549     2.0649880577     0.8626132604
   13      C       2.9795622761     0.6824981498     0.7607317150
   14      C       2.0213916822    -0.1341410268    -0.2084998135
   15      O       1.5527337710     0.9277555614    -1.1421223821
   16      H      -0.2464563025     1.2252718757     1.6812829974
   17      H       1.0291061409    -0.7407789947     1.6761900371
   18      H      -1.7168270972    -3.8259990807     0.6025929236
   19      H      -3.3567837734     2.0790193831    -1.4599365034
   20      H       2.8650729746     2.8796828827     0.4673883334
   21      H       1.9344440039     2.3245281308     1.8901532594
   22      H       3.9683088520     0.8040946849     0.2895839367
   23      H       3.1202179183     0.1905746291     1.7368458169
   24      H      -3.0967824354    -2.7840226074     1.1325915887
   25      H      -2.4886319173    -2.6946351672    -0.5695181562
   26      H      -4.0799377660     2.7756392479     0.0449536477
   27      H      -4.0658013755     0.9857203689    -0.2168953934
   28      H       0.5718730796     2.7277823973    -0.5504172920
   29      C       2.7101522250    -1.2828157481    -0.9858425171
   30      H       3.6543977700    -0.9196680598    -1.4212743657
   31      H       2.9269460184    -2.1247592673    -0.3114419897
   32      H       2.0565609649    -1.6360552866    -1.7979604496
 ----------------------------------------------------------------
 Molecular Point Group                 C1    NOp =  1
 Largest Abelian Subgroup              C1    NOp =  1
 Nuclear Repulsion Energy =  1226.8232180977 hartrees
 There are       61 alpha and       61 beta electrons
 Applying Cartesian multipole field
    Component          Value
    ---------          -----
     (2,0,0)        1.00000E-11
     (0,2,0)        2.00000E-11
     (0,0,2)       -3.00000E-11
 Nucleus-field energy     =     0.0000000343 hartrees
 Requested basis set is STO-3G
 There are 48 shells and 96 basis functions
 A cutoff of  1.0D-12 yielded   1023 shell pairs
 There are      4515 function pairs
 Smallest overlap matrix eigenvalue = 2.13E-01
 Guess MOs from SCF MO coefficient file
 Reading MOs from coefficient file
 Reading MOs from coefficient file
 A restricted hybrid HF-DFT SCF calculation will be
 performed using Pulay DIIS extrapolation
 Exchange:     0.2000 Hartree-Fock + 0.0800 Slater + 0.7200 B88
 Correlation:  0.1900 VWN1RPA + 0.8100 LYP
 Using SG-1 standard quadrature grid
 Dispersion:   Grimme D3
 SCF converges when DIIS error is below 1.0E-08
 Geometry optimization detected.  Setting ReadMinima to 0
 Setting SaveMinima to 0
 -------------------------------------------------------
 OpenMP Integral computing Module                
 Release: version 1.0, May 2013, Q-Chem Inc. Pittsburgh 
 -------------------------------------------------------
 -------------------------------------------------------
 OpenMP BLAS3 based DFT computing Module                
 Release: version 1.0, May 2013, Q-Chem Inc. Pittsburgh 
 -------------------------------------------------------
 ---------------------------------------
  Cycle       Energy         DIIS Error
 ---------------------------------------
    1    -794.5003416268      3.42E-03
    2    -794.5858150548      1.27E-03
    3    -794.5822526429      2.10E-03
    4    -794.5877841355      3.67E-04
    5    -794.5879666778      7.68E-05
    6    -794.5879748268      2.06E-05
    7    -794.5879750599      1.71E-05
    8    -794.5879754401      3.27E-06
    9    -794.5879754568      5.52E-07
   10    -794.5879754573      2.80E-07
   11    -794.5879754574      4.65E-08
   12    -794.5879754574      2.02E-08
   13    -794.5879754575      3.82E-09 Convergence criterion met
 ---------------------------------------
 SCF time:  CPU 57.90 s  wall 2.45 s
 SCF   energy in the final basis set = -794.5879754575
 Total energy in the final basis set = -794.5879754575
 
 --------------------------------------------------------------
 
                    Orbital Energies (a.u.)
 --------------------------------------------------------------
 
 Alpha MOs
 -- Occupied --
-18.937 -18.925 -18.876 -18.872 -18.866 -10.098 -10.093 -10.065
-10.059 -10.057 -10.057 -10.035 -10.030 -10.017 -10.012 -10.006
 -1.014  -1.003  -0.963  -0.936  -0.928  -0.760  -0.725  -0.718
 -0.672  -0.655  -0.636  -0.591  -0.540  -0.526  -0.490  -0.471
 -0.452  -0.439  -0.429  -0.414  -0.413  -0.405  -0.402  -0.380
 -0.376  -0.366  -0.357  -0.349  -0.339  -0.336  -0.310  -0.306
 -0.305  -0.294  -0.289  -0.277  -0.268  -0.254  -0.247  -0.226
 -0.180  -0.167  -0.153  -0.142  -0.138
 -- Virtual --
  0.098   0.116   0.236   0.255   0.272   0.286   0.309   0.327
  0.343   0.346   0.360   0.375   0.386   0.392   0.405   0.420
  0.423   0.424   0.428   0.430   0.433   0.437   0.440   0.441
  0.448   0.464   0.475   0.480   0.490   0.505   0.512   0.549
  0.553   0.651   0.657
 --------------------------------------------------------------
 
          Ground-State Mulliken Net Atomic Charges

     Atom                 Charge (a.u.)
  ----------------------------------------
      1 C                    -0.077730
      2 C                    -0.081398
      3 C                     0.214935
      4 C                     0.216501
      5 O                    -0.170716
      6 O                    -0.213436
      7 O                    -0.177237
      8 O                    -0.212886
      9 C                    -0.127094
     10 C                    -0.127014
     11 C                     0.023888
     12 C                    -0.144562
     13 C                    -0.144130
     14 C                     0.104342
     15 O                    -0.194451
     16 H                     0.086552
     17 H                     0.081781
     18 H                     0.086095
     19 H                     0.089847
     20 H                     0.076917
     21 H                     0.072872
     22 H                     0.074539
     23 H                     0.069991
     24 H                     0.086387
     25 H                     0.093418
     26 H                     0.090127
     27 H                     0.089168
     28 H                     0.081945
     29 C                    -0.226349
     30 H                     0.078327
     31 H                     0.080536
     32 H                     0.098836
  ----------------------------------------
  Sum of atomic charges =    -0.000000

 -----------------------------------------------------------------
                    Cartesian Multipole Moments
 -----------------------------------------------------------------
    Charge (ESU x 10^10)
                -0.0000
    Dipole Moment (Debye)
         X      -0.6458      Y       0.9817      Z       2.0758
       Tot       2.3853
    Quadrupole Moments (Debye-Ang)
        XX     -77.8089     XY       0.0022     YY     -84.5743
        XZ       2.6648     YZ      -2.9787     ZZ     -89.5883
    Octopole Moments (Debye-Ang^2)
       XXX     -43.7504    XXY      -0.3176    XYY     -20.3495
       YYY      -6.5075    XXZ      -3.5490    XYZ       5.6594
       YYZ       1.5064    XZZ      -5.8401    YZZ      -1.5766
       ZZZ      -5.7308
    Hexadecapole Moments (Debye-Ang^3)
      XXXX   -2112.2181   XXXY     -63.9902   XXYY    -574.1851
      XYYY      -8.5700   YYYY   -1488.6600   XXXZ     -16.8018
      XXYZ     -20.5120   XYYZ       4.6014   YYYZ     -60.0643
      XXZZ    -443.4574   XYZZ     -18.1579   YYZZ    -318.3827
      XZZZ       0.5557   YZZZ     -16.7291   ZZZZ    -364.3459
 -----------------------------------------------------------------
 Calculating analytic gradient of the SCF energy
 Gradient of SCF Energy
            1           2           3           4           5           6
    1   0.0038712  -0.0008162  -0.0030220  -0.0041186  -0.0002176  -0.0009591
    2  -0.0013180   0.0032715   0.0090415  -0.0033117  -0.0033210  -0.0028771
    3  -0.0031689  -0.0058455   0.0003059   0.0080192  -0.0009693   0.0009537
            7           8           9          10          11          12
    1   0.0002939   0.0021218   0.0037924   0.0041521  -0.0029091  -0.0022867
    2   0.0012963  -0.0008350   0.0025444  -0.0014724   0.0024068  -0.0011817
    3  -0.0044012  -0.0013238   0.0000083   0.0010813   0.0049607  -0.0002857
           13          14          15          16          17          18
    1  -0.0018370  -0.0024273   0.0024563  -0.0004728   0.0006012   0.0000219
    2  -0.0004732  -0.0041143   0.0001476  -0.0019421  -0.0002850  -0.0002780
    3  -0.0013591   0.0018937  -0.0010604   0.0009809   0.0001268   0.0002093
           19          20          21          22          23          24
    1  -0.0001177   0.0004655   0.0006894   0.0002125   0.0012832  -0.0000858
    2   0.0002119  -0.0001833   0.0010923   0.0004194   0.0000119   0.0003139
    3  -0.0002909  -0.0003424   0.0001575   0.0000283   0.0003027   0.0002866
           25          26          27          28          29          30
    1  -0.0001771  -0.0000045  -0.0002715   0.0002299  -0.0012796   0.0001472
    2  -0.0000127   0.0002996  -0.0001796  -0.0003645  -0.0003454   0.0002866
    3  -0.0002178   0.0001842   0.0002035  -0.0012108   0.0031217  -0.0005153
           31          32
    1  -0.0000684   0.0007326
    2  -0.0000310   0.0011822
    3   0.0001562  -0.0019892
 Max gradient component =       9.042E-03
 RMS gradient           =       2.192E-03
 Gradient time:  CPU 16.45 s  wall 0.69 s
 Geometry Optimization Parameters
   NAtoms,    NIC,     NZ,  NCons,   NDum,   NFix, NCnnct, MaxDiis
       32     251       0       2       0       0       0       0

 Cartesian Hessian Update
 Hessian Updated using BFGS Update


** CONSTRAINED OPTIMIZATION IN DELOCALIZED INTERNAL COORDINATES **
   Searching for a Minimum

   Optimization Cycle:   3

                       Coordinates (Angstroms)
     ATOM                X               Y               Z
      1  C        -0.0396762417    0.8893357689    0.6492502650
      2  C         0.7245911342   -0.4907578308    0.6421287165
      3  C        -1.3953672978    0.8644517699   -0.1352989533
      4  C        -0.1368454241   -1.7062050223    0.1423703467
      5  O        -2.2170832617    1.9178539319    0.3577267283
      6  O        -1.7420798946    0.0610593262   -1.0308948508
      7  O        -1.3148109738   -1.7426082879    0.9511973242
      8  O         0.1290301881   -2.5431349108   -0.7469625861
      9  C        -2.1961157944   -2.8310917540    0.4921919173
     10  C        -3.5015810856    1.9290919353   -0.3700541742
     11  C         1.0069056265    1.8193592569   -0.0896363012
     12  C         2.2370427549    2.0649880577    0.8626132604
     13  C         2.9795622761    0.6824981498    0.7607317150
     14  C         2.0213916822   -0.1341410268   -0.2084998135
     15  O         1.5527337710    0.9277555614   -1.1421223821
     16  H        -0.2464563025    1.2252718757    1.6812829974
     17  H         1.0291061409   -0.7407789947    1.6761900371
     18  H        -1.7168270972   -3.8259990807    0.6025929236
     19  H        -3.3567837734    2.0790193831   -1.4599365034
     20  H         2.8650729746    2.8796828827    0.4673883334
     21  H         1.9344440039    2.3245281308    1.8901532594
     22  H         3.9683088520    0.8040946849    0.2895839367
     23  H         3.1202179183    0.1905746291    1.7368458169
     24  H        -3.0967824354   -2.7840226074    1.1325915887
     25  H        -2.4886319173   -2.6946351672   -0.5695181562
     26  H        -4.0799377660    2.7756392479    0.0449536477
     27  H        -4.0658013755    0.9857203689   -0.2168953934
     28  H         0.5718730796    2.7277823973   -0.5504172920
     29  C         2.7101522250   -1.2828157481   -0.9858425171
     30  H         3.6543977700   -0.9196680598   -1.4212743657
     31  H         2.9269460184   -2.1247592673   -0.3114419897
     32  H         2.0565609649   -1.6360552866   -1.7979604496
   Point Group: c1    Number of degrees of freedom:    90


   Energy is   -794.587975457

              Constraints and their Current Values
                                        Value     Constraint
   Dihedral:        2   1   3   5      157.308      157.300
   Dihedral:        1   2   4   7      -55.002      -55.000
 Hessian Updated using BFGS Update

   Using Lagrange Multiplier Algorithm


 83 Hessian modes will be used to form the next step
  Hessian Eigenvalues:
    -0.977502   -0.976426    0.042875    0.045000    0.045003    0.045011
     0.045407    0.045528    0.048597    0.059036    0.059402    0.066955
     0.068266    0.070716    0.073025    0.073437    0.076787    0.079723
     0.080444    0.082016    0.082622    0.083605    0.084421    0.085228
     0.090079    0.091278    0.092102    0.096725    0.108221    0.113414
     0.113794    0.113921    0.116927    0.116970    0.122532    0.129107
     0.140262    0.144118    0.159431    0.160495    0.162255    0.168346
     0.181336    0.241259    0.244644    0.249664    0.249999    0.250151
     0.251398    0.262269    0.267078    0.269166    0.289769    0.296997
     0.306934    0.308643    0.313587    0.328657    0.337247    0.340076
     0.340784    0.341463    0.341785    0.342237    0.342744    0.342990
     0.343223    0.343352    0.343535    0.343625    0.343714    0.344442
     0.344596    0.345037    0.387702    0.392440    0.411960    0.477176
     0.511729    0.952770    0.983129    1.023231    1.031561

 Minimum Search - Taking P-RFO Step
 Searching for Lamda that Maximizes Along the Constraint modes Only
 Value Taken    Lamda =   0.00001280
 Searching for Lamda that Minimizes Along All other modes
 Value Taken    Lamda =  -0.00132168
 Step Taken.  Stepsize is  0.135463

                             Maximum     Tolerance    Cnvgd?
         Gradient            0.005785       0.000300      NO
         Displacement        0.062715       0.001200      NO
         Energy change     -0.006137       0.000001      NO


 New Cartesian Coordinates Obtained by Inverse Iteration

 Displacement from previous Coordinates is:  0.298486
 Adding empirical dispersion correction 
 ----------------------------------------------------------------
 Doing -D3(op) with
 s6 =   1.00000
 s8 =   0.78311
 a1 =   0.30000
 a2 =   4.25000
 n  =  10.00000
 -D3 energy without 3body term =     -0.0355194826 hartrees
 ----------------------------------------------------------------
             Standard Nuclear Orientation (Angstroms)
    I     Atom           X                Y                Z
 ----------------------------------------------------------------
    1      C      -0.0344454381     0.8837224124     0.6713864138
    2      C       0.7413640336    -0.4961394344     0.6544225231
    3      C      -1.3837633628     0.8454099430    -0.1276266580
    4      C      -0.1319586967    -1.7068261202     0.1497012696
    5      O      -2.2314820362     1.8894099560     0.3660162874
    6      O      -1.7026580386     0.0648157573    -1.0531014721
    7      O      -1.3126363492    -1.7457916360     0.9707276117
    8      O       0.1083602115    -2.5367215283    -0.7526143128
    9      C      -2.2225407964    -2.8182130880     0.5052661918
   10      C      -3.5079959948     1.9121164312    -0.3903164211
   11      C       1.0091873914     1.8175272365    -0.0791026854
   12      C       2.2459718441     2.0685239385     0.8687989571
   13      C       2.9962249865     0.6907335558     0.7561559088
   14      C       2.0332068102    -0.1251532701    -0.2121781140
   15      O       1.5429346972     0.9320852406    -1.1390385500
   16      H      -0.2391851738     1.2261348857     1.7010824528
   17      H       1.0518156920    -0.7499541525     1.6852500574
   18      H      -1.7553481766    -3.8210835867     0.5902340085
   19      H      -3.3392125697     2.0833071201    -1.4733084877
   20      H       2.8640241520     2.8927601908     0.4782383088
   21      H       1.9399339074     2.3140038351     1.8985813015
   22      H       3.9827375494     0.8148271866     0.2812958013
   23      H       3.1354036208     0.1912625364     1.7279641845
   24      H      -3.1144160720    -2.7702706116     1.1574034931
   25      H      -2.5241550066    -2.6590235982    -0.5505070511
   26      H      -4.0993322509     2.7465850526     0.0299197470
   27      H      -4.0685699668     0.9620825598    -0.2707947671
   28      H       0.5616689261     2.7253731977    -0.5296045465
   29      C       2.7145557054    -1.2746483022    -1.0017699766
   30      H       3.6507128982    -0.9133615080    -1.4542387159
   31      H       2.9441722631    -2.1122096969    -0.3260794828
   32      H       2.0389819806    -1.6392501892    -1.7891261912
 ----------------------------------------------------------------
 Molecular Point Group                 C1    NOp =  1
 Largest Abelian Subgroup              C1    NOp =  1
 Nuclear Repulsion Energy =  1225.2901648693 hartrees
 There are       61 alpha and       61 beta electrons
 Applying Cartesian multipole field
    Component          Value
    ---------          -----
     (2,0,0)        1.00000E-11
     (0,2,0)        2.00000E-11
     (0,0,2)       -3.00000E-11
 Nucleus-field energy     =     0.0000000340 hartrees
 Requested basis set is STO-3G
 There are 48 shells and 96 basis functions
 A cutoff of  1.0D-12 yielded   1022 shell pairs
 There are      4511 function pairs
 Smallest overlap matrix eigenvalue = 2.14E-01
 Guess MOs from SCF MO coefficient file
 Reading MOs from coefficient file
 Reading MOs from coefficient file
 A restricted hybrid HF-DFT SCF calculation will be
 performed using Pulay DIIS extrapolation
 Exchange:     0.2000 Hartree-Fock + 0.0800 Slater + 0.7200 B88
 Correlation:  0.1900 VWN1RPA + 0.8100 LYP
 Using SG-1 standard quadrature grid
 Dispersion:   Grimme D3
 SCF converges when DIIS error is below 1.0E-08
 Geometry optimization detected.  Setting ReadMinima to 0
 Setting SaveMinima to 0
 -------------------------------------------------------
 OpenMP Integral computing Module                
 Release: version 1.0, May 2013, Q-Chem Inc. Pittsburgh 
 -------------------------------------------------------
 -------------------------------------------------------
 OpenMP BLAS3 based DFT computing Module                
 Release: version 1.0, May 2013, Q-Chem Inc. Pittsburgh 
 -------------------------------------------------------
 ---------------------------------------
  Cycle       Energy         DIIS Error
 ---------------------------------------
    1    -794.5708010301      1.99E-03
    2    -794.5884556597      4.09E-04
    3    -794.5876449599      8.95E-04
    4    -794.5886887859      8.06E-05
    5    -794.5886970076      2.85E-05
    6    -794.5886979642      1.12E-05
    7    -794.5886980655      7.30E-06
    8    -794.5886981365      9.61E-07
    9    -794.5886981379      1.65E-07
   10    -794.5886981379      4.68E-08
   11    -794.5886981379      1.80E-08
   12    -794.5886981378      5.72E-09 Convergence criterion met
 ---------------------------------------
 SCF time:  CPU 53.06 s  wall 2.23 s
 SCF   energy in the final basis set = -794.5886981378
 Total energy in the final basis set = -794.5886981378
 
 --------------------------------------------------------------
 
                    Orbital Energies (a.u.)
 --------------------------------------------------------------
 
 Alpha MOs
 -- Occupied --
-18.934 -18.921 -18.879 -18.873 -18.868 -10.097 -10.093 -10.064
-10.060 -10.058 -10.056 -10.035 -10.031 -10.018 -10.013 -10.006
 -1.010  -0.999  -0.964  -0.934  -0.926  -0.760  -0.725  -0.717
 -0.671  -0.654  -0.636  -0.591  -0.540  -0.526  -0.489  -0.469
 -0.451  -0.438  -0.429  -0.413  -0.412  -0.404  -0.401  -0.380
 -0.376  -0.366  -0.357  -0.349  -0.340  -0.336  -0.311  -0.306
 -0.306  -0.293  -0.289  -0.277  -0.267  -0.253  -0.246  -0.228
 -0.178  -0.166  -0.153  -0.143  -0.139
 -- Virtual --
  0.097   0.115   0.233   0.252   0.268   0.286   0.307   0.325
  0.339   0.343   0.357   0.373   0.384   0.390   0.403   0.418
  0.422   0.423   0.427   0.430   0.432   0.435   0.439   0.441
  0.448   0.463   0.473   0.478   0.491   0.502   0.511   0.546
  0.552   0.649   0.655
 --------------------------------------------------------------
 
          Ground-State Mulliken Net Atomic Charges

     Atom                 Charge (a.u.)
  ----------------------------------------
      1 C                    -0.077458
      2 C                    -0.080904
      3 C                     0.213473
      4 C                     0.214578
      5 O                    -0.170112
      6 O                    -0.212566
      7 O                    -0.177276
      8 O                    -0.211620
      9 C                    -0.128664
     10 C                    -0.128529
     11 C                     0.024587
     12 C                    -0.144619
     13 C                    -0.144494
     14 C                     0.104874
     15 O                    -0.193635
     16 H                     0.086883
     17 H                     0.081863
     18 H                     0.086066
     19 H                     0.089574
     20 H                     0.077292
     21 H                     0.073222
     22 H                     0.075028
     23 H                     0.070742
     24 H                     0.086636
     25 H                     0.092937
     26 H                     0.090282
     27 H                     0.088864
     28 H                     0.081647
     29 C                    -0.227276
     30 H                     0.078855
     31 H                     0.080178
     32 H                     0.099572
  ----------------------------------------
  Sum of atomic charges =    -0.000000

 -----------------------------------------------------------------
                    Cartesian Multipole Moments
 -----------------------------------------------------------------
    Charge (ESU x 10^10)
                -0.0000
    Dipole Moment (Debye)
         X      -0.5657      Y       0.9822      Z       2.0692
       Tot       2.3593
    Quadrupole Moments (Debye-Ang)
        XX     -77.5405     XY       0.0902     YY     -84.5798
        XZ       2.7433     YZ      -2.9302     ZZ     -89.7098
    Octopole Moments (Debye-Ang^2)
       XXX     -44.4301    XXY      -0.6637    XYY     -20.2220
       YYY      -6.0993    XXZ      -4.1885    XYZ       5.8252
       YYZ       1.3053    XZZ      -5.7843    YZZ      -1.3105
       ZZZ      -5.9673
    Hexadecapole Moments (Debye-Ang^3)
      XXXX   -2118.9049   XXXY     -67.5275   XXYY    -573.8584
      XYYY     -13.6579   YYYY   -1477.2636   XXXZ     -16.3835
      XXYZ     -20.9119   XYYZ       4.3322   YYYZ     -58.7557
      XXZZ    -446.1001   XYZZ     -19.8561   YYZZ    -318.1599
      XZZZ       0.1213   YZZZ     -16.0843   ZZZZ    -371.2591
 -----------------------------------------------------------------
 Calculating analytic gradient of the SCF energy
 Gradient of SCF Energy
            1           2           3           4           5           6
    1   0.0008346   0.0008960   0.0014382   0.0018057   0.0000624  -0.0013649
    2   0.0006058   0.0016733   0.0025165  -0.0018575  -0.0005304  -0.0020091
    3   0.0007746  -0.0039277   0.0001683   0.0052613   0.0007710  -0.0005280
            7           8           9          10          11          12
    1  -0.0008266   0.0000576  -0.0017481  -0.0014555  -0.0004463  -0.0005009
    2   0.0018460  -0.0011654  -0.0007313   0.0009720   0.0008913   0.0002093
    3  -0.0024106  -0.0008793   0.0005963  -0.0000739   0.0025944   0.0007739
           13          14          15          16          17          18
    1   0.0001955  -0.0004344   0.0008901   0.0000636   0.0000992  -0.0000022
    2  -0.0001228  -0.0005278   0.0003617  -0.0011874  -0.0000152  -0.0002004
    3   0.0004396   0.0012825  -0.0025210   0.0006069   0.0000183  -0.0001142
           19          20          21          22          23          24
    1  -0.0001297   0.0002845   0.0001902   0.0000658   0.0005444  -0.0003981
    2  -0.0001997  -0.0001330   0.0006280   0.0001688  -0.0000815  -0.0002508
    3  -0.0001769  -0.0003158   0.0000536  -0.0001766  -0.0000309  -0.0000459
           25          26          27          28          29          30
    1   0.0000736  -0.0003253  -0.0000931  -0.0003851   0.0003367   0.0004212
    2  -0.0001998   0.0001546  -0.0001749  -0.0004553  -0.0007649   0.0000330
    3  -0.0001457  -0.0000870  -0.0002187  -0.0009396  -0.0006671   0.0004561
           31          32
    1  -0.0005830   0.0004338
    2  -0.0001690   0.0007159
    3  -0.0001784  -0.0003595
 Max gradient component =       5.261E-03
 RMS gradient           =       1.096E-03
 Gradient time:  CPU 16.40 s  wall 0.68 s
 Geometry Optimization Parameters
   NAtoms,    NIC,     NZ,  NCons,   NDum,   NFix, NCnnct, MaxDiis
       32     251       0       2       0       0       0       0

 Cartesian Hessian Update
 Hessian Updated using BFGS Update


** CONSTRAINED OPTIMIZATION IN DELOCALIZED INTERNAL COORDINATES **
   Searching for a Minimum

   Optimization Cycle:   4

                       Coordinates (Angstroms)
     ATOM                X               Y               Z
      1  C        -0.0344454381    0.8837224124    0.6713864138
      2  C         0.7413640336   -0.4961394344    0.6544225231
      3  C        -1.3837633628    0.8454099430   -0.1276266580
      4  C        -0.1319586967   -1.7068261202    0.1497012696
      5  O        -2.2314820362    1.8894099560    0.3660162874
      6  O        -1.7026580386    0.0648157573   -1.0531014721
      7  O        -1.3126363492   -1.7457916360    0.9707276117
      8  O         0.1083602115   -2.5367215283   -0.7526143128
      9  C        -2.2225407964   -2.8182130880    0.5052661918
     10  C        -3.5079959948    1.9121164312   -0.3903164211
     11  C         1.0091873914    1.8175272365   -0.0791026854
     12  C         2.2459718441    2.0685239385    0.8687989571
     13  C         2.9962249865    0.6907335558    0.7561559088
     14  C         2.0332068102   -0.1251532701   -0.2121781140
     15  O         1.5429346972    0.9320852406   -1.1390385500
     16  H        -0.2391851738    1.2261348857    1.7010824528
     17  H         1.0518156920   -0.7499541525    1.6852500574
     18  H        -1.7553481766   -3.8210835867    0.5902340085
     19  H        -3.3392125697    2.0833071201   -1.4733084877
     20  H         2.8640241520    2.8927601908    0.4782383088
     21  H         1.9399339074    2.3140038351    1.8985813015
     22  H         3.9827375494    0.8148271866    0.2812958013
     23  H         3.1354036208    0.1912625364    1.7279641845
     24  H        -3.1144160720   -2.7702706116    1.1574034931
     25  H        -2.5241550066   -2.6590235982   -0.5505070511
     26  H        -4.0993322509    2.7465850526    0.0299197470
     27  H        -4.0685699668    0.9620825598   -0.2707947671
     28  H         0.5616689261    2.7253731977   -0.5296045465
     29  C         2.7145557054   -1.2746483022   -1.0017699766
     30  H         3.6507128982   -0.9133615080   -1.4542387159
     31  H         2.9441722631   -2.1122096969   -0.3260794828
     32  H         2.0389819806   -1.6392501892   -1.7891261912
   Point Group: c1    Number of degrees of freedom:    90


   Energy is   -794.588698138

              Constraints and their Current Values
                                        Value     Constraint
   Dihedral:        2   1   3   5      157.300      157.300
   Dihedral:        1   2   4   7      -55.000      -55.000
 Hessian Updated using BFGS Update

   Using Lagrange Multiplier Algorithm


 84 Hessian modes will be used to form the next step
  Hessian Eigenvalues:
    -0.975134    0.027677    0.045000    0.045000    0.045005    0.045357
     0.045412    0.045540    0.048626    0.054859    0.059458    0.066828
     0.068225    0.070823    0.073004    0.073438    0.076693    0.079802
     0.080620    0.081908    0.082554    0.083658    0.084469    0.085137
     0.090148    0.091398    0.092102    0.096856    0.108101    0.113793
     0.113842    0.114371    0.116927    0.116971    0.123112    0.128886
     0.140269    0.144210    0.159744    0.160208    0.160520    0.162464
     0.169122    0.181338    0.242746    0.244639    0.249809    0.249999
     0.250021    0.250355    0.251827    0.262383    0.268939    0.283275
     0.290666    0.296645    0.307230    0.308490    0.326903    0.329316
     0.337362    0.340124    0.340759    0.341504    0.341762    0.342379
     0.342924    0.343098    0.343282    0.343411    0.343536    0.343707
     0.344366    0.344491    0.345010    0.345501    0.384935    0.411873
     0.453255    0.509346    0.536258    0.953274    0.984323    1.029332

 Minimum Search - Taking P-RFO Step
 Searching for Lamda that Maximizes Along the Constraint modes Only
 Value Taken    Lamda =   0.00000164
 Searching for Lamda that Minimizes Along All other modes
 Value Taken    Lamda =  -0.00042001
 Step Taken.  Stepsize is  0.104936

                             Maximum     Tolerance    Cnvgd?
         Gradient            0.004691       0.000300      NO
         Displacement        0.046449       0.001200      NO
         Energy change     -0.000723       0.000001      NO


 New Cartesian Coordinates Obtained by Inverse Iteration

 Displacement from previous Coordinates is:  0.278359
 Adding empirical dispersion correction 
 ----------------------------------------------------------------
 Doing -D3(op) with
 s6 =   1.00000
 s8 =   0.78311
 a1 =   0.30000
 a2 =   4.25000
 n  =  10.00000
 -D3 energy without 3body term =     -0.0356784153 hartrees
 ----------------------------------------------------------------
             Standard Nuclear Orientation (Angstroms)
    I     Atom           X                Y                Z
 ----------------------------------------------------------------
    1      C      -0.0328900967     0.8798758502     0.6917983408
    2      C       0.7485052734    -0.4969806274     0.6677044361
    3      C      -1.3750599919     0.8307751870    -0.1149592582
    4      C      -0.1312365601    -1.6984713017     0.1568480776
    5      O      -2.2362486603     1.8655614570     0.3787555510
    6      O      -1.6708107952     0.0659091894    -1.0598373016
    7      O      -1.3093364860    -1.7328770340     0.9850078441
    8      O       0.0944558948    -2.5193386230    -0.7564845531
    9      C      -2.2276506527    -2.7887878994     0.5001313427
   10      C      -3.4983594710     1.8817819436    -0.4012288981
   11      C       1.0045143080     1.8157098427    -0.0703892001
   12      C       2.2488283915     2.0699130849     0.8679512343
   13      C       3.0018391492     0.6948475650     0.7476954742
   14      C       2.0317837909    -0.1223829022    -0.2121383493
   15      O       1.5250871258     0.9301203525    -1.1331605723
   16      H      -0.2360330010     1.2286887837     1.7192355225
   17      H       1.0642231959    -0.7536612050     1.6960832344
   18      H      -1.7679910657    -3.7965385105     0.5646070867
   19      H      -3.3103772044     2.0656680021    -1.4789254263
   20      H       2.8589114533     2.8999043047     0.4778878950
   21      H       1.9459950945     2.3067213050     1.9005230631
   22      H       3.9856239147     0.8181298045     0.2676513105
   23      H       3.1427735267     0.1942210364     1.7184135836
   24      H      -3.1157222907    -2.7444542703     1.1570719659
   25      H      -2.5310500034    -2.6054474074    -0.5512041537
   26      H      -4.1038268903     2.7064255761     0.0172846342
   27      H      -4.0512655962     0.9252934036    -0.3002694377
   28      H       0.5507028087     2.7248145399    -0.5118997639
   29      C       2.7022699417    -1.2757919325    -1.0053269112
   30      H       3.6275731246    -0.9175070940    -1.4808737472
   31      H       2.9492109242    -2.1046978592    -0.3246354969
   32      H       2.0091175876    -1.6553902478    -1.7702804414
 ----------------------------------------------------------------
 Molecular Point Group                 C1    NOp =  1
 Largest Abelian Subgroup              C1    NOp =  1
 Nuclear Repulsion Energy =  1227.8953669312 hartrees
 There are       61 alpha and       61 beta electrons
 Applying Cartesian multipole field
    Component          Value
    ---------          -----
     (2,0,0)        1.00000E-11
     (0,2,0)        2.00000E-11
     (0,0,2)       -3.00000E-11
 Nucleus-field energy     =     0.0000000336 hartrees
 Requested basis set is STO-3G
 There are 48 shells and 96 basis functions
 A cutoff of  1.0D-12 yielded   1023 shell pairs
 There are      4512 function pairs
 Smallest overlap matrix eigenvalue = 2.14E-01
 Guess MOs from SCF MO coefficient file
 Reading MOs from coefficient file
 Reading MOs from coefficient file
 A restricted hybrid HF-DFT SCF calculation will be
 performed using Pulay DIIS extrapolation
 Exchange:     0.2000 Hartree-Fock + 0.0800 Slater + 0.7200 B88
 Correlation:  0.1900 VWN1RPA + 0.8100 LYP
 Using SG-1 standard quadrature grid
 Dispersion:   Grimme D3
 SCF converges when DIIS error is below 1.0E-08
 Geometry optimization detected.  Setting ReadMinima to 0
 Setting SaveMinima to 0
 -------------------------------------------------------
 OpenMP Integral computing Module                
 Release: version 1.0, May 2013, Q-Chem Inc. Pittsburgh 
 -------------------------------------------------------
 -------------------------------------------------------
 OpenMP BLAS3 based DFT computing Module                
 Release: version 1.0, May 2013, Q-Chem Inc. Pittsburgh 
 -------------------------------------------------------
 ---------------------------------------
  Cycle       Energy         DIIS Error
 ---------------------------------------
    1    -794.5881549811      1.38E-03
    2    -794.5889271372      1.13E-04
    3    -794.5888981079      2.07E-04
    4    -794.5889528051      3.98E-05
    5    -794.5889546099      1.60E-05
    6    -794.5889549375      5.56E-06
    7    -794.5889549716      2.46E-06
    8    -794.5889549794      5.68E-07
    9    -794.5889549798      6.94E-08
   10    -794.5889549798      2.91E-08
   11    -794.5889549798      9.35E-09 Convergence criterion met
 ---------------------------------------
 SCF time:  CPU 49.20 s  wall 2.07 s
 SCF   energy in the final basis set = -794.5889549798
 Total energy in the final basis set = -794.5889549798
 
 --------------------------------------------------------------
 
                    Orbital Energies (a.u.)
 --------------------------------------------------------------
 
 Alpha MOs
 -- Occupied --
-18.934 -18.921 -18.879 -18.874 -18.869 -10.097 -10.093 -10.064
-10.060 -10.058 -10.056 -10.035 -10.031 -10.018 -10.014 -10.006
 -1.011  -1.000  -0.965  -0.934  -0.927  -0.760  -0.725  -0.718
 -0.670  -0.653  -0.635  -0.591  -0.540  -0.526  -0.489  -0.470
 -0.451  -0.439  -0.429  -0.413  -0.412  -0.404  -0.401  -0.381
 -0.376  -0.366  -0.356  -0.349  -0.340  -0.336  -0.312  -0.307
 -0.306  -0.293  -0.289  -0.277  -0.267  -0.253  -0.247  -0.228
 -0.178  -0.167  -0.153  -0.143  -0.139
 -- Virtual --
  0.097   0.115   0.234   0.253   0.269   0.287   0.307   0.325
  0.339   0.343   0.356   0.374   0.384   0.389   0.402   0.418
  0.422   0.424   0.428   0.431   0.432   0.435   0.439   0.441
  0.448   0.462   0.473   0.478   0.492   0.501   0.511   0.545
  0.553   0.651   0.656
 --------------------------------------------------------------
 
          Ground-State Mulliken Net Atomic Charges

     Atom                 Charge (a.u.)
  ----------------------------------------
      1 C                    -0.077683
      2 C                    -0.081109
      3 C                     0.213907
      4 C                     0.214771
      5 O                    -0.169697
      6 O                    -0.212836
      7 O                    -0.177217
      8 O                    -0.211067
      9 C                    -0.129186
     10 C                    -0.128890
     11 C                     0.025129
     12 C                    -0.144762
     13 C                    -0.144670
     14 C                     0.105305
     15 O                    -0.193847
     16 H                     0.086895
     17 H                     0.081804
     18 H                     0.086210
     19 H                     0.089589
     20 H                     0.077403
     21 H                     0.073263
     22 H                     0.075236
     23 H                     0.070918
     24 H                     0.086332
     25 H                     0.092864
     26 H                     0.090079
     27 H                     0.088756
     28 H                     0.081468
     29 C                    -0.227874
     30 H                     0.078925
     31 H                     0.079668
     32 H                     0.100316
  ----------------------------------------
  Sum of atomic charges =    -0.000000

 -----------------------------------------------------------------
                    Cartesian Multipole Moments
 -----------------------------------------------------------------
    Charge (ESU x 10^10)
                -0.0000
    Dipole Moment (Debye)
         X      -0.5374      Y       0.9718      Z       2.0575
       Tot       2.3381
    Quadrupole Moments (Debye-Ang)
        XX     -77.5677     XY       0.1343     YY     -84.6165
        XZ       2.7949     YZ      -2.8791     ZZ     -89.7981
    Octopole Moments (Debye-Ang^2)
       XXX     -44.2030    XXY      -0.9809    XYY     -19.5504
       YYY      -5.9408    XXZ      -4.7848    XYZ       5.7685
       YYZ       0.9093    XZZ      -5.6244    YZZ      -1.2099
       ZZZ      -6.5230
    Hexadecapole Moments (Debye-Ang^3)
      XXXX   -2113.0506   XXXY     -68.8758   XXYY    -571.3100
      XYYY     -17.3750   YYYY   -1458.2156   XXXZ     -16.5162
      XXYZ     -21.3478   XYYZ       4.1459   YYYZ     -58.8382
      XXZZ    -445.0099   XYZZ     -20.8419   YYZZ    -315.6824
      XZZZ      -0.4579   YZZZ     -17.1780   ZZZZ    -374.0009
 -----------------------------------------------------------------
 Calculating analytic gradient of the SCF energy
 Gradient of SCF Energy
            1           2           3           4           5           6
    1  -0.0012382   0.0004431   0.0009766   0.0023734  -0.0000251  -0.0005977
    2   0.0006848   0.0009058  -0.0010412  -0.0030970   0.0013650  -0.0008568
    3   0.0024136  -0.0038320  -0.0010967   0.0033315   0.0017832  -0.0000826
            7           8           9          10          11          12
    1  -0.0020063  -0.0002001  -0.0007531  -0.0011186   0.0005373   0.0002764
    2   0.0029678  -0.0003620  -0.0008447   0.0001181   0.0002070   0.0008152
    3  -0.0005582  -0.0005137  -0.0004250  -0.0006845   0.0006366   0.0007466
           13          14          15          16          17          18
    1   0.0007070   0.0004455  -0.0001687   0.0003291  -0.0001214   0.0001034
    2   0.0001677   0.0005339  -0.0000839  -0.0006238   0.0003291  -0.0001568
    3   0.0005369   0.0002443  -0.0009949   0.0003448   0.0001920  -0.0000260
           19          20          21          22          23          24
    1   0.0000469   0.0000385  -0.0000586  -0.0001158  -0.0000244   0.0001117
    2  -0.0001194  -0.0001184   0.0002166  -0.0000102  -0.0000805   0.0001858
    3  -0.0001744  -0.0001930  -0.0000349  -0.0001429  -0.0000831   0.0000505
           25          26          27          28          29          30
    1   0.0000733   0.0001826  -0.0000099  -0.0004192   0.0004076   0.0003739
    2  -0.0000844   0.0000002  -0.0001830  -0.0002468  -0.0002778  -0.0002007
    3  -0.0001735   0.0001017  -0.0001025  -0.0003793  -0.0012598   0.0007715
           31          32
    1  -0.0007715   0.0002021
    2  -0.0004035   0.0002939
    3  -0.0001985  -0.0001978
 Max gradient component =       3.832E-03
 RMS gradient           =       9.441E-04
 Gradient time:  CPU 16.23 s  wall 0.68 s
 Geometry Optimization Parameters
   NAtoms,    NIC,     NZ,  NCons,   NDum,   NFix, NCnnct, MaxDiis
       32     251       0       2       0       0       0       0

 Cartesian Hessian Update
 Hessian Updated using BFGS Update


** CONSTRAINED OPTIMIZATION IN DELOCALIZED INTERNAL COORDINATES **
   Searching for a Minimum

   Optimization Cycle:   5

                       Coordinates (Angstroms)
     ATOM                X               Y               Z
[...]
 TransDip   0.135  0.218  0.163   -0.142  0.406  0.416   -0.128  0.039  0.039

 Mode:                76                     77                     78
 Frequency:      3048.71                3049.77                3055.10
 Force Cnst:      5.6373                 5.6424                 5.8741
 Red. Mass:       1.0294                 1.0296                 1.0682
 IR Active:          YES                    YES                    YES
 IR Intens:       33.905                 37.183                 12.862
 Raman Active:       YES                    YES                    YES
               X      Y      Z        X      Y      Z        X      Y      Z
 C          0.000 -0.000 -0.001   -0.000  0.000  0.001   -0.001  0.002  0.007
 C          0.001 -0.001  0.005   -0.000  0.000 -0.000   -0.013  0.012 -0.047
 C         -0.000  0.000  0.000    0.001 -0.002 -0.001    0.000 -0.000  0.000
 C          0.002 -0.000 -0.002    0.000 -0.000 -0.000    0.000 -0.000 -0.002
 O          0.000 -0.000  0.000   -0.002  0.001 -0.001   -0.000  0.000 -0.000
 O         -0.000 -0.000 -0.000    0.000  0.001  0.001   -0.000 -0.000 -0.000
 O         -0.002 -0.001  0.000   -0.000 -0.000  0.000   -0.000 -0.000  0.000
 O         -0.000  0.001  0.001   -0.000  0.000  0.000   -0.000  0.000  0.000
 C         -0.023 -0.032 -0.019   -0.003 -0.004 -0.002   -0.001 -0.002 -0.001
 C          0.004  0.000  0.003   -0.034 -0.002 -0.028    0.000  0.000  0.000
 C          0.000 -0.000  0.000   -0.000  0.000 -0.000   -0.001  0.002 -0.001
 C          0.000  0.000  0.000   -0.000 -0.000 -0.000   -0.008 -0.025 -0.019
 C         -0.002  0.001 -0.001   -0.000  0.000 -0.000    0.032 -0.017  0.023
 C          0.000  0.000 -0.000    0.000  0.000  0.000   -0.001 -0.000 -0.000
 O         -0.000 -0.000  0.000   -0.000  0.000  0.000    0.000  0.000  0.000
 H         -0.001  0.002  0.007    0.002 -0.003 -0.009    0.016 -0.028 -0.086
 H         -0.014  0.013 -0.054    0.002 -0.001  0.006    0.157 -0.136  0.574
 H         -0.250  0.579 -0.016   -0.030  0.069 -0.002   -0.014  0.033 -0.001
 H          0.016  0.016 -0.070   -0.135 -0.135  0.594    0.002  0.002 -0.008
 H         -0.002 -0.002  0.001    0.004  0.005 -0.002    0.190  0.224 -0.112
 H          0.001 -0.001 -0.004   -0.002  0.001  0.005   -0.103  0.069  0.331
 H          0.016  0.002 -0.008    0.005  0.000 -0.003   -0.331 -0.036  0.168
 H          0.002 -0.011  0.021    0.000 -0.002  0.004   -0.036  0.233 -0.433
 H          0.323 -0.048 -0.312    0.038 -0.006 -0.037    0.018 -0.003 -0.018
 H          0.217 -0.133  0.558    0.026 -0.016  0.067    0.013 -0.007  0.032
 H         -0.022  0.041  0.024    0.181 -0.346 -0.203   -0.002  0.004  0.002
 H         -0.045 -0.061  0.005    0.376  0.508 -0.039   -0.005 -0.006  0.000
 H         -0.001  0.002 -0.001    0.001 -0.002  0.001    0.009 -0.023  0.010
 C          0.001 -0.001 -0.000    0.001 -0.001 -0.000    0.003 -0.002 -0.001
 H         -0.017 -0.008  0.009   -0.009 -0.004  0.005   -0.034 -0.016  0.018
 H         -0.005  0.017 -0.013   -0.003  0.009 -0.007   -0.009  0.031 -0.024
 H          0.007  0.003  0.007    0.004  0.002  0.004    0.012  0.007  0.014
 TransDip  -0.118 -0.144  0.014   -0.180  0.046 -0.061    0.067 -0.087 -0.035

 Mode:                79                     80                     81
 Frequency:      3059.90                3067.34                3093.88
 Force Cnst:      5.9094                 5.8877                 6.2454
 Red. Mass:       1.0712                 1.0621                 1.1074
 IR Active:          YES                    YES                    YES
 IR Intens:       22.556                 37.863                  0.584
 Raman Active:       YES                    YES                    YES
               X      Y      Z        X      Y      Z        X      Y      Z
 C         -0.001  0.001  0.004   -0.001  0.002  0.007   -0.002  0.003  0.009
 C         -0.015  0.014 -0.055   -0.005  0.005 -0.022    0.002 -0.002  0.007
 C          0.000 -0.000  0.000    0.000  0.000  0.000   -0.000  0.000  0.000
 C          0.000 -0.000 -0.002    0.000  0.000 -0.000   -0.000  0.000  0.000
 O         -0.000  0.000 -0.000   -0.000  0.000 -0.000    0.000 -0.000 -0.000
 O         -0.000 -0.000 -0.000   -0.000 -0.000 -0.000    0.000 -0.000 -0.000
 O         -0.000 -0.000  0.000   -0.000 -0.000  0.000   -0.000 -0.000 -0.000
 O         -0.000  0.000  0.000   -0.000  0.000  0.000    0.000 -0.000 -0.000
 C         -0.001 -0.001 -0.001   -0.000 -0.000  0.000    0.000  0.000 -0.000
 C          0.000 -0.000  0.000    0.000  0.000  0.000    0.000 -0.000 -0.000
 C          0.001 -0.003  0.001   -0.001  0.004 -0.002    0.003 -0.006  0.002
 C          0.012  0.036  0.024   -0.008 -0.032 -0.024    0.038  0.024 -0.052
 C         -0.016  0.003 -0.002   -0.044  0.018 -0.020   -0.032 -0.021  0.049
 C         -0.001 -0.000 -0.000   -0.000  0.001  0.000   -0.001 -0.000  0.000
 O          0.000 -0.000  0.000    0.000 -0.000  0.000   -0.000  0.000  0.000
 H          0.009 -0.013 -0.043    0.014 -0.026 -0.078    0.018 -0.036 -0.105
 H          0.181 -0.157  0.665    0.072 -0.063  0.266   -0.021  0.020 -0.083
 H         -0.009  0.021 -0.001   -0.000  0.001 -0.000    0.001 -0.001  0.000
 H          0.001  0.001 -0.002    0.002  0.002 -0.008   -0.000 -0.000  0.000
 H         -0.271 -0.321  0.160    0.229  0.272 -0.137   -0.324 -0.393  0.175
 H          0.140 -0.094 -0.446   -0.130  0.088  0.412   -0.131  0.107  0.448
 H          0.178  0.017 -0.085    0.469  0.049 -0.233    0.425  0.037 -0.196
 H          0.007 -0.055  0.107    0.037 -0.251  0.464   -0.046  0.209 -0.388
 H          0.011 -0.002 -0.011    0.000 -0.000 -0.000   -0.001  0.000  0.001
 H          0.008 -0.004  0.020   -0.000  0.000 -0.001   -0.000 -0.000 -0.000
 H         -0.001  0.001  0.001   -0.002  0.004  0.002   -0.000  0.000  0.000
 H         -0.001 -0.002  0.000   -0.004 -0.006  0.000   -0.000 -0.000  0.000
 H         -0.011  0.031 -0.012    0.020 -0.053  0.024   -0.029  0.069 -0.033
 C         -0.004  0.003  0.001   -0.004  0.003  0.001    0.005  0.011 -0.009
 H          0.050  0.022 -0.027    0.049  0.022 -0.026   -0.091 -0.040  0.045
 H          0.014 -0.043  0.033    0.014 -0.043  0.033    0.035 -0.097  0.075
 H         -0.020 -0.010 -0.022   -0.020 -0.012 -0.023   -0.004 -0.000 -0.010
 TransDip  -0.026  0.149  0.012   -0.157 -0.008 -0.118    0.023  0.008  0.000

 Mode:                82                     83                     84
 Frequency:      3102.58                3110.24                3116.52
 Force Cnst:      6.2498                 6.2480                 6.2723
 Red. Mass:       1.1020                 1.0962                 1.0961
 IR Active:          YES                    YES                    YES
 IR Intens:       12.630                 17.529                 37.513
 Raman Active:       YES                    YES                    YES
               X      Y      Z        X      Y      Z        X      Y      Z
 C         -0.001  0.002  0.007    0.010 -0.019 -0.055    0.010 -0.018 -0.054
 C          0.001 -0.000  0.000   -0.001  0.001 -0.002   -0.003  0.003 -0.009
 C         -0.000  0.000  0.000    0.001 -0.001 -0.001    0.001 -0.001 -0.001
 C          0.000 -0.000 -0.000    0.000  0.000 -0.000    0.000  0.000 -0.000
 O         -0.000 -0.000 -0.000   -0.000  0.000  0.000   -0.000  0.000  0.000
 O          0.000 -0.000 -0.000    0.000  0.000  0.000    0.000  0.000  0.000
 O         -0.000 -0.000  0.000   -0.000 -0.000  0.000   -0.000 -0.000  0.000
 O         -0.000  0.000  0.000   -0.000 -0.000 -0.000   -0.000  0.000  0.000
 C         -0.000  0.000  0.000   -0.000  0.000  0.000    0.000 -0.000  0.000
 C          0.000  0.000 -0.000   -0.000  0.000  0.000   -0.001 -0.001  0.001
 C          0.001 -0.002  0.001   -0.004  0.008 -0.004    0.001 -0.002 -0.001
 C          0.013  0.008 -0.018   -0.019 -0.013  0.024    0.026  0.014 -0.039
 C          0.003  0.002 -0.004   -0.029 -0.018  0.043    0.023  0.015 -0.036
 C         -0.001 -0.001  0.001   -0.001 -0.001  0.001    0.000  0.001 -0.001
 O         -0.000  0.000 -0.000   -0.000  0.000 -0.000   -0.000  0.000  0.001
 H          0.016 -0.029 -0.087   -0.119  0.217  0.648   -0.120  0.215  0.643
 H         -0.002  0.002 -0.010    0.010 -0.008  0.028    0.030 -0.030  0.112
 H          0.001 -0.003 -0.000    0.001 -0.002  0.000   -0.002  0.004  0.000
 H         -0.000 -0.000  0.001   -0.000 -0.001  0.003    0.002  0.001 -0.005
 H         -0.110 -0.134  0.060    0.169  0.208 -0.092   -0.212 -0.259  0.116
 H         -0.044  0.036  0.150    0.058 -0.049 -0.195   -0.106  0.087  0.358
 H         -0.032 -0.002  0.017    0.394  0.034 -0.181   -0.310 -0.026  0.143
 H          0.003 -0.015  0.025   -0.040  0.181 -0.333    0.034 -0.155  0.283
 H          0.001 -0.000 -0.001    0.001 -0.000 -0.001    0.001 -0.000 -0.001
 H          0.000 -0.000  0.000   -0.000  0.000 -0.000   -0.001  0.001 -0.003
 H         -0.000  0.000  0.000    0.001 -0.003 -0.002    0.001 -0.003 -0.002
 H         -0.001 -0.002  0.000    0.002  0.003 -0.000    0.008  0.011 -0.001
 H         -0.013  0.030 -0.015    0.044 -0.102  0.049   -0.003  0.010 -0.005
 C         -0.028 -0.063  0.056   -0.005 -0.012  0.012    0.003  0.005 -0.006
 H          0.542  0.235 -0.274    0.111  0.047 -0.057   -0.053 -0.022  0.027
 H         -0.194  0.537 -0.412   -0.037  0.102 -0.078    0.018 -0.048  0.036
 H         -0.008 -0.016  0.012   -0.008 -0.007 -0.006    0.004  0.003  0.003
 TransDip  -0.047 -0.073  0.073   -0.090 -0.082  0.056    0.102  0.022 -0.166

 Mode:                85                     86                     87
 Frequency:      3122.41                3123.65                3128.25
 Force Cnst:      6.3591                 6.3655                 6.2852
 Red. Mass:       1.1070                 1.1073                 1.0901
 IR Active:          YES                    YES                    YES
 IR Intens:       19.134                 15.296                 23.728
 Raman Active:       YES                    YES                    YES
               X      Y      Z        X      Y      Z        X      Y      Z
 C          0.000 -0.000 -0.001   -0.000  0.000  0.000    0.001 -0.002 -0.007
 C         -0.000  0.000 -0.000    0.000 -0.000  0.000   -0.000  0.001 -0.002
 C         -0.000 -0.000  0.000    0.000  0.000  0.000    0.000 -0.001  0.000
 C          0.000  0.000 -0.000   -0.000 -0.000 -0.000    0.000  0.000  0.000
 O         -0.000 -0.000  0.000   -0.000 -0.000  0.000   -0.000  0.000 -0.000
 O         -0.000 -0.000  0.000   -0.000 -0.000 -0.000   -0.000  0.000 -0.000
 O         -0.000 -0.000  0.000   -0.000  0.000 -0.000   -0.000 -0.000  0.000
 O         -0.000 -0.000  0.000   -0.000  0.000 -0.000   -0.000 -0.000 -0.000
 C         -0.003  0.004 -0.003    0.045 -0.066  0.051    0.000 -0.000  0.000
 C          0.046  0.059 -0.058    0.003  0.004 -0.004   -0.001 -0.001  0.001
 C          0.001 -0.001  0.001   -0.000  0.000 -0.000    0.030 -0.071  0.035
 C          0.000 -0.000 -0.000   -0.000 -0.000  0.000   -0.008 -0.008  0.005
 C          0.000  0.000 -0.000   -0.000 -0.000  0.000   -0.003  0.000  0.001
 C         -0.000  0.000 -0.000    0.000 -0.000  0.000   -0.001  0.001 -0.000
 O          0.000 -0.000  0.000   -0.000  0.000 -0.000    0.000 -0.000 -0.000
 H         -0.002  0.004  0.011    0.000 -0.001 -0.003   -0.016  0.024  0.078
 H          0.001 -0.001  0.003   -0.000  0.001 -0.001    0.005 -0.004  0.017
 H          0.018 -0.042  0.000   -0.282  0.647 -0.003   -0.000  0.001  0.000
 H         -0.147 -0.134  0.674   -0.009 -0.009  0.043    0.002  0.002 -0.011
 H         -0.001 -0.001  0.001    0.000  0.001 -0.000    0.085  0.100 -0.043
 H         -0.001  0.001  0.004    0.000 -0.000 -0.001    0.007 -0.006 -0.018
 H         -0.003 -0.000  0.001    0.002  0.000 -0.001    0.033  0.003 -0.015
 H          0.001 -0.002  0.004   -0.000  0.001 -0.003   -0.000  0.001 -0.000
 H          0.003  0.000 -0.004   -0.022 -0.008  0.039    0.001 -0.000 -0.001
 H          0.014 -0.008  0.039   -0.235  0.138 -0.642   -0.001  0.001 -0.003
 H          0.016 -0.001 -0.019    0.000  0.001 -0.000    0.000 -0.002 -0.001
 H         -0.411 -0.568  0.027   -0.025 -0.035  0.002    0.009  0.012 -0.001
 H         -0.007  0.015 -0.008    0.001 -0.001  0.001   -0.342  0.824 -0.409
 C          0.000  0.000 -0.000   -0.000 -0.000  0.000   -0.000 -0.000  0.000
 H         -0.002 -0.001  0.001    0.002  0.001 -0.001    0.003  0.001 -0.002
 H          0.001 -0.002  0.001   -0.001  0.002 -0.002   -0.000  0.001 -0.001
 H          0.000  0.000 -0.000   -0.000 -0.000  0.000   -0.002 -0.001 -0.002
 TransDip   0.064  0.090 -0.086    0.056 -0.095  0.060    0.033 -0.148  0.037

 Mode:                88                     89                     90
 Frequency:      3152.60                3157.12                3164.38
 Force Cnst:      6.4789                 6.4971                 6.4729
 Red. Mass:       1.1064                 1.1063                 1.0972
 IR Active:          YES                    YES                    YES
 IR Intens:       14.466                 14.498                  2.831
 Raman Active:       YES                    YES                    YES
               X      Y      Z        X      Y      Z        X      Y      Z
 C         -0.000  0.000  0.000    0.000  0.000 -0.000    0.000 -0.000 -0.000
 C          0.000 -0.000 -0.000   -0.000  0.000 -0.000    0.000 -0.000 -0.000
 C         -0.000  0.000  0.000   -0.001 -0.000 -0.001   -0.000 -0.000 -0.000
 C          0.000  0.001  0.001   -0.000  0.000 -0.000    0.000 -0.000 -0.000
 O          0.000 -0.000 -0.000   -0.000  0.000  0.000   -0.000  0.000 -0.000
 O          0.000 -0.000 -0.000    0.000  0.000  0.000    0.000  0.000  0.000
 O          0.000 -0.000 -0.000    0.000 -0.000  0.000   -0.000  0.000  0.000
 O         -0.000 -0.000 -0.000    0.000 -0.000  0.000   -0.001 -0.000  0.000
 C         -0.052  0.023  0.076    0.000  0.000 -0.000    0.000 -0.000 -0.000
 C         -0.000 -0.000 -0.000    0.022 -0.072 -0.057    0.000 -0.000 -0.000
 C         -0.000  0.000 -0.000    0.000 -0.000  0.000    0.000 -0.000  0.000
 C          0.000  0.000  0.000   -0.000 -0.000 -0.000   -0.000  0.000 -0.000
 C          0.000 -0.000  0.000   -0.000  0.000 -0.000   -0.001  0.000  0.001
 C          0.000  0.000  0.000   -0.000  0.000  0.000   -0.001  0.000 -0.001
 O          0.000 -0.000 -0.000    0.000  0.000  0.000    0.000 -0.000  0.000
 H          0.000 -0.001 -0.002    0.000  0.000  0.002   -0.000  0.000  0.001
 H         -0.000 -0.000 -0.001    0.000 -0.000  0.000    0.000 -0.001  0.003
 H          0.108 -0.264  0.023    0.000 -0.001 -0.000   -0.001  0.001 -0.000
 H          0.000  0.000 -0.001   -0.068 -0.082  0.296   -0.000 -0.000  0.000
 H         -0.000 -0.000  0.000    0.000  0.000 -0.000    0.001  0.000 -0.000
 H          0.000 -0.000 -0.001   -0.000  0.000  0.001    0.000  0.000  0.001
 H         -0.000 -0.000  0.000    0.000  0.000 -0.000    0.011  0.002 -0.004
 H          0.000  0.000 -0.000    0.000 -0.000  0.000   -0.001  0.002 -0.005
 H          0.634 -0.093 -0.617   -0.002  0.000  0.002   -0.003  0.000  0.003
 H         -0.132  0.082 -0.306    0.001 -0.000  0.002    0.001 -0.000  0.001
 H         -0.001  0.002  0.001   -0.368  0.705  0.415   -0.001  0.001  0.001
 H          0.002  0.003 -0.000    0.182  0.231 -0.031    0.000  0.000 -0.000
 H          0.001 -0.002  0.001   -0.000  0.001 -0.000   -0.001  0.001 -0.001
 C         -0.000  0.000 -0.000    0.000  0.000  0.000   -0.067 -0.021 -0.057
 H         -0.000 -0.000  0.000   -0.000 -0.000  0.000    0.180  0.085 -0.106
 H          0.001 -0.002  0.001   -0.000  0.000 -0.000    0.043 -0.165  0.115
 H          0.003  0.002  0.003   -0.001 -0.001 -0.001    0.590  0.333  0.663
 TransDip  -0.083  0.016  0.088    0.047 -0.095 -0.059   -0.034 -0.007 -0.041

 STANDARD THERMODYNAMIC QUANTITIES AT   298.15 K  AND     1.00 ATM

   This Molecule has  0 Imaginary Frequencies
   Zero point vibrational energy:      166.288 kcal/mol

   Atom    1 Element C  Has Mass   12.00000
   Atom    2 Element C  Has Mass   12.00000
   Atom    3 Element C  Has Mass   12.00000
   Atom    4 Element C  Has Mass   12.00000
   Atom    5 Element O  Has Mass   15.99491
   Atom    6 Element O  Has Mass   15.99491
   Atom    7 Element O  Has Mass   15.99491
   Atom    8 Element O  Has Mass   15.99491
   Atom    9 Element C  Has Mass   12.00000
   Atom   10 Element C  Has Mass   12.00000
   Atom   11 Element C  Has Mass   12.00000
   Atom   12 Element C  Has Mass   12.00000
   Atom   13 Element C  Has Mass   12.00000
   Atom   14 Element C  Has Mass   12.00000
   Atom   15 Element O  Has Mass   15.99491
   Atom   16 Element H  Has Mass    1.00783
   Atom   17 Element H  Has Mass    1.00783
   Atom   18 Element H  Has Mass    1.00783
   Atom   19 Element H  Has Mass    1.00783
   Atom   20 Element H  Has Mass    1.00783
   Atom   21 Element H  Has Mass    1.00783
   Atom   22 Element H  Has Mass    1.00783
   Atom   23 Element H  Has Mass    1.00783
   Atom   24 Element H  Has Mass    1.00783
   Atom   25 Element H  Has Mass    1.00783
   Atom   26 Element H  Has Mass    1.00783
   Atom   27 Element H  Has Mass    1.00783
   Atom   28 Element H  Has Mass    1.00783
   Atom   29 Element C  Has Mass   12.00000
   Atom   30 Element H  Has Mass    1.00783
   Atom   31 Element H  Has Mass    1.00783
   Atom   32 Element H  Has Mass    1.00783
   Molecular Mass:   228.099830 amu
   Principal axes and moments of inertia in amu*Bohr^2:
                             1           2           3
    Eigenvalues --     2653.30798  3419.54979  5127.45596
          X               0.99998    -0.00311     0.00562
          Y               0.00310     0.99999     0.00239
          Z              -0.00562    -0.00237     0.99998
   Rotational Symmetry Number is   1
   The Molecule is an Asymmetric Top
   Translational Enthalpy:        0.889 kcal/mol
   Rotational Enthalpy:           0.889 kcal/mol
   Vibrational Enthalpy:        174.464 kcal/mol
   gas constant (RT):             0.592 kcal/mol
   Translational Entropy:        42.176  cal/mol.K
   Rotational Entropy:           32.209  cal/mol.K
   Vibrational Entropy:          53.897  cal/mol.K

   Total Enthalpy:              176.834 kcal/mol
   Total Entropy:               128.281  cal/mol.K
Archival summary:
1\1\nid00667\FREQ\ProcedureUnspecified\BasisUnspecified\51116\junteng\WedOct421:03:512017WedOct421:03:512017\0\\#,FREQ,ProcedureUnspecified,BasisUnspecified,\\0,1\O\C,1,1.42415\H,2,1.08824,1,110.146\C,1,1.44662,2,98.2309,3,179.894,0\C,4,1.51232,1,110.454,2,-177.365,0\H,5,1.08669,4,111.245,1,-57.904,0\H,5,1.09266,4,108.999,1,63.1053,0\H,5,1.093,4,110.395,1,-177.831,0\C,2,1.5439,1,103.659,3,-124.356,0\H,9,1.09098,2,110.239,1,85.3611,0\H,9,1.09181,2,112.482,1,-153.939,0\C,9,1.55427,2,100.77,1,-32.4954,0\H,12,1.09105,9,111.204,2,114.931,0\H,12,1.09178,9,113.541,2,-122.995,0\C,2,1.56024,1,102.274,3,121.965,0\H,15,1.08896,2,111.412,1,157.475,0\C,15,1.51326,2,108.681,1,-83.5024,0\O,17,1.20495,15,126.687,2,87.9875,0\O,17,1.35324,15,109.954,2,-89.0641,0\C,19,1.44027,17,115.803,15,176.647,0\H,20,1.08777,19,105.47,17,179.805,0\H,20,1.09103,19,110.505,17,-60.5233,0\H,20,1.09104,19,110.372,17,60.3081,0\C,15,1.56442,2,100.315,1,38.1865,0\H,24,1.09362,15,108.007,2,110.34,0\C,24,1.52149,15,114.418,2,-134.317,0\O,26,1.20196,24,128.085,15,126.152,0\O,26,1.3564,24,108.548,15,-57.9759,0\C,28,1.43894,26,115.704,24,175.178,0\H,29,1.08806,28,105.478,26,-178.776,0\H,29,1.091,28,109.788,26,-59.4355,0\H,29,1.09103,28,110.692,26,61.585,0\\\@

 Total job time:  10350.12s(wall), 60407.42s(cpu) 
 Wed Oct  4 21:03:51 2017

        *************************************************************
        *                                                           *
        *  Thank you very much for using Q-Chem.  Have a nice day.  *
        *                                                           *
        *************************************************************


