                  Welcome to Q-Chem
     A Quantum Leap Into The Future Of Chemistry


 Q-Chem 4.4, Q-Chem, Inc., Pleasanton, CA (2016)

 Y. Shao,  Z. Gan,  E. Epifanovsky,  A. T. B. Gilbert,  M. Wormit,  
 J. Kussmann,  A. W. Lange,  A. Behn,  J. Deng,  X. Feng,  D. Ghosh,  
 M. Goldey,  P. R. Horn,  L. D. Jacobson,  I. Kaliman,  R. Z. Khaliullin,  
 T. Kus,  A. Landau,  J. Liu,  E. I. Proynov,  Y. M. Rhee,  R. M. Richard,  
 M. A. Rohrdanz,  R. P. Steele,  E. J. Sundstrom,  H. L. Woodcock III,  
 P. M. Zimmerman,  D. Zuev,  B. Albrecht,  E. Alguire,  B. Austin,  
 S. A. Baeppler,  G. J. O. Beran,  Y. A. Bernard,  E. Berquist,  
 K. Brandhorst,  K. B. Bravaya,  S. T. Brown,  D. Casanova,  C.-M. Chang,  
 Y. Chen,  S. H. Chien,  K. D. Closser,  M. P. Coons,  D. L. Crittenden,  
 S. Dasgupta,  M. Diedenhofen,  R. A. DiStasio Jr.,  H. Do,  A. D. Dutoi,  
 R. G. Edgar,  P.-T. Fang,  S. Fatehi,  Q. Feng,  L. Fusti-Molnar,  
 A. Ghysels,  A. Golubeva-Zadorozhnaya,  J. Gomes,  A. Gunina,  
 M. W. D. Hanson-Heine,  P. H. P. Harbach,  A. W. Hauser,  E. G. Hohenstein,  
 Z. C. Holden,  K. Hui,  T.-C. Jagau,  H. Ji,  B. Kaduk,  K. Khistyaev,  
 Jaehoon Kim,  Jihan Kim,  R. A. King,  P. Klunzinger,  D. Kosenkov,  
 T. Kowalczyk,  C. M. Krauter,  A. Kunitsa,  K. U. Lao,  A. Laurent,  
 K. V. Lawler,  D. Lefrancois,  S. Lehtola,  S. V. Levchenko,  C. Y. Lin,  
 Y.-S. Lin,  F. Liu,  E. Livshits,  R. C. Lochan,  A. Luenser,  P. Manohar,  
 S. F. Manzer,  S.-P. Mao,  Y. Mao,  N. Mardirossian,  A. V. Marenich,  
 L. A. Martinez-Martinez,  S. A. Maurer,  N. J. Mayhall,  J.-M. Mewes,  
 A. F. Morrison,  K. Nanda,  C. M. Oana,  R. Olivares-Amaya,  D. P. O'Neill,  
 J. A. Parkhill,  T. M. Perrine,  R. Peverati,  P. A. Pieniazek,  F. Plasser,  
 A. Prociuk,  D. R. Rehn,  E. Rosta,  N. J. Russ,  N. Sergueev,  
 S. M. Sharada,  S. Sharma,  D. W. Small,  A. Sodt,  T. Stauch,  T. Stein,  
 D. Stuck,  Y.-C. Su,  A. J. W. Thom,  T. Tsuchimochi,  L. Vogt,  O. Vydrov,  
 T. Wang,  M. A. Watson,  J. Wenzel,  A. White,  C. F. Williams,  
 V. Vanovschi,  S. Yeganeh,  S. R. Yost,  Z.-Q. You,  I. Y. Zhang,  X. Zhang,  
 Y. Zhao,  B. R. Brooks,  G. K. L. Chan,  D. M. Chipman,  C. J. Cramer,  
 W. A. Goddard III,  M. S. Gordon,  W. J. Hehre,  A. Klamt,  
 H. F. Schaefer III,  M. W. Schmidt,  C. D. Sherrill,  D. G. Truhlar,  
 A. Warshel,  X. Xu,  A. Aspuru-Guzik,  R. Baer,  A. T. Bell,  N. A. Besley,  
 J.-D. Chai,  A. Dreuw,  B. D. Dunietz,  T. R. Furlani,  S. R. Gwaltney,  
 C.-P. Hsu,  Y. Jung,  J. Kong,  D. S. Lambrecht,  W. Liang,  C. Ochsenfeld,  
 V. A. Rassolov,  L. V. Slipchenko,  J. E. Subotnik,  T. Van Voorhis,  
 J. M. Herbert,  A. I. Krylov,  P. M. W. Gill,  M. Head-Gordon

 Contributors to earlier versions of Q-Chem not listed above: 
 R. D. Adamson,  J. Baker,  E. F. C. Byrd,  A. K. Chakraborty,  C.-L. Cheng,  
 H. Dachsel,  R. J. Doerksen,  G. Hawkins,  A. Heyden,  S. Hirata,  
 G. Kedziora,  F. J. Keil,  C. Kelley,  P. P. Korambath,  W. Kurlancheek,  
 A. M. Lee,  M. S. Lee,  D. Liotard,  I. Lotan,  P. E. Maslen,  N. Nair,  
 D. Neuhauser,  R. Olson,  B. Peters,  J. Ritchie,  N. E. Schultz,  
 N. Shenvi,  A. C. Simmonett,  K. S. Thanthiriwatte,  Q. Wu,  W. Zhang

 Please cite Q-Chem as follows:
 Y. Shao et al., Mol. Phys. 113, 184-215 (2015)
 DOI: 10.1080/00268976.2014.952696

 Q-Chem 4.3.0 for Intel X86 EM64T Linux

 Parts of Q-Chem use Armadillo 5.200.1 (Boston Tea Smuggler).
 http://arma.sourceforge.net/

 Q-Chem begins on Mon Oct  2 21:21:15 2017  

Host: nid03798
0

     Scratch files written to /global/cscratch1/sd/junteng/scratch/13/opt_1001.save//

Checking the input file for inconsistencies... 	...done.

--------------------------------------------------------------
User input:
--------------------------------------------------------------
$molecule
0  1
C    0.656  -1.997   0.550
C   -0.379  -2.055   1.685
C    1.075  -0.633   0.035
C   -0.743  -0.756   2.367
O    2.254  -0.766  -0.643
O    0.466   0.414   0.178
O    0.380  -0.211   2.923
O   -1.879  -0.339   2.537
C    0.159   1.039   3.578
C    2.798   0.433  -1.203
C   -0.074  -2.721  -0.584
C   -0.239  -4.209  -0.268
C   -1.341  -4.194   0.796
C   -1.585  -2.694   0.978
O   -1.425  -2.250  -0.391
H    1.566  -2.528   0.855
H   -0.041  -2.721   2.491
H   -0.505   1.690   2.999
H    2.061   1.233  -1.326
H    0.286  -2.514  -1.595
H   -0.592  -4.755  -1.150
H    0.687  -4.677   0.078
H   -2.237  -4.682   0.398
H   -1.053  -4.703   1.720
H   -2.574  -2.451   1.372
H   -0.249   0.863   4.578
H    1.124   1.543   3.677
H    3.204   0.190  -2.189
H    3.617   0.777  -0.565
$end


$opt
CONSTRAINT
tors    2    1    3    5    162.3
tors    1    2    4    7    -61.6
ENDCONSTRAINT
$end

$rem
JOBTYPE                   OPT
METHOD                    B3LYP
DFT_D                     EMPIRICAL_GRIMME3
BASIS                     6-31G*
GEOM_OPT_MAX_CYCLES       500
GEOM_OPT_TOL_GRADIENT     5
GEOM_OPT_TOL_DISPLACEMENT 5
GEOM_OPT_TOL_ENERGY       5
SYMMETRY                  False
THRESH                    12
SCF_CONVERGENCE           8
MAX_SUB_FILE_NUM          128
MEM_STATIC                400
MEM_TOTAL                 4000
$end

--------------------------------------------------------------
 ----------------------------------------------------------------
             Standard Nuclear Orientation (Angstroms)
    I     Atom           X                Y                Z
 ----------------------------------------------------------------
    1      C       0.3697342729    -0.6344652785    -0.5682185024
    2      C       0.5830892856     0.8866305416    -0.5085431759
    3      C      -0.8699014548    -1.2078766031     0.0919214188
    4      C      -0.5598235439     1.7339384151     0.0021824174
    5      O      -1.0906277378    -2.4603631032    -0.4080500553
    6      O      -1.5566019091    -0.6636803128     0.9403504869
    7      O      -1.6498149946     1.5482939899    -0.8007775971
    8      O      -0.4799332706     2.5718972711     0.8880308806
    9      C      -2.8044492191     2.2858543985    -0.3968092184
   10      C      -2.2289112229    -3.1547881210     0.1108156327
   11      C       1.5897974066    -1.1573410878     0.1940667708
   12      C       2.8778742489    -0.9023938644    -0.5914807846
   13      C       3.0736984138     0.6062805862    -0.4118163796
   14      C       1.8273869003     0.9943712392     0.3874040257
   15      O       1.7087539834    -0.1697627505     1.2404077097
   16      H       0.3688686773    -0.9646705244    -1.6141868320
   17      H       0.8207486346     1.2891342672    -1.5030002060
   18      H      -2.9457124994     2.2580152575     0.6891040690
   19      H      -2.5806906233    -2.7639184006     1.0709042303
   20      H       1.5042519872    -2.1684976679     0.6000401094
   21      H       3.7202931181    -1.4355074158    -0.1367617613
   22      H       2.8052766319    -1.2051355012    -1.6399525713
   23      H       3.9784423183     0.7875324718     0.1780566756
   24      H       3.1670514341     1.1432862684    -1.3598201301
   25      H       1.9410338999     1.9133998678     0.9660893801
   26      H      -2.7227111035     3.3187026777    -0.7489218606
   27      H      -3.6791460159     1.8248750106    -0.8631197561
   28      H      -1.9485029726    -4.2023825341     0.2522304790
   29      H      -3.0343825811    -3.1071758873    -0.6274864507
 ----------------------------------------------------------------
 Molecular Point Group                 C1    NOp =  1
 Largest Abelian Subgroup              C1    NOp =  1
 Nuclear Repulsion Energy =  1110.7749841230 hartrees
 There are       57 alpha and       57 beta electrons
 Requested basis set is 6-31G(d)
 There are 88 shells and 253 basis functions

 Total QAlloc Memory Limit   4000 MB
 Mega-Array Size       392 MB
 MEM_STATIC part       400 MB
 A cutoff of  1.0D-12 yielded   3171 shell pairs
 There are     28057 function pairs
 
 -------------------------------------------------------
 OpenMP Integral Computing Module                       
 Release: version 1.0, May 2013, Q-Chem Inc. Pittsburgh 
 -------------------------------------------------------
 Integral Job Info:
 Integral job number is                      11
 Integral operator is                         1
 short-range coefficients                     0
 long-range coefficients              100000000
 Omega coefficients                           0
 if combine SR and LR in K                    0
 Integral screening is                        0
 Integral computing path is                   2
 max size of driver memory is            800000
 size of driver memory is                593474
 size of scratch memory is              2260544
 max col of scratch BK array               1296
 max len of scratch array in speh3          155
 max len of scratch index in speh4           18
 max int batch size is                      520
 min int batch size is                       52
 fixed nKL is                                52
 max L of basis functions is                  2
 order of int derivative is                   0
 number of shells is                         88
 number of basis is                         253
 number of cartesian basis is               253
 number of contracted shell pairs          3171
 number of primitive shell pairs          11164
 maxK2 (contraction) of shell pair           36
 max number of K2 of shell pair               1
 max number of CS2 of shell pair            385
 max number of PS2 of shell pair           1752
 mem total for path MDJ                   82360
 -------------------------------------------------------
 Smallest overlap matrix eigenvalue = 8.88E-04

 Scale SEOQF with 1.000000e-01/1.000000e-01/1.000000e-01

 Standard Electronic Orientation quadrupole field applied
 Nucleus-field energy     =     0.0000000330 hartrees
 Guess from superposition of atomic densities
 Warning:  Energy on first SCF cycle will be non-variational
 A restricted hybrid HF-DFT SCF calculation will be
 performed using Pulay DIIS extrapolation
 Exchange:     0.2000 Hartree-Fock + 0.0800 Slater + 0.7200 B88
 Correlation:  0.1900 VWN1RPA + 0.8100 LYP
 Using SG-1 standard quadrature grid
 Dispersion:   Grimme D3
 SCF converges when DIIS error is below 1.0E-08
 using 24 threads for integral computing 
 -------------------------------------------------------
 OpenMP BLAS3 based DFT computing Module                
 Release: version 1.0, May 2013, Q-Chem Inc. Pittsburgh 
 -------------------------------------------------------
 ---------------------------------------
  Cycle       Energy         DIIS Error
 ---------------------------------------
    1    -768.6527688656      5.01E-02
    2    -765.3499142369      6.48E-03
    3    -764.7783077232      1.18E-02
    4    -765.5898818677      2.44E-03
    5    -765.6274989434      7.07E-04
    6    -765.6301855742      2.25E-04
    7    -765.6304934961      6.91E-05
    8    -765.6305222885      2.14E-05
    9    -765.6305248953      8.13E-06
   10    -765.6305252604      2.45E-06
   11    -765.6305252998      4.77E-07
   12    -765.6305253011      2.35E-07
   13    -765.6305253014      5.33E-08
   14    -765.6305253015      2.05E-08
   15    -765.6305253015      4.05E-09 Convergence criterion met
 ---------------------------------------
 SCF time:  CPU 245.20 s  wall 12.89 s
 SCF   energy in the final basis set = -765.6305253015
 Total energy in the final basis set = -765.6305253015
 
 --------------------------------------------------------------
 
                    Orbital Energies (a.u.)
 --------------------------------------------------------------
 
 Alpha MOs
 -- Occupied --
-19.199 -19.186 -19.144 -19.142 -19.132 -10.321 -10.312 -10.245
-10.242 -10.234 -10.231 -10.214 -10.210 -10.188 -10.185  -1.102
 -1.090  -1.047  -1.017  -1.005  -0.826  -0.779  -0.772  -0.729
 -0.714  -0.647  -0.598  -0.581  -0.573  -0.549  -0.534  -0.512
 -0.492  -0.480  -0.476  -0.475  -0.468  -0.460  -0.450  -0.419
 -0.412  -0.407  -0.401  -0.386  -0.374  -0.361  -0.358  -0.352
 -0.350  -0.346  -0.325  -0.322  -0.306  -0.291  -0.277  -0.267
 -0.258
 -- Virtual --
 -0.002   0.017   0.071   0.087   0.112   0.122   0.123   0.132
  0.141   0.145   0.148   0.152   0.157   0.159   0.162   0.167
  0.170   0.183   0.190   0.204   0.220   0.223   0.233   0.235
  0.276   0.292   0.292   0.312   0.326   0.373   0.387   0.398
  0.490   0.501   0.514   0.525   0.535   0.546   0.554   0.555
  0.562   0.579   0.589   0.604   0.615   0.621   0.631   0.638
  0.645   0.660   0.669   0.683   0.691   0.719   0.741   0.748
  0.773   0.790   0.798   0.814   0.826   0.837   0.845   0.851
  0.857   0.861   0.864   0.874   0.886   0.890   0.893   0.907
  0.918   0.932   0.934   0.954   0.958   0.973   0.981   0.988
  1.007   1.016   1.033   1.046   1.086   1.096   1.125   1.137
  1.192   1.198   1.224   1.251   1.272   1.312   1.322   1.340
  1.347   1.373   1.395   1.419   1.438   1.501   1.520   1.538
  1.541   1.553   1.597   1.607   1.630   1.633   1.686   1.689
  1.714   1.721   1.746   1.771   1.791   1.814   1.830   1.832
  1.863   1.874   1.888   1.893   1.912   1.929   1.942   1.951
  1.968   1.984   2.003   2.010   2.034   2.037   2.040   2.060
  2.066   2.087   2.112   2.118   2.137   2.142   2.172   2.214
  2.224   2.268   2.283   2.296   2.309   2.317   2.325   2.350
  2.384   2.386   2.427   2.442   2.469   2.490   2.545   2.553
  2.559   2.570   2.629   2.643   2.646   2.661   2.697   2.733
  2.756   2.763   2.808   2.837   2.872   2.924   2.942   2.972
  3.030   3.040   3.080   3.147   3.183   3.953   4.017   4.031
  4.155   4.209   4.235   4.260   4.280   4.386   4.469   4.537
  4.570   4.628   4.747   4.952
 --------------------------------------------------------------
 
          Ground-State Mulliken Net Atomic Charges

     Atom                 Charge (a.u.)
  ----------------------------------------
      1 C                    -0.175785
      2 C                    -0.202123
      3 C                     0.628359
      4 C                     0.660331
      5 O                    -0.460083
      6 O                    -0.469522
      7 O                    -0.464562
      8 O                    -0.483098
      9 C                    -0.217818
     10 C                    -0.233998
     11 C                     0.093372
     12 C                    -0.281163
     13 C                    -0.280239
     14 C                     0.103666
     15 O                    -0.476683
     16 H                     0.164406
     17 H                     0.170100
     18 H                     0.185334
     19 H                     0.191370
     20 H                     0.157042
     21 H                     0.153786
     22 H                     0.136963
     23 H                     0.153538
     24 H                     0.133756
     25 H                     0.170618
     26 H                     0.157672
     27 H                     0.157242
     28 H                     0.163611
     29 H                     0.163910
  ----------------------------------------
  Sum of atomic charges =     0.000000

 -----------------------------------------------------------------
                    Cartesian Multipole Moments
 -----------------------------------------------------------------
    Charge (ESU x 10^10)
                 0.0000
    Dipole Moment (Debye)
         X      -0.0819      Y      -2.2013      Z      -3.3882
       Tot       4.0413
    Quadrupole Moments (Debye-Ang)
        XX     -76.1427     XY       2.1445     YY     -81.6833
        XZ      -0.8217     YZ      -5.0367     ZZ     -91.8660
    Octopole Moments (Debye-Ang^2)
       XXX     -34.8828    XXY       2.5504    XYY     -25.5936
       YYY     -32.5172    XXZ      -3.1532    XYZ       3.6768
       YYZ      -1.2833    XZZ      -4.9072    YZZ      -1.6225
       ZZZ      -1.7801
    Hexadecapole Moments (Debye-Ang^3)
      XXXX   -1845.8803   XXXY     -12.1268   XXYY    -499.8088
      XYYY      43.8820   YYYY   -1544.8109   XXXZ      28.5301
      XXYZ       0.2845   XYYZ       9.9718   YYYZ     -56.6431
      XXZZ    -389.1065   XYZZ       6.0966   YYZZ    -326.9791
      XZZZ      -3.6888   YZZZ       3.2221   ZZZZ    -319.0680
 -----------------------------------------------------------------
 Calculating analytic gradient of the SCF energy
 Gradient of SCF Energy
            1           2           3           4           5           6
    1   0.0114512  -0.0045633   0.0120965   0.0050637  -0.0007201  -0.0107138
    2   0.0118801  -0.0136895  -0.0099206  -0.0157995  -0.0098423   0.0109962
    3   0.0176426  -0.0059600  -0.0043814  -0.0019420  -0.0093017   0.0109306
            7           8           9          10          11          12
    1  -0.0071250   0.0052257   0.0105635   0.0063708  -0.0145700  -0.0075539
    2  -0.0013665   0.0167449  -0.0026419   0.0100670  -0.0090862   0.0115254
    3  -0.0115686   0.0149315  -0.0001814  -0.0024609  -0.0107886   0.0095679
           13          14          15          16          17          18
    1  -0.0078286  -0.0111068   0.0075870   0.0003759   0.0037912  -0.0039620
    2  -0.0102309   0.0104675   0.0008660   0.0033575   0.0031493  -0.0014678
    3   0.0054175  -0.0057830  -0.0102411  -0.0030622   0.0004965   0.0016833
           19          20          21          22          23          24
    1  -0.0031031   0.0029013   0.0031373  -0.0002374   0.0019729  -0.0008413
    2  -0.0044748  -0.0031052   0.0032341   0.0018081  -0.0038458  -0.0016824
    3   0.0030463  -0.0019762   0.0014204   0.0008895   0.0003303   0.0009360
           25          26          27          28          29
    1   0.0068187  -0.0002234  -0.0033127  -0.0027092   0.0012150
    2   0.0038373  -0.0015381   0.0025737  -0.0003696  -0.0014461
    3  -0.0016156  -0.0032326   0.0031277   0.0023307  -0.0002554
 Max gradient component =       1.764E-02
 RMS gradient           =       7.198E-03
 Gradient time:  CPU 71.89 s  wall 6.88 s
 Geometry Optimization Parameters
   NAtoms,    NIC,     NZ,  NCons,   NDum,   NFix, NCnnct, MaxDiis
       29     227       0       2       0       0       0       0


** CONSTRAINED OPTIMIZATION IN DELOCALIZED INTERNAL COORDINATES **
   Searching for a Minimum

   Optimization Cycle:   1

                       Coordinates (Angstroms)
     ATOM                X               Y               Z
      1  C         0.3697342729   -0.6344652785   -0.5682185024
      2  C         0.5830892856    0.8866305416   -0.5085431759
      3  C        -0.8699014548   -1.2078766031    0.0919214188
      4  C        -0.5598235439    1.7339384151    0.0021824174
      5  O        -1.0906277378   -2.4603631032   -0.4080500553
      6  O        -1.5566019091   -0.6636803128    0.9403504869
      7  O        -1.6498149946    1.5482939899   -0.8007775971
      8  O        -0.4799332706    2.5718972711    0.8880308806
      9  C        -2.8044492191    2.2858543985   -0.3968092184
     10  C        -2.2289112229   -3.1547881210    0.1108156327
     11  C         1.5897974066   -1.1573410878    0.1940667708
     12  C         2.8778742489   -0.9023938644   -0.5914807846
     13  C         3.0736984138    0.6062805862   -0.4118163796
     14  C         1.8273869003    0.9943712392    0.3874040257
     15  O         1.7087539834   -0.1697627505    1.2404077097
     16  H         0.3688686773   -0.9646705244   -1.6141868320
     17  H         0.8207486346    1.2891342672   -1.5030002060
     18  H        -2.9457124994    2.2580152575    0.6891040690
     19  H        -2.5806906233   -2.7639184006    1.0709042303
     20  H         1.5042519872   -2.1684976679    0.6000401094
     21  H         3.7202931181   -1.4355074158   -0.1367617613
     22  H         2.8052766319   -1.2051355012   -1.6399525713
     23  H         3.9784423183    0.7875324718    0.1780566756
     24  H         3.1670514341    1.1432862684   -1.3598201301
     25  H         1.9410338999    1.9133998678    0.9660893801
     26  H        -2.7227111035    3.3187026777   -0.7489218606
     27  H        -3.6791460159    1.8248750106   -0.8631197561
     28  H        -1.9485029726   -4.2023825341    0.2522304790
     29  H        -3.0343825811   -3.1071758873   -0.6274864507
   Point Group: c1    Number of degrees of freedom:    81


   Energy is   -765.630525302

              Constraints and their Current Values
                                        Value     Constraint
   Dihedral:        2   1   3   5      161.585      162.300
   Dihedral:        1   2   4   7      -59.895      -61.600

 Attempting to Generate Delocalized Internal Coordinates

   Using Lagrange Multiplier Algorithm


 83 Hessian modes will be used to form the next step
  Hessian Eigenvalues:
    -0.977753   -0.977753    0.045000    0.045000    0.045000    0.045000
     0.045004    0.045352    0.045530    0.048627    0.058814    0.061923
     0.065581    0.067904    0.070808    0.072130    0.074343    0.075916
     0.081732    0.083785    0.084157    0.085390    0.086890    0.088227
     0.091114    0.091429    0.097232    0.098159    0.112260    0.112299
     0.113404    0.116979    0.117194    0.120275    0.121575    0.138015
     0.140421    0.160000    0.160000    0.160000    0.160000    0.160000
     0.160000    0.168655    0.174257    0.246664    0.248450    0.249983
     0.250000    0.250000    0.250000    0.250000    0.257040    0.266186
     0.268519    0.290485    0.293737    0.306576    0.311874    0.329392
     0.338114    0.340326    0.341575    0.341941    0.342237    0.342787
     0.342803    0.343231    0.343866    0.343905    0.343937    0.344082
     0.344477    0.344724    0.345856    0.408772    0.412181    0.516485
     0.516574    0.945024    0.955398    1.022753    1.022753

 Minimum Search - Taking P-RFO Step
 Searching for Lamda that Maximizes Along the Constraint modes Only
 Value Taken    Lamda =   0.00052891
 Searching for Lamda that Minimizes Along All other modes
 Value Taken    Lamda =  -0.01090642
 Step Taken.  Stepsize is  0.260225

                             Maximum     Tolerance    Cnvgd?
         Gradient            0.029764       0.000005      NO
         Displacement        0.072308       0.000005      NO
         Energy change     *********       0.000000      NO


 New Cartesian Coordinates Obtained by Inverse Iteration

 Displacement from previous Coordinates is:  0.556515
 ----------------------------------------------------------------
             Standard Nuclear Orientation (Angstroms)
    I     Atom           X                Y                Z
 ----------------------------------------------------------------
    1      C       0.3784425175    -0.6425102651    -0.5919591607
    2      C       0.5931765703     0.8931029228    -0.5090055976
    3      C      -0.8727462027    -1.1852696655     0.0726879171
    4      C      -0.5723491807     1.7240701345     0.0051860167
    5      O      -1.1247694984    -2.4318836110    -0.4054114011
    6      O      -1.5329749126    -0.6393069973     0.9264378127
    7      O      -1.6411694498     1.5830343083    -0.8184349169
    8      O      -0.5330745938     2.5128703966     0.9211818630
    9      C      -2.8314912107     2.2726906930    -0.4172530561
   10      C      -2.2529733089    -3.1280244750     0.1403213457
   11      C       1.6177273093    -1.1573858321     0.1899744302
   12      C       2.9129205157    -0.9156864064    -0.6187566948
   13      C       3.1038277210     0.6157972957    -0.4161401626
   14      C       1.8431196485     0.9669372453     0.4071202604
   15      O       1.7104379350    -0.1942788636     1.2567672619
   16      H       0.3777427414    -0.9881776729    -1.6298865347
   17      H       0.8278216724     1.3115816390    -1.4949932520
   18      H      -2.9967676157     2.1637543644     0.6567285685
   19      H      -2.5440788458    -2.7039576533     1.1030780742
   20      H       1.5118495789    -2.1608977947     0.6024250121
   21      H       3.7418628138    -1.4725415028    -0.1729498728
   22      H       2.8314412272    -1.2218156500    -1.6676505806
   23      H       3.9990223241     0.8156758628     0.1790317945
   24      H       3.1895263692     1.1792123423    -1.3523893936
   25      H       1.9148741813     1.8683870274     1.0110260758
   26      H      -2.7692982443     3.3346137782    -0.6766587299
   27      H      -3.6504653656     1.8039984226    -0.9685542025
   28      H      -1.9571295376    -4.1736633112     0.2641581449
   29      H      -3.0894130949    -3.0660735223    -0.5634220174
 ----------------------------------------------------------------
 Molecular Point Group                 C1    NOp =  1
 Largest Abelian Subgroup              C1    NOp =  1
 Nuclear Repulsion Energy =  1108.9705582411 hartrees
 There are       57 alpha and       57 beta electrons
 Applying Cartesian multipole field
    Component          Value
    ---------          -----
     (2,0,0)        1.00000E-11
     (0,2,0)        2.00000E-11
     (0,0,2)       -3.00000E-11
 Nucleus-field energy     =     0.0000000327 hartrees
 Requested basis set is 6-31G(d)
 There are 88 shells and 253 basis functions
 A cutoff of  1.0D-12 yielded   3168 shell pairs
 There are     27969 function pairs
 Smallest overlap matrix eigenvalue = 9.55E-04
 Guess MOs from SCF MO coefficient file
 Reading MOs from coefficient file
 Reading MOs from coefficient file
 A restricted hybrid HF-DFT SCF calculation will be
 performed using Pulay DIIS extrapolation
 Exchange:     0.2000 Hartree-Fock + 0.0800 Slater + 0.7200 B88
 Correlation:  0.1900 VWN1RPA + 0.8100 LYP
 Using SG-1 standard quadrature grid
 Dispersion:   Grimme D3
 SCF converges when DIIS error is below 1.0E-08
 Geometry optimization detected.  Setting ReadMinima to 0
 Setting SaveMinima to 0
 using 24 threads for integral computing 
 -------------------------------------------------------
 OpenMP BLAS3 based DFT computing Module                
 Release: version 1.0, May 2013, Q-Chem Inc. Pittsburgh 
 -------------------------------------------------------
 ---------------------------------------
  Cycle       Energy         DIIS Error
 ---------------------------------------
    1    -765.6294971202      1.57E-03
    2    -765.6357557634      2.75E-04
    3    -765.6350720275      4.52E-04
    4    -765.6362845145      5.74E-05
    5    -765.6362977722      3.53E-05
    6    -765.6363049882      8.23E-06
    7    -765.6363053860      2.54E-06
    8    -765.6363054311      6.08E-07
    9    -765.6363054332      2.02E-07
   10    -765.6363054334      6.46E-08
   11    -765.6363054334      1.59E-08
   12    -765.6363054334      5.40E-09 Convergence criterion met
 ---------------------------------------
 SCF time:  CPU 197.40 s  wall 9.34 s
 SCF   energy in the final basis set = -765.6363054334
 Total energy in the final basis set = -765.6363054334
 
 --------------------------------------------------------------
 
                    Orbital Energies (a.u.)
 --------------------------------------------------------------
 
 Alpha MOs
 -- Occupied --
-19.196 -19.182 -19.148 -19.140 -19.128 -10.318 -10.308 -10.247
-10.242 -10.236 -10.231 -10.214 -10.210 -10.193 -10.190  -1.104
 -1.091  -1.048  -1.018  -1.005  -0.822  -0.775  -0.767  -0.728
 -0.714  -0.645  -0.596  -0.585  -0.568  -0.548  -0.533  -0.509
 -0.492  -0.479  -0.476  -0.474  -0.467  -0.457  -0.448  -0.420
 -0.412  -0.408  -0.398  -0.385  -0.374  -0.359  -0.357  -0.355
 -0.350  -0.346  -0.327  -0.322  -0.305  -0.289  -0.277  -0.265
 -0.259
 -- Virtual --
  0.002   0.024   0.074   0.089   0.112   0.122   0.124   0.132
  0.141   0.145   0.149   0.152   0.157   0.160   0.164   0.168
  0.171   0.183   0.187   0.201   0.212   0.220   0.229   0.235
  0.276   0.293   0.300   0.308   0.321   0.373   0.387   0.395
  0.489   0.500   0.515   0.524   0.538   0.547   0.552   0.555
  0.561   0.578   0.581   0.602   0.609   0.622   0.625   0.639
  0.649   0.656   0.664   0.682   0.694   0.723   0.740   0.743
  0.770   0.788   0.800   0.815   0.827   0.837   0.844   0.851
  0.857   0.861   0.866   0.873   0.887   0.890   0.894   0.907
  0.920   0.934   0.935   0.951   0.957   0.968   0.986   0.991
  1.007   1.016   1.036   1.050   1.085   1.090   1.124   1.141
  1.192   1.197   1.229   1.249   1.264   1.320   1.324   1.339
  1.349   1.376   1.394   1.418   1.435   1.499   1.530   1.541
  1.543   1.555   1.594   1.622   1.627   1.636   1.688   1.692
  1.717   1.723   1.751   1.765   1.782   1.793   1.820   1.831
  1.857   1.866   1.883   1.889   1.908   1.928   1.940   1.948
  1.962   1.986   2.000   2.011   2.033   2.043   2.046   2.062
  2.068   2.091   2.105   2.118   2.136   2.143   2.162   2.204
  2.219   2.254   2.282   2.288   2.306   2.313   2.316   2.361
  2.378   2.392   2.425   2.447   2.471   2.479   2.531   2.542
  2.553   2.566   2.628   2.636   2.645   2.662   2.699   2.728
  2.755   2.760   2.797   2.832   2.871   2.917   2.959   2.986
  3.021   3.051   3.075   3.160   3.188   3.947   4.019   4.042
  4.151   4.211   4.240   4.248   4.283   4.381   4.487   4.536
  4.569   4.634   4.744   4.939
 --------------------------------------------------------------
 
          Ground-State Mulliken Net Atomic Charges

     Atom                 Charge (a.u.)
  ----------------------------------------
      1 C                    -0.180782
      2 C                    -0.198434
      3 C                     0.627437
      4 C                     0.651211
      5 O                    -0.462523
      6 O                    -0.466190
      7 O                    -0.466078
      8 O                    -0.478484
      9 C                    -0.215853
     10 C                    -0.232071
     11 C                     0.092203
     12 C                    -0.283933
     13 C                    -0.282901
     14 C                     0.100995
     15 O                    -0.467460
     16 H                     0.163314
     17 H                     0.167427
     18 H                     0.185794
     19 H                     0.191218
     20 H                     0.153324
     21 H                     0.155562
     22 H                     0.141107
     23 H                     0.155211
     24 H                     0.137766
     25 H                     0.167494
     26 H                     0.158766
     27 H                     0.157221
     28 H                     0.164650
     29 H                     0.164009
  ----------------------------------------
  Sum of atomic charges =    -0.000000

 -----------------------------------------------------------------
                    Cartesian Multipole Moments
 -----------------------------------------------------------------
    Charge (ESU x 10^10)
                -0.0000
    Dipole Moment (Debye)
         X      -0.0046      Y      -2.1978      Z      -3.4033
       Tot       4.0513
    Quadrupole Moments (Debye-Ang)
        XX     -75.6052     XY       2.2334     YY     -81.4875
        XZ      -0.8633     YZ      -4.9877     ZZ     -91.9482
    Octopole Moments (Debye-Ang^2)
       XXX     -35.4410    XXY       2.3655    XYY     -24.7655
       YYY     -30.3507    XXZ      -3.9556    XYZ       4.3092
       YYZ      -1.2019    XZZ      -4.5563    YZZ      -2.1376
       ZZZ      -1.4067
    Hexadecapole Moments (Debye-Ang^3)
      XXXX   -1873.4538   XXXY      -6.4807   XXYY    -500.8130
      XYYY      45.9361   YYYY   -1511.8880   XXXZ      29.5083
      XXYZ       0.4213   XYYZ       9.6016   YYYZ     -52.8273
      XXZZ    -394.2452   XYZZ       8.2887   YYZZ    -325.5082
      XZZZ      -2.6987   YZZZ       5.1528   ZZZZ    -325.9776
 -----------------------------------------------------------------
 Calculating analytic gradient of the SCF energy
 Gradient of SCF Energy
            1           2           3           4           5           6
    1   0.0042441  -0.0035216   0.0021598   0.0034322  -0.0026188  -0.0009536
    2   0.0041369  -0.0043039  -0.0003901  -0.0064716  -0.0023428  -0.0001924
    3   0.0087672  -0.0073576   0.0007601   0.0042476   0.0002150  -0.0007553
            7           8           9          10          11          12
    1  -0.0035238  -0.0011370   0.0033805   0.0016095  -0.0039221  -0.0003360
    2   0.0029436   0.0026186   0.0007143   0.0030581  -0.0017128   0.0003621
    3  -0.0006304  -0.0013748   0.0001758  -0.0022893  -0.0055566   0.0002684
           13          14          15          16          17          18
    1  -0.0004139  -0.0039564   0.0009691  -0.0006909   0.0017123  -0.0008275
    2  -0.0014780   0.0013829  -0.0000301   0.0015240   0.0031408  -0.0003940
    3   0.0002454  -0.0012533   0.0069910  -0.0012307   0.0011579  -0.0003395
           19          20          21          22          23          24
    1   0.0002914   0.0011310   0.0006233   0.0012163   0.0001802   0.0011938
    2  -0.0004811   0.0004086   0.0008504  -0.0008173  -0.0007996   0.0005659
    3   0.0002575  -0.0001707   0.0000961  -0.0006824  -0.0000231  -0.0005320
           25          26          27          28          29
    1   0.0023074  -0.0009267  -0.0011460  -0.0003736  -0.0001029
    2  -0.0002244  -0.0000870  -0.0003806  -0.0008282  -0.0007722
    3  -0.0012130  -0.0010863   0.0005187   0.0010535  -0.0002592
 Max gradient component =       8.767E-03
 RMS gradient           =       2.422E-03
 Gradient time:  CPU 71.86 s  wall 4.17 s
 Geometry Optimization Parameters
   NAtoms,    NIC,     NZ,  NCons,   NDum,   NFix, NCnnct, MaxDiis
       29     227       0       2       0       0       0       0

 Cartesian Hessian Update
 Hessian Updated using BFGS Update


** CONSTRAINED OPTIMIZATION IN DELOCALIZED INTERNAL COORDINATES **
   Searching for a Minimum

   Optimization Cycle:   2

                       Coordinates (Angstroms)
     ATOM                X               Y               Z
      1  C         0.3784425175   -0.6425102651   -0.5919591607
      2  C         0.5931765703    0.8931029228   -0.5090055976
      3  C        -0.8727462027   -1.1852696655    0.0726879171
      4  C        -0.5723491807    1.7240701345    0.0051860167
      5  O        -1.1247694984   -2.4318836110   -0.4054114011
      6  O        -1.5329749126   -0.6393069973    0.9264378127
      7  O        -1.6411694498    1.5830343083   -0.8184349169
      8  O        -0.5330745938    2.5128703966    0.9211818630
      9  C        -2.8314912107    2.2726906930   -0.4172530561
     10  C        -2.2529733089   -3.1280244750    0.1403213457
     11  C         1.6177273093   -1.1573858321    0.1899744302
     12  C         2.9129205157   -0.9156864064   -0.6187566948
     13  C         3.1038277210    0.6157972957   -0.4161401626
     14  C         1.8431196485    0.9669372453    0.4071202604
     15  O         1.7104379350   -0.1942788636    1.2567672619
     16  H         0.3777427414   -0.9881776729   -1.6298865347
     17  H         0.8278216724    1.3115816390   -1.4949932520
     18  H        -2.9967676157    2.1637543644    0.6567285685
     19  H        -2.5440788458   -2.7039576533    1.1030780742
     20  H         1.5118495789   -2.1608977947    0.6024250121
     21  H         3.7418628138   -1.4725415028   -0.1729498728
     22  H         2.8314412272   -1.2218156500   -1.6676505806
     23  H         3.9990223241    0.8156758628    0.1790317945
     24  H         3.1895263692    1.1792123423   -1.3523893936
     25  H         1.9148741813    1.8683870274    1.0110260758
     26  H        -2.7692982443    3.3346137782   -0.6766587299
     27  H        -3.6504653656    1.8039984226   -0.9685542025
     28  H        -1.9571295376   -4.1736633112    0.2641581449
     29  H        -3.0894130949   -3.0660735223   -0.5634220174
   Point Group: c1    Number of degrees of freedom:    81


   Energy is   -765.636305433

              Constraints and their Current Values
                                        Value     Constraint
   Dihedral:        2   1   3   5      162.294      162.300
   Dihedral:        1   2   4   7      -61.591      -61.600
 Hessian Updated using BFGS Update

   Using Lagrange Multiplier Algorithm


 75 Hessian modes will be used to form the next step
  Hessian Eigenvalues:
    -0.977815   -0.976928    0.041679    0.045000    0.045084    0.045189
     0.045522    0.048582    0.058265    0.061658    0.065140    0.066407
     0.070792    0.072205    0.074091    0.075834    0.081681    0.083143
     0.084007    0.085091    0.086354    0.088202    0.090500    0.091398
     0.095021    0.098162    0.111322    0.112366    0.113198    0.116991
     0.117270    0.121074    0.127071    0.137968    0.142371    0.156889
     0.162500    0.166322    0.175297    0.243522    0.248864    0.249141
     0.249985    0.253131    0.257488    0.267847    0.269170    0.290566
     0.301004    0.306619    0.313695    0.329353    0.338004    0.340158
     0.341553    0.341928    0.342228    0.342749    0.343230    0.343703
     0.343895    0.343900    0.344028    0.344416    0.344651    0.345620
     0.357257    0.408422    0.412078    0.510700    0.516562    0.945928
     0.959282    1.022723    1.024816

 Minimum Search - Taking P-RFO Step
 Searching for Lamda that Maximizes Along the Constraint modes Only
 Value Taken    Lamda =   0.00000594
 Searching for Lamda that Minimizes Along All other modes
 Value Taken    Lamda =  -0.00139733
 Step Taken.  Stepsize is  0.148977

                             Maximum     Tolerance    Cnvgd?
         Gradient            0.005181       0.000005      NO
         Displacement        0.061706       0.000005      NO
         Energy change     -0.005780       0.000000      NO


 New Cartesian Coordinates Obtained by Inverse Iteration

 Displacement from previous Coordinates is:  0.365661
 ----------------------------------------------------------------
             Standard Nuclear Orientation (Angstroms)
    I     Atom           X                Y                Z
 ----------------------------------------------------------------
    1      C       0.3808441245    -0.6430525982    -0.6073438081
    2      C       0.6052418306     0.8985521673    -0.5125197851
    3      C      -0.8747963665    -1.1648022322     0.0644346132
    4      C      -0.5653330549     1.7251427808    -0.0029507464
    5      O      -1.1481079870    -2.4036616343    -0.4139228482
    6      O      -1.5134291372    -0.6108618295     0.9279604048
    7      O      -1.6175942511     1.5858924503    -0.8409421052
    8      O      -0.5398956221     2.4816426255     0.9381354875
    9      C      -2.8289038735     2.2316301690    -0.4246977678
   10      C      -2.2675709786    -3.1018554328     0.1552845620
   11      C       1.6203532174    -1.1560834854     0.1889913034
   12      C       2.9152450503    -0.9136258763    -0.6202397565
   13      C       3.1092932085     0.6231843691    -0.4125800804
   14      C       1.8491054459     0.9673474280     0.4119777005
   15      O       1.7059173109    -0.1948150336     1.2496588866
   16      H       0.3832467105    -0.9990111575    -1.6401894017
   17      H       0.8373172394     1.3082855191    -1.5014821498
   18      H      -3.0003649925     2.0642791859     0.6406768341
   19      H      -2.5245015932    -2.6882388768     1.1318824963
   20      H       1.5014713053    -2.1577591008     0.6040982673
   21      H       3.7394190185    -1.4804131152    -0.1789726217
   22      H       2.8234631114    -1.2156279837    -1.6682167360
   23      H       4.0034222404     0.8291413258     0.1818695812
   24      H       3.1860882447     1.1906577819    -1.3457180154
   25      H       1.8993393280     1.8650246213     1.0249855454
   26      H      -2.7746277416     3.3076972142    -0.6187462688
   27      H      -3.6238589416     1.7788168304    -1.0200459544
   28      H      -1.9719978206    -4.1498200984     0.2423662812
   29      H      -3.1236929617    -3.0134128042    -0.5210949132
 ----------------------------------------------------------------
 Molecular Point Group                 C1    NOp =  1
 Largest Abelian Subgroup              C1    NOp =  1
 Nuclear Repulsion Energy =  1111.0734125321 hartrees
 There are       57 alpha and       57 beta electrons
 Applying Cartesian multipole field
    Component          Value
    ---------          -----
     (2,0,0)        1.00000E-11
     (0,2,0)        2.00000E-11
     (0,0,2)       -3.00000E-11
 Nucleus-field energy     =     0.0000000321 hartrees
 Requested basis set is 6-31G(d)
 There are 88 shells and 253 basis functions
 A cutoff of  1.0D-12 yielded   3174 shell pairs
 There are     28027 function pairs
 Smallest overlap matrix eigenvalue = 9.65E-04
 Guess MOs from SCF MO coefficient file
 Reading MOs from coefficient file
 Reading MOs from coefficient file
 A restricted hybrid HF-DFT SCF calculation will be
 performed using Pulay DIIS extrapolation
 Exchange:     0.2000 Hartree-Fock + 0.0800 Slater + 0.7200 B88
 Correlation:  0.1900 VWN1RPA + 0.8100 LYP
 Using SG-1 standard quadrature grid
 Dispersion:   Grimme D3
 SCF converges when DIIS error is below 1.0E-08
 Geometry optimization detected.  Setting ReadMinima to 0
 Setting SaveMinima to 0
 using 24 threads for integral computing 
 -------------------------------------------------------
 OpenMP BLAS3 based DFT computing Module                
 Release: version 1.0, May 2013, Q-Chem Inc. Pittsburgh 
 -------------------------------------------------------
 ---------------------------------------
  Cycle       Energy         DIIS Error
 ---------------------------------------
    1    -765.6391752541      8.75E-04
    2    -765.6371116942      8.75E-05
    3    -765.6371061131      1.10E-04
    4    -765.6371864999      2.86E-05
    5    -765.6371900392      1.52E-05
    6    -765.6371913815      3.82E-06
    7    -765.6371914505      1.81E-06
    8    -765.6371914705      2.15E-07
    9    -765.6371914707      1.48E-07
   10    -765.6371914708      4.90E-08
   11    -765.6371914707      1.31E-08
   12    -765.6371914708      3.23E-09 Convergence criterion met
 ---------------------------------------
 SCF time:  CPU 194.12 s  wall 9.17 s
 SCF   energy in the final basis set = -765.6371914708
 Total energy in the final basis set = -765.6371914708
 
 --------------------------------------------------------------
 
                    Orbital Energies (a.u.)
 --------------------------------------------------------------
 
 Alpha MOs
 -- Occupied --
-19.195 -19.182 -19.148 -19.139 -19.127 -10.317 -10.307 -10.247
-10.242 -10.235 -10.231 -10.213 -10.208 -10.193 -10.190  -1.104
 -1.092  -1.050  -1.018  -1.006  -0.820  -0.774  -0.767  -0.728
 -0.714  -0.644  -0.594  -0.586  -0.567  -0.548  -0.533  -0.508
 -0.492  -0.479  -0.476  -0.474  -0.466  -0.457  -0.447  -0.419
 -0.412  -0.408  -0.399  -0.385  -0.375  -0.360  -0.357  -0.355
 -0.349  -0.346  -0.326  -0.321  -0.305  -0.289  -0.277  -0.264
 -0.258
 -- Virtual --
  0.003   0.026   0.075   0.090   0.111   0.122   0.124   0.132
  0.141   0.147   0.151   0.153   0.158   0.161   0.164   0.168
  0.171   0.183   0.187   0.202   0.213   0.218   0.229   0.236
  0.277   0.295   0.301   0.307   0.321   0.376   0.388   0.395
  0.487   0.501   0.517   0.523   0.539   0.547   0.551   0.556
  0.560   0.578   0.580   0.603   0.606   0.622   0.625   0.640
  0.651   0.656   0.664   0.681   0.698   0.726   0.736   0.743
  0.768   0.790   0.800   0.814   0.827   0.837   0.843   0.851
  0.857   0.861   0.867   0.873   0.888   0.890   0.896   0.907
  0.923   0.935   0.936   0.951   0.958   0.967   0.988   0.992
  1.007   1.019   1.037   1.055   1.083   1.090   1.124   1.144
  1.193   1.201   1.232   1.251   1.266   1.322   1.327   1.339
  1.351   1.378   1.397   1.417   1.438   1.498   1.533   1.538
  1.542   1.554   1.591   1.624   1.627   1.636   1.689   1.693
  1.720   1.727   1.758   1.763   1.781   1.793   1.820   1.833
  1.856   1.867   1.885   1.893   1.910   1.933   1.944   1.952
  1.963   1.989   2.004   2.011   2.032   2.047   2.050   2.063
  2.066   2.095   2.104   2.120   2.139   2.148   2.162   2.203
  2.222   2.259   2.284   2.289   2.304   2.313   2.319   2.365
  2.380   2.393   2.424   2.448   2.472   2.480   2.532   2.543
  2.559   2.570   2.630   2.639   2.647   2.667   2.702   2.730
  2.758   2.761   2.795   2.831   2.869   2.916   2.966   2.986
  3.023   3.057   3.074   3.165   3.189   3.948   4.027   4.054
  4.154   4.214   4.245   4.254   4.287   4.383   4.496   4.537
  4.572   4.644   4.746   4.937
 --------------------------------------------------------------
 
          Ground-State Mulliken Net Atomic Charges

     Atom                 Charge (a.u.)
  ----------------------------------------
      1 C                    -0.182864
      2 C                    -0.198129
      3 C                     0.628254
      4 C                     0.650581
      5 O                    -0.463251
      6 O                    -0.467386
      7 O                    -0.465243
      8 O                    -0.478854
      9 C                    -0.217093
     10 C                    -0.231479
     11 C                     0.093225
     12 C                    -0.284648
     13 C                    -0.283223
     14 C                     0.102108
     15 O                    -0.464795
     16 H                     0.162470
     17 H                     0.164627
     18 H                     0.186868
     19 H                     0.190963
     20 H                     0.152425
     21 H                     0.155683
     22 H                     0.141361
     23 H                     0.154854
     24 H                     0.138647
     25 H                     0.167635
     26 H                     0.159759
     27 H                     0.157356
     28 H                     0.165661
     29 H                     0.164487
  ----------------------------------------
  Sum of atomic charges =    -0.000000

 -----------------------------------------------------------------
                    Cartesian Multipole Moments
 -----------------------------------------------------------------
    Charge (ESU x 10^10)
                 0.0000
    Dipole Moment (Debye)
         X      -0.0553      Y      -2.2357      Z      -3.3790
       Tot       4.0520
    Quadrupole Moments (Debye-Ang)
        XX     -75.4533     XY       2.3817     YY     -81.3204
        XZ      -0.8108     YZ      -4.9917     ZZ     -92.0511
    Octopole Moments (Debye-Ang^2)
       XXX     -36.7961    XXY       1.7135    XYY     -24.2255
       YYY     -30.5508    XXZ      -3.6683    XYZ       4.6349
       YYZ      -0.6923    XZZ      -4.5704    YZZ      -2.6613
       ZZZ      -0.7461
    Hexadecapole Moments (Debye-Ang^3)
      XXXX   -1875.6047   XXXY      -7.5556   XXYY    -498.4620
      XYYY      43.0143   YYYY   -1482.4225   XXXZ      30.4311
      XXYZ      -0.2166   XYYZ       8.8321   YYYZ     -50.3170
      XXZZ    -394.6635   XYZZ       7.4689   YYZZ    -322.4103
      XZZZ      -2.3749   YZZZ       5.4111   ZZZZ    -329.1856
 -----------------------------------------------------------------
 Calculating analytic gradient of the SCF energy
 Gradient of SCF Energy
            1           2           3           4           5           6
    1   0.0020654  -0.0021811  -0.0006801  -0.0007291  -0.0012179   0.0011601
    2  -0.0000761  -0.0014489   0.0005149  -0.0007114   0.0002001  -0.0003466
    3   0.0031821  -0.0038034   0.0020641   0.0035096   0.0001696  -0.0022948
            7           8           9          10          11          12
    1  -0.0004342   0.0003450   0.0007490   0.0003809  -0.0001527  -0.0001480
    2   0.0012653  -0.0007247  -0.0003752   0.0000865  -0.0016364  -0.0009845
    3   0.0000967  -0.0021085  -0.0000036  -0.0004313  -0.0027665  -0.0008602
           13          14          15          16          17          18
    1  -0.0002206  -0.0005157  -0.0000410  -0.0006434   0.0006335   0.0002860
    2   0.0006310   0.0003656   0.0007985   0.0004940   0.0018814   0.0004228
    3  -0.0011158   0.0010384   0.0028642  -0.0003096   0.0012530  -0.0001505
           19          20          21          22          23          24
    1   0.0000514  -0.0002071  -0.0001945   0.0004953  -0.0003745   0.0007578
    2   0.0002162   0.0003228   0.0000733  -0.0009227   0.0002276   0.0006455
    3  -0.0003058   0.0002590   0.0001697   0.0001190   0.0002407   0.0001455
           25          26          27          28          29
    1   0.0005485  -0.0000625  -0.0000023   0.0002301   0.0001018
    2   0.0001132  -0.0000448  -0.0006084  -0.0001595  -0.0002196
    3  -0.0005500  -0.0003689  -0.0000204   0.0002576  -0.0002798
 Max gradient component =       3.803E-03
 RMS gradient           =       1.099E-03
 Gradient time:  CPU 72.40 s  wall 4.14 s
 Geometry Optimization Parameters
   NAtoms,    NIC,     NZ,  NCons,   NDum,   NFix, NCnnct, MaxDiis
       29     227       0       2       0       0       0       0

 Cartesian Hessian Update
 Hessian Updated using BFGS Update


** CONSTRAINED OPTIMIZATION IN DELOCALIZED INTERNAL COORDINATES **
   Searching for a Minimum

   Optimization Cycle:   3

                       Coordinates (Angstroms)
     ATOM                X               Y               Z
      1  C         0.3808441245   -0.6430525982   -0.6073438081
      2  C         0.6052418306    0.8985521673   -0.5125197851
      3  C        -0.8747963665   -1.1648022322    0.0644346132
      4  C        -0.5653330549    1.7251427808   -0.0029507464
      5  O        -1.1481079870   -2.4036616343   -0.4139228482
      6  O        -1.5134291372   -0.6108618295    0.9279604048
      7  O        -1.6175942511    1.5858924503   -0.8409421052
      8  O        -0.5398956221    2.4816426255    0.9381354875
      9  C        -2.8289038735    2.2316301690   -0.4246977678
     10  C        -2.2675709786   -3.1018554328    0.1552845620
     11  C         1.6203532174   -1.1560834854    0.1889913034
     12  C         2.9152450503   -0.9136258763   -0.6202397565
     13  C         3.1092932085    0.6231843691   -0.4125800804
     14  C         1.8491054459    0.9673474280    0.4119777005
     15  O         1.7059173109   -0.1948150336    1.2496588866
     16  H         0.3832467105   -0.9990111575   -1.6401894017
     17  H         0.8373172394    1.3082855191   -1.5014821498
     18  H        -3.0003649925    2.0642791859    0.6406768341
     19  H        -2.5245015932   -2.6882388768    1.1318824963
     20  H         1.5014713053   -2.1577591008    0.6040982673
     21  H         3.7394190185   -1.4804131152   -0.1789726217
     22  H         2.8234631114   -1.2156279837   -1.6682167360
     23  H         4.0034222404    0.8291413258    0.1818695812
     24  H         3.1860882447    1.1906577819   -1.3457180154
     25  H         1.8993393280    1.8650246213    1.0249855454
     26  H        -2.7746277416    3.3076972142   -0.6187462688
     27  H        -3.6238589416    1.7788168304   -1.0200459544
     28  H        -1.9719978206   -4.1498200984    0.2423662812
     29  H        -3.1236929617   -3.0134128042   -0.5210949132
   Point Group: c1    Number of degrees of freedom:    81


   Energy is   -765.637191471

              Constraints and their Current Values
                                        Value     Constraint
   Dihedral:        2   1   3   5      162.300      162.300
   Dihedral:        1   2   4   7      -61.600      -61.600
 Hessian Updated using BFGS Update

   Using Lagrange Multiplier Algorithm


 76 Hessian modes will be used to form the next step
  Hessian Eigenvalues:
    -0.973701    0.025027    0.045000    0.045030    0.045092    0.045436
     0.045898    0.048549    0.056874    0.061724    0.063609    0.065919
     0.070763    0.072383    0.074039    0.076110    0.081557    0.082704
     0.083986    0.085113    0.086723    0.088250    0.091362    0.092533
     0.097140    0.098199    0.112214    0.112832    0.113574    0.116993
     0.117272    0.122301    0.127028    0.138830    0.141221    0.159579
     0.161280    0.162522    0.171635    0.174851    0.242629    0.248893
     0.249702    0.249993    0.251128    0.253353    0.266477    0.268720
     0.278891    0.290441    0.302353    0.307723    0.316408    0.330622
     0.338762    0.340120    0.341562    0.341905    0.342232    0.342706
     0.343236    0.343838    0.343900    0.344001    0.344341    0.344472
     0.345004    0.345487    0.350337    0.406371    0.413699    0.514822
     0.517786    0.948090    0.966134    1.032114

 Minimum Search - Taking P-RFO Step
 Searching for Lamda that Maximizes Along the Constraint modes Only
 Value Taken    Lamda =   0.00000270
 Searching for Lamda that Minimizes Along All other modes
 Value Taken    Lamda =  -0.00056738
 Step Taken.  Stepsize is  0.136745

                             Maximum     Tolerance    Cnvgd?
         Gradient            0.002477       0.000005      NO
         Displacement        0.074634       0.000005      NO
         Energy change     -0.000886       0.000000      NO


 New Cartesian Coordinates Obtained by Inverse Iteration

 Displacement from previous Coordinates is:  0.314121
 ----------------------------------------------------------------
             Standard Nuclear Orientation (Angstroms)
    I     Atom           X                Y                Z
 ----------------------------------------------------------------
    1      C       0.3784883106    -0.6408876048    -0.6213920348
    2      C       0.6128395550     0.9030667062    -0.5174118838
    3      C      -0.8764353397    -1.1601389590     0.0556940317
    4      C      -0.5611606902     1.7329432900    -0.0186437994
    5      O      -1.1619989350    -2.3930676931    -0.4269067649
    6      O      -1.5007406072    -0.6151346022     0.9367385082
    7      O      -1.6039689330     1.6043941312    -0.8680863198
    8      O      -0.5501863773     2.4686831565     0.9397276878
    9      C      -2.8281482667     2.2203223758    -0.4350028433
   10      C      -2.2667973388    -3.0937818866     0.1734438624
   11      C       1.6164458348    -1.1542197361     0.1862906310
   12      C       2.9140532780    -0.9096662356    -0.6181499366
   13      C       3.1129107740     0.6239444018    -0.4021070560
   14      C       1.8496692598     0.9650376945     0.4160765240
   15      O       1.6959220612    -0.1986667957     1.2445740103
   16      H       0.3875559722    -1.0003012707    -1.6521059132
   17      H       0.8457424293     1.2990733244    -1.5119766664
   18      H      -3.0129444113     1.9891603200     0.6164444551
   19      H      -2.4791493372    -2.6985098427     1.1683698275
   20      H       1.4915421636    -2.1574357098     0.5970123823
   21      H       3.7359307365    -1.4840193164    -0.1822218221
   22      H       2.8175666777    -1.1992059405    -1.6686830161
   23      H       4.0083779780     0.8270974941     0.1916562140
   24      H       3.1856058221     1.1919426265    -1.3342878146
   25      H       1.8867128109     1.8590335184     1.0361281899
   26      H      -2.7748061966     3.3065269114    -0.5603452113
   27      H      -3.6102448815     1.8024919181    -1.0699743558
   28      H      -1.9783496636    -4.1453270937     0.2214431848
   29      H      -3.1493406213    -2.9791019723    -0.4636450666
 ----------------------------------------------------------------
 Molecular Point Group                 C1    NOp =  1
 Largest Abelian Subgroup              C1    NOp =  1
 Nuclear Repulsion Energy =  1111.3816946174 hartrees
 There are       57 alpha and       57 beta electrons
 Applying Cartesian multipole field
    Component          Value
    ---------          -----
     (2,0,0)        1.00000E-11
     (0,2,0)        2.00000E-11
     (0,0,2)       -3.00000E-11
 Nucleus-field energy     =     0.0000000319 hartrees
 Requested basis set is 6-31G(d)
 There are 88 shells and 253 basis functions
 A cutoff of  1.0D-12 yielded   3174 shell pairs
 There are     28024 function pairs
 Smallest overlap matrix eigenvalue = 9.66E-04
 Guess MOs from SCF MO coefficient file
 Reading MOs from coefficient file
 Reading MOs from coefficient file
 A restricted hybrid HF-DFT SCF calculation will be
 performed using Pulay DIIS extrapolation
 Exchange:     0.2000 Hartree-Fock + 0.0800 Slater + 0.7200 B88
 Correlation:  0.1900 VWN1RPA + 0.8100 LYP
 Using SG-1 standard quadrature grid
 Dispersion:   Grimme D3
 SCF converges when DIIS error is below 1.0E-08
 Geometry optimization detected.  Setting ReadMinima to 0
 Setting SaveMinima to 0
 using 24 threads for integral computing 
 -------------------------------------------------------
 OpenMP BLAS3 based DFT computing Module                
 Release: version 1.0, May 2013, Q-Chem Inc. Pittsburgh 
 -------------------------------------------------------
 ---------------------------------------
  Cycle       Energy         DIIS Error
 ---------------------------------------
    1    -765.6322640344      7.34E-04
    2    -765.6374625561      7.49E-05
    3    -765.6374635535      9.46E-05
    4    -765.6375208515      2.89E-05
    5    -765.6375249645      1.18E-05
    6    -765.6375257652      3.79E-06
    7    -765.6375258448      1.33E-06
    8    -765.6375258554      2.75E-07
    9    -765.6375258559      1.02E-07
   10    -765.6375258559      6.39E-08
   11    -765.6375258559      8.96E-09 Convergence criterion met
 ---------------------------------------
 SCF time:  CPU 181.46 s  wall 8.57 s
 SCF   energy in the final basis set = -765.6375258559
 Total energy in the final basis set = -765.6375258559
 
 --------------------------------------------------------------
 
                    Orbital Energies (a.u.)
 --------------------------------------------------------------
 
 Alpha MOs
 -- Occupied --
-19.195 -19.182 -19.148 -19.139 -19.127 -10.317 -10.307 -10.247
-10.242 -10.235 -10.231 -10.214 -10.208 -10.193 -10.190  -1.103
 -1.092  -1.052  -1.017  -1.006  -0.820  -0.775  -0.766  -0.728
 -0.714  -0.644  -0.594  -0.587  -0.567  -0.548  -0.533  -0.508
 -0.492  -0.479  -0.476  -0.473  -0.466  -0.457  -0.447  -0.419
 -0.412  -0.409  -0.399  -0.384  -0.375  -0.360  -0.357  -0.355
 -0.347  -0.347  -0.326  -0.321  -0.304  -0.290  -0.277  -0.264
 -0.258
 -- Virtual --
  0.003   0.026   0.074   0.089   0.112   0.121   0.124   0.131
  0.141   0.147   0.151   0.153   0.159   0.162   0.165   0.168
  0.171   0.183   0.188   0.203   0.213   0.217   0.229   0.236
  0.278   0.296   0.301   0.306   0.321   0.376   0.388   0.394
  0.487   0.501   0.518   0.523   0.540   0.547   0.551   0.556
  0.560   0.579   0.580   0.602   0.605   0.623   0.625   0.639
  0.651   0.655   0.664   0.679   0.702   0.728   0.733   0.743
  0.767   0.791   0.800   0.813   0.828   0.837   0.843   0.851
  0.857   0.861   0.867   0.874   0.887   0.891   0.897   0.906
  0.925   0.936   0.937   0.949   0.958   0.967   0.989   0.993
  1.008   1.021   1.038   1.058   1.081   1.091   1.123   1.147
  1.191   1.201   1.235   1.251   1.265   1.320   1.325   1.338
  1.349   1.378   1.400   1.415   1.440   1.497   1.531   1.534
  1.539   1.553   1.590   1.624   1.626   1.636   1.689   1.695
  1.722   1.730   1.760   1.764   1.781   1.794   1.819   1.832
  1.856   1.867   1.887   1.895   1.910   1.934   1.946   1.956
  1.963   1.990   2.005   2.009   2.028   2.047   2.054   2.063
  2.066   2.097   2.103   2.119   2.139   2.150   2.162   2.201
  2.221   2.262   2.284   2.290   2.303   2.314   2.321   2.365
  2.381   2.393   2.423   2.447   2.472   2.480   2.531   2.542
  2.562   2.573   2.629   2.640   2.647   2.668   2.700   2.730
  2.755   2.763   2.794   2.830   2.869   2.915   2.968   2.982
  3.023   3.055   3.071   3.166   3.187   3.948   4.030   4.061
  4.154   4.214   4.247   4.257   4.288   4.383   4.495   4.534
  4.570   4.648   4.747   4.937
 --------------------------------------------------------------
 
          Ground-State Mulliken Net Atomic Charges

     Atom                 Charge (a.u.)
  ----------------------------------------
      1 C                    -0.184113
      2 C                    -0.198221
      3 C                     0.628672
      4 C                     0.649743
      5 O                    -0.463357
      6 O                    -0.469559
      7 O                    -0.465613
      8 O                    -0.478789
      9 C                    -0.218020
     10 C                    -0.231582
     11 C                     0.094078
     12 C                    -0.285461
     13 C                    -0.282947
     14 C                     0.102849
     15 O                    -0.462103
     16 H                     0.162190
     17 H                     0.163341
     18 H                     0.187512
     19 H                     0.191333
     20 H                     0.151991
     21 H                     0.155740
     22 H                     0.141270
     23 H                     0.154812
     24 H                     0.139064
     25 H                     0.167828
     26 H                     0.161175
     27 H                     0.157621
     28 H                     0.165851
     29 H                     0.164695
  ----------------------------------------
  Sum of atomic charges =    -0.000000

 -----------------------------------------------------------------
                    Cartesian Multipole Moments
 -----------------------------------------------------------------
    Charge (ESU x 10^10)
                -0.0000
    Dipole Moment (Debye)
         X      -0.0332      Y      -2.2235      Z      -3.3560
       Tot       4.0259
    Quadrupole Moments (Debye-Ang)
        XX     -75.3153     XY       2.3677     YY     -81.2981
        XZ      -0.7756     YZ      -4.9969     ZZ     -92.1404
    Octopole Moments (Debye-Ang^2)
       XXX     -37.0562    XXY       1.7385    XYY     -23.9639
       YYY     -30.6275    XXZ      -3.2621    XYZ       4.9489
       YYZ       0.0122    XZZ      -4.2767    YZZ      -2.8593
       ZZZ       0.1135
    Hexadecapole Moments (Debye-Ang^3)
      XXXX   -1870.8822   XXXY      -8.8312   XXYY    -498.0380
      XYYY      42.0524   YYYY   -1473.9350   XXXZ      30.6526
      XXYZ      -0.4085   XYYZ       7.9763   YYYZ     -46.9310
      XXZZ    -394.5396   XYZZ       7.3733   YYZZ    -322.6537
      XZZZ      -2.8614   YZZZ       7.7731   ZZZZ    -332.1469
 -----------------------------------------------------------------
 Calculating analytic gradient of the SCF energy
 Gradient of SCF Energy
            1           2           3           4           5           6
    1   0.0009998   0.0001044  -0.0007175  -0.0015536  -0.0003901   0.0002878
    2  -0.0013852  -0.0000395  -0.0000553   0.0006341   0.0014915  -0.0012333
    3  -0.0009112  -0.0003458   0.0010085   0.0008775  -0.0001263  -0.0006594
            7           8           9          10          11          12
    1   0.0013370   0.0001167  -0.0009527   0.0000381   0.0013158  -0.0001566
    2   0.0014538  -0.0008095  -0.0010338  -0.0009844  -0.0000042  -0.0002066
    3   0.0000168  -0.0009599  -0.0003156   0.0005420  -0.0004445  -0.0004905
           13          14          15          16          17          18
    1  -0.0002137   0.0008966  -0.0001995  -0.0002498  -0.0002123   0.0004511
    2   0.0004365  -0.0012807   0.0006602   0.0000672   0.0006806   0.0006637
    3  -0.0010250   0.0011514  -0.0001552   0.0000972   0.0004858   0.0001344
           19          20          21          22          23          24
    1  -0.0002351  -0.0006794  -0.0001765  -0.0000133  -0.0000816   0.0001054
    2   0.0005375   0.0001643   0.0000179  -0.0003795   0.0001708   0.0001804
    3  -0.0001892   0.0002896   0.0003225   0.0003475   0.0002004   0.0003788
           25          26          27          28          29
    1  -0.0003244  -0.0000186   0.0001856   0.0001567   0.0001796
    2   0.0002191   0.0000753  -0.0001708   0.0002440  -0.0001138
    3  -0.0001947  -0.0001322   0.0001960   0.0001133  -0.0002122
 Max gradient component =       1.554E-03
 RMS gradient           =       6.220E-04
 Gradient time:  CPU 72.54 s  wall 4.15 s
 Geometry Optimization Parameters
   NAtoms,    NIC,     NZ,  NCons,   NDum,   NFix, NCnnct, MaxDiis
       29     227       0       2       0       0       0       0

 Cartesian Hessian Update
 Hessian Updated using BFGS Update


** CONSTRAINED OPTIMIZATION IN DELOCALIZED INTERNAL COORDINATES **
   Searching for a Minimum

   Optimization Cycle:   4

                       Coordinates (Angstroms)
     ATOM                X               Y               Z
      1  C         0.3784883106   -0.6408876048   -0.6213920348
      2  C         0.6128395550    0.9030667062   -0.5174118838
      3  C        -0.8764353397   -1.1601389590    0.0556940317
      4  C        -0.5611606902    1.7329432900   -0.0186437994
      5  O        -1.1619989350   -2.3930676931   -0.4269067649
      6  O        -1.5007406072   -0.6151346022    0.9367385082
      7  O        -1.6039689330    1.6043941312   -0.8680863198
      8  O        -0.5501863773    2.4686831565    0.9397276878
      9  C        -2.8281482667    2.2203223758   -0.4350028433
     10  C        -2.2667973388   -3.0937818866    0.1734438624
     11  C         1.6164458348   -1.1542197361    0.1862906310
     12  C         2.9140532780   -0.9096662356   -0.6181499366
     13  C         3.1129107740    0.6239444018   -0.4021070560
     14  C         1.8496692598    0.9650376945    0.4160765240
     15  O         1.6959220612   -0.1986667957    1.2445740103
     16  H         0.3875559722   -1.0003012707   -1.6521059132
     17  H         0.8457424293    1.2990733244   -1.5119766664
     18  H        -3.0129444113    1.9891603200    0.6164444551
     19  H        -2.4791493372   -2.6985098427    1.1683698275
     20  H         1.4915421636   -2.1574357098    0.5970123823
     21  H         3.7359307365   -1.4840193164   -0.1822218221
     22  H         2.8175666777   -1.1992059405   -1.6686830161
     23  H         4.0083779780    0.8270974941    0.1916562140
     24  H         3.1856058221    1.1919426265   -1.3342878146
     25  H         1.8867128109    1.8590335184    1.0361281899
     26  H        -2.7748061966    3.3065269114   -0.5603452113
     27  H        -3.6102448815    1.8024919181   -1.0699743558
     28  H        -1.9783496636   -4.1453270937    0.2214431848
     29  H        -3.1493406213   -2.9791019723   -0.4636450666
   Point Group: c1    Number of degrees of freedom:    81


   Energy is   -765.637525856

              Constraints and their Current Values
                                        Value     Constraint
   Dihedral:        2   1   3   5      162.300      162.300
   Dihedral:        1   2   4   7      -61.600      -61.600
 Hessian Updated using BFGS Update

   Using Lagrange Multiplier Algorithm


 79 Hessian modes will be used to form the next step
  Hessian Eigenvalues:
    -0.968212    0.016456    0.045000    0.045007    0.045030    0.045347
     0.045639    0.047710    0.049233    0.057408    0.061686    0.064037
     0.066887    0.071460    0.072289    0.074078    0.076097    0.081477
     0.082710    0.084075    0.085148    0.086723    0.088248    0.091373
     0.092139    0.097965    0.098774    0.112390    0.112726    0.114628
     0.117007    0.117321    0.121871    0.127090    0.139237    0.143427
     0.159612    0.160147    0.161006    0.162322    0.171125    0.174566
     0.243700    0.248856    0.249631    0.249999    0.250103    0.252458
     0.261892    0.266222    0.268751    0.280465    0.290476    0.303316
     0.309246    0.321930    0.329925    0.338556    0.340247    0.341562
     0.341926    0.342189    0.342582    0.343223    0.343848    0.343911
     0.343983    0.344009    0.344429    0.344837    0.345940    0.353207
     0.408157    0.414674    0.517306    0.518529    0.945710    0.956322
     1.037306

 Minimum Search - Taking P-RFO Step
 Searching for Lamda that Maximizes Along the Constraint modes Only
 Value Taken    Lamda =   0.00000105
 Searching for Lamda that Minimizes Along All other modes
 Value Taken    Lamda =  -0.00020107
 Step Taken.  Stepsize is  0.090060

                             Maximum     Tolerance    Cnvgd?
         Gradient            0.001561       0.000005      NO
         Displacement        0.051234       0.000005      NO
         Energy change     -0.000334       0.000000      NO


 New Cartesian Coordinates Obtained by Inverse Iteration

 Displacement from previous Coordinates is:  0.220535
 ----------------------------------------------------------------
             Standard Nuclear Orientation (Angstroms)
    I     Atom           X                Y                Z
 ----------------------------------------------------------------
    1      C       0.3783874394    -0.6378735972    -0.6260190262
    2      C       0.6179966208     0.9043097886    -0.5212258748
    3      C      -0.8770373196    -1.1507277457     0.0513717456
    4      C      -0.5585071572     1.7308692547    -0.0268285865
    5      O      -1.1702820584    -2.3831078097    -0.4301416565
    6      O      -1.4943127298    -0.5992924488     0.9347307898
    7      O      -1.5984799933     1.6032365106    -0.8805777438
    8      O      -0.5556738979     2.4590619386     0.9383783177
    9      C      -2.8279155833     2.2036591928    -0.4379955422
   10      C      -2.2707969405    -3.0818177216     0.1819799288
   11      C       1.6148230625    -1.1520866739     0.1867522002
   12      C       2.9142208754    -0.9067634295    -0.6163574112
   13      C       3.1161316808     0.6246485037    -0.3961957098
   14      C       1.8504910525     0.9663941315     0.4168413676
   15      O       1.6927675952    -0.1982661220     1.2434941380
   16      H       0.3920257623    -1.0006793635    -1.6553267296
   17      H       0.8522891624     1.2898222743    -1.5200486257
   18      H      -3.0265764353     1.9280354272     0.6003130353
   19      H      -2.4551319399    -2.7054809279     1.1895822030
   20      H       1.4909465707    -2.1567202901     0.5945226672
   21      H       3.7357675490    -1.4849350403    -0.1848010888
   22      H       2.8162684228    -1.1879902271    -1.6691944881
   23      H       4.0125969418     0.8259793823     0.1965341871
   24      H       3.1876597993     1.1907779436    -1.3297105844
   25      H       1.8833915494     1.8587805450     1.0395354717
   26      H      -2.7731791564     3.2938358831    -0.5184016709
   27      H      -3.6016949575     1.8124258576    -1.0996049208
   28      H      -1.9938533238    -4.1373806794     0.2018464126
   29      H      -3.1672305271    -2.9444613469    -0.4307938007
 ----------------------------------------------------------------
 Molecular Point Group                 C1    NOp =  1
 Largest Abelian Subgroup              C1    NOp =  1
 Nuclear Repulsion Energy =  1112.3202635451 hartrees
 There are       57 alpha and       57 beta electrons
 Applying Cartesian multipole field
    Component          Value
    ---------          -----
     (2,0,0)        1.00000E-11
     (0,2,0)        2.00000E-11
     (0,0,2)       -3.00000E-11
 Nucleus-field energy     =     0.0000000317 hartrees
 Requested basis set is 6-31G(d)
 There are 88 shells and 253 basis functions
 A cutoff of  1.0D-12 yielded   3176 shell pairs
 There are     28032 function pairs
 Smallest overlap matrix eigenvalue = 9.61E-04
 Guess MOs from SCF MO coefficient file
 Reading MOs from coefficient file
 Reading MOs from coefficient file
 A restricted hybrid HF-DFT SCF calculation will be
 performed using Pulay DIIS extrapolation
 Exchange:     0.2000 Hartree-Fock + 0.0800 Slater + 0.7200 B88
 Correlation:  0.1900 VWN1RPA + 0.8100 LYP
 Using SG-1 standard quadrature grid
 Dispersion:   Grimme D3
 SCF converges when DIIS error is below 1.0E-08
 Geometry optimization detected.  Setting ReadMinima to 0
 Setting SaveMinima to 0
 using 24 threads for integral computing 
 -------------------------------------------------------
 OpenMP BLAS3 based DFT computing Module                
 Release: version 1.0, May 2013, Q-Chem Inc. Pittsburgh 
 -------------------------------------------------------
 ---------------------------------------
  Cycle       Energy         DIIS Error
 ---------------------------------------
    1    -765.6359540121      3.52E-04
    2    -765.6376453065      3.15E-05
    3    -765.6376528034      2.87E-05
    4    -765.6376581269      1.02E-05
    5    -765.6376586199      5.02E-06
    6    -765.6376587549      1.84E-06
    7    -765.6376587746      5.25E-07
    8    -765.6376587763      8.92E-08
    9    -765.6376587764      3.71E-08
   10    -765.6376587764      2.09E-08
   11    -765.6376587764      4.89E-09 Convergence criterion met
 ---------------------------------------
 SCF time:  CPU 177.42 s  wall 8.40 s
 SCF   energy in the final basis set = -765.6376587764
 Total energy in the final basis set = -765.6376587764
 
 --------------------------------------------------------------
 
                    Orbital Energies (a.u.)
 --------------------------------------------------------------
 
 Alpha MOs
 -- Occupied --
-19.195 -19.182 -19.148 -19.139 -19.126 -10.317 -10.307 -10.247
-10.242 -10.235 -10.231 -10.213 -10.208 -10.193 -10.190  -1.103
 -1.092  -1.053  -1.017  -1.005  -0.820  -0.775  -0.766  -0.728
 -0.714  -0.644  -0.594  -0.587  -0.567  -0.548  -0.533  -0.509
 -0.492  -0.479  -0.476  -0.474  -0.466  -0.457  -0.447  -0.420
 -0.412  -0.409  -0.399  -0.384  -0.376  -0.361  -0.357  -0.355
 -0.347  -0.347  -0.327  -0.322  -0.305  -0.290  -0.277  -0.264
 -0.258
 -- Virtual --
  0.002   0.026   0.074   0.089   0.111   0.121   0.125   0.131
  0.141   0.147   0.151   0.153   0.159   0.162   0.165   0.168
  0.171   0.183   0.188   0.203   0.213   0.217   0.229   0.236
  0.278   0.296   0.301   0.306   0.321   0.376   0.389   0.395
  0.487   0.502   0.518   0.523   0.540   0.548   0.551   0.557
  0.560   0.579   0.580   0.602   0.604   0.623   0.625   0.640
  0.651   0.655   0.664   0.678   0.704   0.729   0.731   0.743
  0.767   0.791   0.801   0.813   0.828   0.837   0.843   0.850
  0.857   0.861   0.866   0.874   0.887   0.892   0.898   0.906
  0.926   0.936   0.938   0.948   0.958   0.968   0.989   0.993
  1.008   1.022   1.038   1.060   1.081   1.092   1.123   1.149
  1.191   1.203   1.238   1.251   1.266   1.320   1.326   1.338
  1.350   1.379   1.401   1.415   1.442   1.497   1.528   1.533
  1.537   1.552   1.590   1.623   1.626   1.635   1.689   1.696
  1.722   1.733   1.761   1.765   1.782   1.795   1.821   1.833
  1.856   1.868   1.887   1.897   1.911   1.935   1.946   1.956
  1.963   1.990   2.005   2.011   2.028   2.048   2.057   2.064
  2.065   2.101   2.103   2.119   2.139   2.153   2.162   2.201
  2.222   2.264   2.284   2.290   2.303   2.314   2.321   2.367
  2.382   2.393   2.423   2.447   2.472   2.480   2.532   2.543
  2.563   2.574   2.630   2.640   2.648   2.668   2.700   2.731
  2.754   2.764   2.794   2.829   2.869   2.917   2.969   2.980
  3.024   3.056   3.071   3.165   3.186   3.948   4.033   4.065
  4.156   4.214   4.249   4.260   4.289   4.383   4.498   4.533
  4.571   4.651   4.748   4.938
 --------------------------------------------------------------
 
          Ground-State Mulliken Net Atomic Charges

     Atom                 Charge (a.u.)
  ----------------------------------------
      1 C                    -0.184940
      2 C                    -0.198226
      3 C                     0.630324
      4 C                     0.650473
      5 O                    -0.463958
      6 O                    -0.470247
      7 O                    -0.466304
      8 O                    -0.479540
      9 C                    -0.218260
     10 C                    -0.230938
     11 C                     0.094666
     12 C                    -0.286027
     13 C                    -0.282547
     14 C                     0.103392
     15 O                    -0.461398
     16 H                     0.162140
     17 H                     0.163122
     18 H                     0.187457
     19 H                     0.190637
     20 H                     0.151682
     21 H                     0.155668
     22 H                     0.141009
     23 H                     0.154799
     24 H                     0.138955
     25 H                     0.168027
     26 H                     0.162011
     27 H                     0.157098
     28 H                     0.165995
     29 H                     0.164929
  ----------------------------------------
  Sum of atomic charges =     0.000000

 -----------------------------------------------------------------
                    Cartesian Multipole Moments
 -----------------------------------------------------------------
    Charge (ESU x 10^10)
                 0.0000
    Dipole Moment (Debye)
         X      -0.0206      Y      -2.2539      Z      -3.3350
       Tot       4.0253
    Quadrupole Moments (Debye-Ang)
        XX     -75.2633     XY       2.4631     YY     -81.3390
        XZ      -0.7964     YZ      -5.0119     ZZ     -92.1519
    Octopole Moments (Debye-Ang^2)
       XXX     -37.0847    XXY       1.4060    XYY     -23.7314
       YYY     -30.9670    XXZ      -3.0174    XYZ       5.1387
       YYZ       0.3948    XZZ      -4.1736    YZZ      -3.0754
       ZZZ       0.5380
    Hexadecapole Moments (Debye-Ang^3)
      XXXX   -1871.0371   XXXY      -9.3442   XXYY    -497.1469
      XYYY      41.5882   YYYY   -1462.1294   XXXZ      30.3780
      XXYZ      -0.6683   XYYZ       7.5362   YYYZ     -45.0695
      XXZZ    -394.8329   XYZZ       7.2361   YYZZ    -321.0738
      XZZZ      -3.2550   YZZZ       8.4323   ZZZZ    -332.9070
 -----------------------------------------------------------------
 Calculating analytic gradient of the SCF energy
 Gradient of SCF Energy
            1           2           3           4           5           6
    1  -0.0002790   0.0006034  -0.0000580  -0.0010214  -0.0001245   0.0001713
    2  -0.0006216   0.0001475  -0.0001957  -0.0003715   0.0008919   0.0005553
    3  -0.0017784   0.0012838   0.0002829  -0.0004780  -0.0010513   0.0003821
            7           8           9          10          11          12
    1   0.0013761  -0.0000128  -0.0009778  -0.0001475   0.0010636  -0.0000473
    2   0.0010019  -0.0002336  -0.0007583  -0.0010124   0.0005952   0.0001559
    3  -0.0003760   0.0003535   0.0000848   0.0008493   0.0007257  -0.0000757
           13          14          15          16          17          18
    1  -0.0000487   0.0006931  -0.0000664   0.0000189  -0.0003295   0.0002818
    2   0.0000755  -0.0011172   0.0003074  -0.0000921  -0.0002346   0.0005187
    3  -0.0003298   0.0007477  -0.0011430   0.0001854  -0.0002380   0.0001650
           19          20          21          22          23          24
    1  -0.0002590  -0.0004751  -0.0000570  -0.0000919   0.0000914  -0.0002502
    2   0.0002989   0.0000305   0.0000644  -0.0000057   0.0000181  -0.0000725
    3  -0.0002716   0.0001265   0.0002845   0.0001590   0.0000255   0.0001719
           25          26          27          28          29
    1  -0.0004145  -0.0000948   0.0001699   0.0001199   0.0001661
    2   0.0001725   0.0000798  -0.0001553   0.0001630  -0.0002059
    3   0.0000058  -0.0002434   0.0002190   0.0001583  -0.0002255
 Max gradient component =       1.778E-03
 RMS gradient           =       5.239E-04
 Gradient time:  CPU 73.82 s  wall 4.95 s
 Geometry Optimization Parameters
   NAtoms,    NIC,     NZ,  NCons,   NDum,   NFix, NCnnct, MaxDiis
       29     227       0       2       0       0       0       0

 Cartesian Hessian Update
 Hessian Updated using BFGS Update


** CONSTRAINED OPTIMIZATION IN DELOCALIZED INTERNAL COORDINATES **
   Searching for a Minimum

   Optimization Cycle:   5

                       Coordinates (Angstroms)
     ATOM                X               Y               Z
      1  C         0.3783874394   -0.6378735972   -0.6260190262
[...]
 -0.492  -0.480  -0.476  -0.474  -0.466  -0.457  -0.447  -0.420
 -0.409  -0.408  -0.400  -0.383  -0.376  -0.363  -0.357  -0.355
 -0.348  -0.347  -0.327  -0.322  -0.306  -0.291  -0.276  -0.265
 -0.258
 -- Virtual --
  0.001   0.026   0.074   0.089   0.110   0.121   0.126   0.131
  0.142   0.146   0.151   0.151   0.158   0.162   0.164   0.169
  0.173   0.182   0.190   0.202   0.213   0.216   0.229   0.234
  0.277   0.297   0.301   0.307   0.321   0.376   0.389   0.396
  0.500   0.501   0.515   0.525   0.542   0.549   0.551   0.558
  0.559   0.578   0.586   0.597   0.602   0.619   0.626   0.640
  0.649   0.655   0.664   0.677   0.718   0.719   0.729   0.748
  0.767   0.801   0.806   0.813   0.831   0.838   0.842   0.843
  0.849   0.859   0.862   0.872   0.885   0.890   0.906   0.915
  0.924   0.936   0.939   0.944   0.955   0.966   0.985   0.996
  1.006   1.022   1.039   1.061   1.081   1.092   1.120   1.153
  1.176   1.203   1.237   1.260   1.273   1.315   1.327   1.339
  1.363   1.390   1.401   1.421   1.443   1.485   1.515   1.521
  1.525   1.549   1.613   1.617   1.631   1.641   1.691   1.695
  1.726   1.739   1.759   1.764   1.784   1.794   1.822   1.838
  1.860   1.866   1.886   1.901   1.908   1.931   1.944   1.950
  1.964   1.993   2.008   2.009   2.030   2.047   2.057   2.065
  2.073   2.097   2.101   2.116   2.125   2.151   2.166   2.198
  2.221   2.253   2.279   2.291   2.303   2.313   2.320   2.371
  2.380   2.397   2.425   2.449   2.476   2.483   2.533   2.547
  2.564   2.573   2.625   2.639   2.648   2.664   2.700   2.730
  2.754   2.760   2.794   2.825   2.870   2.919   2.967   2.979
  3.022   3.053   3.071   3.164   3.187   3.955   4.031   4.066
  4.151   4.218   4.248   4.272   4.289   4.380   4.488   4.528
  4.569   4.646   4.749   4.937
 --------------------------------------------------------------
 
          Ground-State Mulliken Net Atomic Charges

     Atom                 Charge (a.u.)
  ----------------------------------------
      1 C                    -0.186830
      2 C                    -0.198984
      3 C                     0.634462
      4 C                     0.651541
      5 O                    -0.461879
      6 O                    -0.473834
      7 O                    -0.465618
      8 O                    -0.479936
      9 C                    -0.220275
     10 C                    -0.219638
     11 C                     0.095234
     12 C                    -0.287371
     13 C                    -0.281036
     14 C                     0.102540
     15 O                    -0.462588
     16 H                     0.162185
     17 H                     0.164078
     18 H                     0.182301
     19 H                     0.174495
     20 H                     0.152198
     21 H                     0.155585
     22 H                     0.141024
     23 H                     0.155044
     24 H                     0.138653
     25 H                     0.168421
     26 H                     0.168268
     27 H                     0.156529
     28 H                     0.164809
     29 H                     0.170624
  ----------------------------------------
  Sum of atomic charges =     0.000000

 -----------------------------------------------------------------
                    Cartesian Multipole Moments
 -----------------------------------------------------------------
    Charge (ESU x 10^10)
                 0.0000
    Dipole Moment (Debye)
         X      -0.0133      Y       2.0616      Z      -3.4264
       Tot       3.9988
    Quadrupole Moments (Debye-Ang)
        XX     -75.3209     XY       2.3407     YY     -81.2761
        XZ       0.5779     YZ       4.7913     ZZ     -92.2804
    Octopole Moments (Debye-Ang^2)
       XXX      36.6521    XXY      -2.4217    XYY      24.1428
       YYY      27.3107    XXZ      -4.0051    XYZ       5.2106
       YYZ      -1.3265    XZZ       3.6105    YZZ       2.5834
       ZZZ      -2.1828
    Hexadecapole Moments (Debye-Ang^3)
      XXXX   -1877.9126   XXXY     -14.1459   XXYY    -496.0609
      XYYY      43.1602   YYYY   -1459.2984   XXXZ     -28.5705
      XXYZ       2.7201   XYYZ     -10.1834   YYYZ      42.8214
      XXZZ    -398.0198   XYZZ       6.6057   YYZZ    -317.9608
      XZZZ       1.1914   YZZZ      -1.0063   ZZZZ    -332.7430
 -----------------------------------------------------------------
 Calculating analytic gradient of the SCF energy
 Gradient of SCF Energy
            1           2           3           4           5           6
    1  -0.0000076   0.0000008   0.0000019  -0.0000004  -0.0000026   0.0000107
    2  -0.0000031   0.0000025  -0.0000012   0.0000023  -0.0000009  -0.0000022
    3   0.0000012   0.0000076  -0.0000045  -0.0000083  -0.0000134  -0.0000154
            7           8           9          10          11          12
    1  -0.0000074   0.0000082  -0.0000039   0.0000041   0.0000045  -0.0000056
    2  -0.0000034   0.0000004   0.0000008  -0.0000003   0.0000027   0.0000015
    3  -0.0000141  -0.0000016  -0.0000225  -0.0000217   0.0000089   0.0000262
           13          14          15          16          17          18
    1  -0.0000012   0.0000022   0.0000131  -0.0000111  -0.0000126   0.0000051
    2  -0.0000000   0.0000044   0.0000015  -0.0000015  -0.0000013  -0.0000022
    3   0.0000247   0.0000167   0.0000170   0.0000017   0.0000073  -0.0000267
           19          20          21          22          23          24
    1   0.0000138   0.0000072  -0.0000005  -0.0000126   0.0000034  -0.0000110
    2  -0.0000002   0.0000007   0.0000014  -0.0000002   0.0000027   0.0000008
    3  -0.0000215   0.0000113   0.0000301   0.0000230   0.0000355   0.0000279
           25          26          27          28          29
    1   0.0000106  -0.0000023  -0.0000101   0.0000003   0.0000028
    2   0.0000017  -0.0000021  -0.0000022  -0.0000013  -0.0000012
    3   0.0000166  -0.0000220  -0.0000295  -0.0000242  -0.0000304
 Max gradient component =       3.546E-05
 RMS gradient           =       1.241E-05
 Gradient time:  CPU 82.77 s  wall 4.32 s
 Geometry Optimization Parameters
   NAtoms,    NIC,     NZ,  NCons,   NDum,   NFix, NCnnct, MaxDiis
       29     227       0       0       0       0       0       0

 Cartesian Hessian Update
 Hessian Updated using BFGS Update
**WARNING** Hereditary positive definiteness endangered
**WARNING** Small Scalar Product
 Hessian Update Skipped this cycle


** GEOMETRY OPTIMIZATION IN DELOCALIZED INTERNAL COORDINATES **
   Searching for a Minimum

   Optimization Cycle:  14

                       Coordinates (Angstroms)
     ATOM                X               Y               Z
      1  C        -0.3863553065    0.6456121161   -0.6222143192
      2  C        -0.6084698679   -0.8968577973   -0.4948418947
      3  C         0.8628317405    1.1837535247    0.0468285628
      4  C         0.5762748924   -1.7076626195    0.0053679530
      5  O         1.1545466727    2.4095047494   -0.4473401391
      6  O         1.4932727432    0.6565369505    0.9360083898
      7  O         1.6162171454   -1.5765406404   -0.8488391954
      8  O         0.5772164904   -2.4371726064    0.9695637124
      9  C         2.8325564672   -2.2106222514   -0.4217485677
     10  C         2.2793687900    3.0615647798    0.1672877844
     11  C        -1.6337807014    1.1586421211    0.1690865149
     12  C        -2.9245578162    0.8714456571   -0.6368038660
     13  C        -3.1123722315   -0.6537049377   -0.3660461356
     14  C        -1.8384703158   -0.9588137306    0.4478092337
     15  O        -1.7010647270    0.2280977407    1.2496952854
     16  H        -0.3981435555    0.9882465435   -1.6589300409
     17  H        -0.8468706080   -1.3017762756   -1.4848927105
     18  H         3.1724644487   -1.7623385789    0.5160949976
     19  H         2.1112783957    3.1874946653    1.2405156811
     20  H        -1.5347373142    2.1751957078    0.5528743577
     21  H        -3.7574994770    1.4562870617   -0.2375231560
     22  H        -2.8185627068    1.1147243768   -1.6985596286
     23  H        -4.0004452652   -0.8415461185    0.2433631906
     24  H        -3.1909724634   -1.2503372071   -1.2801359649
     25  H        -1.8602150219   -1.8371342162    1.0903683620
     26  H         2.6792822441   -3.2833546798   -0.2748817051
     27  H         3.5545504396   -2.0305609461   -1.2194480041
     28  H         2.3635628371    4.0299032522   -0.3271429481
     29  H         3.1891568178    2.4726085684    0.0194607668
   Point Group: c1    Number of degrees of freedom:    81


   Energy is   -765.639117150

 Hessian Updated using BFGS Update
**WARNING** Hereditary positive definiteness endangered
**WARNING** Small Scalar Product
 Hessian Update Skipped this cycle

 81 Hessian modes will be used to form the next step
  Hessian Eigenvalues:
     0.001767    0.003598    0.007150    0.009378    0.010709    0.013489
     0.018111    0.021768    0.022466    0.027705    0.031289    0.036484
     0.040479    0.041576    0.043714    0.046189    0.048409    0.052030
     0.053252    0.056426    0.056685    0.060081    0.062231    0.063883
     0.064742    0.066296    0.073885    0.075399    0.092998    0.097109
     0.101193    0.101388    0.101905    0.105386    0.105812    0.118378
     0.139040    0.159311    0.159970    0.160018    0.160180    0.160271
     0.160970    0.167834    0.179026    0.235355    0.241576    0.246605
     0.247734    0.249560    0.250358    0.251042    0.257160    0.261217
     0.272806    0.279878    0.293017    0.306070    0.336397    0.340436
     0.342558    0.343001    0.343570    0.343684    0.343827    0.344134
     0.344258    0.344344    0.345118    0.346027    0.346837    0.346968
     0.347449    0.349945    0.388757    0.399729    0.420906    0.542238
     0.546595    0.999422    1.007014

 Minimum Search - Taking Simple RFO Step
 Searching for Lamda that Minimizes Along All modes
 Value Taken    Lamda =   0.00000000
 Step Taken.  Stepsize is  0.000675

                             Maximum     Tolerance    Cnvgd?
         Gradient           0.000004      0.000005     YES
         Displacement       0.000393      0.000005      NO
         Energy change     -0.000000      0.000000     YES

 Final energy is   -765.639117150324     


 ******************************
 **  OPTIMIZATION CONVERGED  **
 ******************************

                       Coordinates (Angstroms)
     ATOM                X               Y               Z
      1  C        -0.3863553065    0.6456121161   -0.6222143192
      2  C        -0.6084698679   -0.8968577973   -0.4948418947
      3  C         0.8628317405    1.1837535247    0.0468285628
      4  C         0.5762748924   -1.7076626195    0.0053679530
      5  O         1.1545466727    2.4095047494   -0.4473401391
      6  O         1.4932727432    0.6565369505    0.9360083898
      7  O         1.6162171454   -1.5765406404   -0.8488391954
      8  O         0.5772164904   -2.4371726064    0.9695637124
      9  C         2.8325564672   -2.2106222514   -0.4217485677
     10  C         2.2793687900    3.0615647798    0.1672877844
     11  C        -1.6337807014    1.1586421211    0.1690865149
     12  C        -2.9245578162    0.8714456571   -0.6368038660
     13  C        -3.1123722315   -0.6537049377   -0.3660461356
     14  C        -1.8384703158   -0.9588137306    0.4478092337
     15  O        -1.7010647270    0.2280977407    1.2496952854
     16  H        -0.3981435555    0.9882465435   -1.6589300409
     17  H        -0.8468706080   -1.3017762756   -1.4848927105
     18  H         3.1724644487   -1.7623385789    0.5160949976
     19  H         2.1112783957    3.1874946653    1.2405156811
     20  H        -1.5347373142    2.1751957078    0.5528743577
     21  H        -3.7574994770    1.4562870617   -0.2375231560
     22  H        -2.8185627068    1.1147243768   -1.6985596286
     23  H        -4.0004452652   -0.8415461185    0.2433631906
     24  H        -3.1909724634   -1.2503372071   -1.2801359649
     25  H        -1.8602150219   -1.8371342162    1.0903683620
     26  H         2.6792822441   -3.2833546798   -0.2748817051
     27  H         3.5545504396   -2.0305609461   -1.2194480041
     28  H         2.3635628371    4.0299032522   -0.3271429481
     29  H         3.1891568178    2.4726085684    0.0194607668

Z-matrix Print:
$molecule
0 1
O 
C  1 1.427640
H  2 1.091093 1 110.200823
C  1 1.438979 2 96.911000 3 -179.361479 0
H  4 1.088486 1 109.786362 2 -177.177864 0
C  4 1.542167 1 102.109224 2 57.975213 0
H  6 1.093315 4 110.049320 1 79.761670 0
H  6 1.094399 4 113.094949 1 -159.007113 0
C  2 1.548563 1 103.517481 3 124.148727 0
H  9 1.093278 2 110.229143 1 -87.204966 0
H  9 1.094415 2 112.515122 1 152.167229 0
C  4 1.550913 1 103.298536 2 -55.215967 0
H  12 1.095899 4 111.211551 1 145.283765 0
C  12 1.520274 4 113.375602 1 -95.838613 0
O  14 1.209074 12 125.787753 4 -6.234097 0
O  14 1.352162 12 109.863400 4 178.435967 0
C  16 1.436644 14 114.869520 12 -175.046931 0
H  17 1.090881 16 105.671097 14 -178.899649 0
H  17 1.093535 16 110.745847 14 -59.018752 0
H  17 1.093639 16 109.704072 14 61.714672 0
C  12 1.563577 4 101.629567 1 29.669970 0
H  21 1.091933 12 112.666127 4 123.843252 0
C  21 1.515811 12 115.552597 4 -110.713084 0
O  23 1.210807 21 126.772726 12 21.230042 0
O  23 1.353428 21 109.754871 12 -162.103751 0
C  25 1.438115 23 115.035190 21 -176.517051 0
H  26 1.090518 25 105.618315 23 178.958570 0
H  26 1.093586 25 110.574143 23 59.079384 0
H  26 1.093817 25 110.405448 23 -61.394650 0
$end

 
 --------------------------------------------------------------
 
                    Orbital Energies (a.u.)
 --------------------------------------------------------------
 
 Alpha MOs
 -- Occupied --
-19.196 -19.183 -19.148 -19.139 -19.127 -10.316 -10.308 -10.247
-10.243 -10.235 -10.231 -10.214 -10.209 -10.193 -10.190  -1.105
 -1.092  -1.052  -1.016  -1.006  -0.820  -0.775  -0.766  -0.728
 -0.714  -0.644  -0.595  -0.587  -0.567  -0.548  -0.533  -0.509
 -0.492  -0.480  -0.476  -0.474  -0.466  -0.457  -0.447  -0.420
 -0.409  -0.408  -0.400  -0.383  -0.376  -0.363  -0.357  -0.355
 -0.348  -0.347  -0.327  -0.322  -0.306  -0.291  -0.276  -0.265
 -0.258
 -- Virtual --
  0.001   0.026   0.074   0.089   0.110   0.121   0.126   0.131
  0.142   0.146   0.151   0.151   0.158   0.162   0.164   0.169
  0.173   0.182   0.190   0.202   0.213   0.216   0.229   0.234
  0.277   0.297   0.301   0.307   0.321   0.376   0.389   0.396
  0.500   0.501   0.515   0.525   0.542   0.549   0.551   0.558
  0.559   0.578   0.586   0.597   0.602   0.619   0.626   0.640
  0.649   0.655   0.664   0.677   0.718   0.719   0.729   0.748
  0.767   0.801   0.806   0.813   0.831   0.838   0.842   0.843
  0.849   0.859   0.862   0.872   0.885   0.890   0.906   0.915
  0.924   0.936   0.939   0.944   0.955   0.966   0.985   0.996
  1.006   1.022   1.039   1.061   1.081   1.092   1.120   1.153
  1.176   1.203   1.237   1.260   1.273   1.315   1.327   1.339
  1.363   1.390   1.401   1.421   1.443   1.485   1.515   1.521
  1.525   1.549   1.613   1.617   1.631   1.641   1.691   1.695
  1.726   1.739   1.759   1.764   1.784   1.794   1.822   1.838
  1.860   1.866   1.886   1.901   1.908   1.931   1.944   1.950
  1.964   1.993   2.008   2.009   2.030   2.047   2.057   2.065
  2.073   2.097   2.101   2.116   2.125   2.151   2.166   2.198
  2.221   2.253   2.279   2.291   2.303   2.313   2.320   2.371
  2.380   2.397   2.425   2.449   2.476   2.483   2.533   2.547
  2.564   2.573   2.625   2.639   2.648   2.664   2.700   2.730
  2.754   2.760   2.794   2.825   2.870   2.919   2.967   2.979
  3.022   3.053   3.071   3.164   3.187   3.955   4.031   4.066
  4.151   4.218   4.248   4.272   4.289   4.380   4.488   4.528
  4.569   4.646   4.749   4.937
 --------------------------------------------------------------
 
          Ground-State Mulliken Net Atomic Charges

     Atom                 Charge (a.u.)
  ----------------------------------------
      1 C                    -0.186830
      2 C                    -0.198984
      3 C                     0.634462
      4 C                     0.651541
      5 O                    -0.461879
      6 O                    -0.473834
      7 O                    -0.465618
      8 O                    -0.479936
      9 C                    -0.220275
     10 C                    -0.219638
     11 C                     0.095234
     12 C                    -0.287371
     13 C                    -0.281036
     14 C                     0.102540
     15 O                    -0.462588
     16 H                     0.162185
     17 H                     0.164078
     18 H                     0.182301
     19 H                     0.174495
     20 H                     0.152198
     21 H                     0.155585
     22 H                     0.141024
     23 H                     0.155044
     24 H                     0.138653
     25 H                     0.168421
     26 H                     0.168268
     27 H                     0.156529
     28 H                     0.164809
     29 H                     0.170624
  ----------------------------------------
  Sum of atomic charges =     0.000000

 -----------------------------------------------------------------
                    Cartesian Multipole Moments
 -----------------------------------------------------------------
    Charge (ESU x 10^10)
                 0.0000
    Dipole Moment (Debye)
         X      -0.0133      Y       2.0616      Z      -3.4264
       Tot       3.9988
    Quadrupole Moments (Debye-Ang)
        XX     -75.3209     XY       2.3407     YY     -81.2761
        XZ       0.5779     YZ       4.7913     ZZ     -92.2804
    Octopole Moments (Debye-Ang^2)
       XXX      36.6521    XXY      -2.4217    XYY      24.1428
       YYY      27.3107    XXZ      -4.0051    XYZ       5.2106
       YYZ      -1.3265    XZZ       3.6105    YZZ       2.5834
       ZZZ      -2.1828
    Hexadecapole Moments (Debye-Ang^3)
      XXXX   -1877.9126   XXXY     -14.1459   XXYY    -496.0609
      XYYY      43.1602   YYYY   -1459.2984   XXXZ     -28.5705
      XXYZ       2.7201   XYYZ     -10.1834   YYYZ      42.8214
      XXZZ    -398.0198   XYZZ       6.6057   YYZZ    -317.9608
      XZZZ       1.1914   YZZZ      -1.0063   ZZZZ    -332.7430
 -----------------------------------------------------------------
Archival summary:
1\1\nid03798\OPT\ProcedureUnspecified\6-31G*\51014\junteng\MonOct221:29:142017MonOct221:29:142017\0\\#,OPT,ProcedureUnspecified,6-31G*,\\0,1\O\C,1,1.42764\H,2,1.09109,1,110.201\C,1,1.43898,2,96.911,3,-179.361,0\H,4,1.08849,1,109.786,2,-177.178,0\C,4,1.54217,1,102.109,2,57.9752,0\H,6,1.09332,4,110.049,1,79.7617,0\H,6,1.0944,4,113.095,1,-159.007,0\C,2,1.54856,1,103.517,3,124.149,0\H,9,1.09328,2,110.229,1,-87.205,0\H,9,1.09442,2,112.515,1,152.167,0\C,4,1.55091,1,103.299,2,-55.216,0\H,12,1.0959,4,111.212,1,145.284,0\C,12,1.52027,4,113.376,1,-95.8386,0\O,14,1.20907,12,125.788,4,-6.2341,0\O,14,1.35216,12,109.863,4,178.436,0\C,16,1.43664,14,114.87,12,-175.047,0\H,17,1.09088,16,105.671,14,-178.9,0\H,17,1.09353,16,110.746,14,-59.0188,0\H,17,1.09364,16,109.704,14,61.7147,0\C,12,1.56358,4,101.63,1,29.67,0\H,21,1.09193,12,112.666,4,123.843,0\C,21,1.51581,12,115.553,4,-110.713,0\O,23,1.21081,21,126.773,12,21.23,0\O,23,1.35343,21,109.755,12,-162.104,0\C,25,1.43811,23,115.035,21,-176.517,0\H,26,1.09052,25,105.618,23,178.959,0\H,26,1.09359,25,110.574,23,59.0794,0\H,26,1.09382,25,110.405,23,-61.3946,0\\\@

 Total job time:  173.73s(wall), 3822.84s(cpu) 
 Mon Oct  2 21:29:14 2017

        *************************************************************
        *                                                           *
        *  Thank you very much for using Q-Chem.  Have a nice day.  *
        *                                                           *
        *************************************************************


